Title
82293
    1SAPS     N    1   0.295   6.512  11.159 -0.3409  0.1849  0.2238
    1SAPS   HN1    2   0.353   6.459  11.091  1.5040 -1.0371  2.5733
    1SAPS   HN2    3   0.337   6.604  11.182 -0.6454  1.9199 -4.8988
    1SAPS   HN3    4   0.273   6.456  11.244 -2.0233 -3.1443 -2.1558
    1SAPS   C12    5   0.162   6.527  11.095 -0.2273  0.4335 -0.1706
    1SAPS  H12A    6   0.130   6.426  11.073  2.4300 -0.8560  1.4003
    1SAPS   C13    7   0.048   6.595  11.177  0.6603 -0.1790 -0.1591
    1SAPS  O13A    8   0.065   6.648  11.287 -0.6476 -0.1810  0.0686
    1SAPS  O13B    9  -0.073   6.595  11.131 -0.0559  0.2064 -0.1324
    1SAPS   C11   10   0.171   6.614  10.968  0.1473  0.2130  0.2686
    1SAPS  H11A   11   0.189   6.720  10.996  0.6340 -0.6415  3.6340
    1SAPS  H11B   12   0.076   6.600  10.912  0.7900 -0.3513 -0.7008
    1SAPS     P   13   0.366   6.659  10.801  0.3441 -0.2093 -0.1365
    1SAPS   O13   14   0.412   6.774  10.882  0.0350  0.5079  0.0644
    1SAPS   O14   15   0.469   6.577  10.736 -0.3231  0.3832  0.0029
    1SAPS   O12   16   0.270   6.563  10.886 -0.4078 -0.6518 -0.0733
    1SAPS   O11   17   0.273   6.719  10.687 -0.2691  0.0312  0.0962
    1SAPS    C1   18   0.346   6.801  10.589  0.1995 -0.0269 -0.0299
    1SAPS    HA   19   0.416   6.871  10.640  1.5754  0.0191 -1.8850
    1SAPS    HB   20   0.402   6.730  10.525  0.3875 -1.5750  1.7563
    1SAPS    C2   21   0.253   6.883  10.496  0.7269  0.5142 -1.1313
    1SAPS    HS   22   0.201   6.952  10.566  0.6868 -1.4451  0.8867
    1SAPS   O21   23   0.169   6.793  10.425  0.1432 -0.4553 -0.3017
    1SAPS   C21   24   0.054   6.854  10.383  0.0606  0.3400  0.0355
    1SAPS   O22   25   0.031   6.971  10.391 -0.0748  0.4424  0.1411
    1SAPS   C22   26  -0.023   6.751  10.303 -0.1216 -0.2959 -0.0443
    1SAPS   H2R   27  -0.039   6.666  10.374  2.5623 -0.6235  0.2464
    1SAPS   H2S   28  -0.120   6.795  10.269 -1.7137 -0.3839  3.8347
    1SAPS    C3   29   0.346   6.963  10.393  0.4253  0.4900 -0.4372
    1SAPS    HX   30   0.399   7.039  10.455  0.2583 -1.0785  1.7420
    1SAPS    HY   31   0.280   7.009  10.317 -0.1457  1.1371  0.4242
    1SAPS   O31   32   0.449   6.872  10.337  0.3031  0.7195 -0.2479
    1SAPS   C31   33   0.447   6.853  10.209  0.3585 -0.2972  0.0783
    1SAPS   O32   34   0.387   6.913  10.125 -0.6097  0.2260  1.2674
    1SAPS   C32   35   0.560   6.753  10.175 -0.3530 -0.3901  0.0247
    1SAPS   H2X   36   0.611   6.722  10.269 -1.7596 -0.1158  0.9078
    1SAPS   H2Y   37   0.633   6.806  10.110  0.8782  0.6901  2.1819
    1SAPS   C23   38   0.053   6.682  10.189 -0.1170 -0.9190  0.4493
    1SAPS   H3R   39   0.159   6.671  10.222 -0.0720 -0.7516  0.3579
    1SAPS   H3S   40   0.066   6.749  10.101 -1.6816  2.7300  2.7649
    1SAPS   C24   41  -0.007   6.544  10.141  0.1334  0.0657  0.0101
    1SAPS   H4R   42   0.006   6.477  10.229 -0.3625  0.5308  0.4402
    1SAPS   H4S   43   0.055   6.514  10.054  3.6130  1.8955  1.6418
    1SAPS   C25   44  -0.156   6.555  10.112 -0.1724  0.7020 -0.3486
    1SAPS   H5R   45  -0.227   6.521  10.189 -1.2555  0.4622 -1.4256
    1SAPS   C26   46  -0.201   6.598   9.990 -0.4440  0.9490 -0.0914
    1SAPS   H6R   47  -0.309   6.590   9.973 -0.2971 -1.4020 -0.3310
    1SAPS   C27   48  -0.105   6.634   9.867  0.4018  0.3220 -0.5446
    1SAPS   H7R   49  -0.028   6.557   9.843 -0.8126 -1.3895  0.8255
    1SAPS   H7S   50  -0.042   6.716   9.906  0.7668 -0.9754  1.7764
    1SAPS   C28   51  -0.179   6.692   9.752 -0.4899 -0.6603 -1.4704
    1SAPS   H8R   52  -0.209   6.796   9.774 -0.6139 -0.8693 -0.5982
    1SAPS   C29   53  -0.200   6.637   9.635  0.0524  0.5144 -0.1360
    1SAPS   H9R   54  -0.242   6.700   9.556 -0.4551  2.4326  1.5834
    1SAPS  C210   55  -0.145   6.498   9.604 -0.3431  0.0884  0.0399
    1SAPS  H10R   56  -0.191   6.415   9.662 -0.2697 -1.3366 -1.8407
    1SAPS  H10S   57  -0.038   6.483   9.628 -1.3648 -2.6980  3.6630
    1SAPS  C211   58  -0.189   6.471   9.457 -0.0094 -0.3053 -0.1561
    1SAPS  H11R   59  -0.292   6.439   9.437 -1.2821  3.9997 -1.3936
    1SAPS  C212   60  -0.102   6.493   9.349  0.6597  0.5804 -0.4484
    1SAPS  H12R   61  -0.148   6.471   9.252 -2.0976 -1.1568  1.1307
    1SAPS  C213   62   0.039   6.538   9.340  0.0396 -0.5316 -0.2578
    1SAPS  H13R   63   0.096   6.442   9.333 -2.9725 -2.3553 -2.2783
    1SAPS  H13S   64   0.059   6.585   9.438 -1.8940  0.1011 -0.1221
    1SAPS  C214   65   0.079   6.628   9.231 -0.3707 -0.4808 -0.8221
    1SAPS  H14R   66   0.003   6.703   9.204 -1.3414 -1.7758 -1.8440
    1SAPS  C215   67   0.181   6.612   9.154  0.0547 -0.1448  0.4177
    1SAPS  H15R   68   0.208   6.684   9.075  2.3796  0.3345  1.5507
    1SAPS  C216   69   0.289   6.505   9.164  0.3696  0.6096  0.1930
    1SAPS  H16R   70   0.289   6.430   9.245 -1.3750 -0.8837 -1.0861
    1SAPS  H16S   71   0.382   6.562   9.184  1.2983 -0.9841  0.5922
    1SAPS  C217   72   0.297   6.413   9.039  0.0155  0.1570  0.2471
    1SAPS  H17R   73   0.332   6.472   8.951 -1.6331  1.6161  0.5091
    1SAPS  H17S   74   0.197   6.374   9.011 -0.6961  0.6005  2.0542
    1SAPS  C218   75   0.390   6.297   9.053  0.2207  1.0585  0.1242
    1SAPS  H18R   76   0.354   6.250   9.148  0.5411  0.4455 -0.0525
    1SAPS  H18S   77   0.496   6.325   9.064  0.5192 -0.5414  1.9456
    1SAPS  C219   78   0.395   6.191   8.943 -0.2848  0.2990 -0.1716
    1SAPS  H19R   79   0.491   6.142   8.918  1.1570  2.5283  0.6737
    1SAPS  H19S   80   0.369   6.241   8.847 -2.0800 -1.5941 -0.7613
    1SAPS  C220   81   0.282   6.082   8.950 -0.3763 -0.3332 -0.1871
    1SAPS  H20R   82   0.184   6.134   8.943 -0.8323 -1.0521  0.7146
    1SAPS  H20S   83   0.290   6.026   9.046 -0.7962 -0.4664 -0.2310
    1SAPS  H20T   84   0.297   6.007   8.869  0.5742  1.4020 -1.6994
    1SAPS   C33   85   0.515   6.641  10.082 -0.1211  0.3660 -1.2489
    1SAPS   H3X   86   0.472   6.672   9.984 -0.9807  1.2873 -0.6052
    1SAPS   H3Y   87   0.435   6.584  10.135  0.5254  0.1380 -0.4957
    1SAPS   C34   88   0.635   6.538  10.069  0.6804 -0.1051  0.1386
    1SAPS   H4X   89   0.600   6.455  10.005 -0.4056 -1.1879  2.0600
    1SAPS   H4Y   90   0.657   6.498  10.171  0.5820 -0.1214  0.1539
    1SAPS   C35   91   0.761   6.602  10.002 -0.7725  0.2637  0.2886
    1SAPS   H5X   92   0.821   6.659  10.075  1.6976 -1.7954 -0.0106
    1SAPS   H5Y   93   0.734   6.689   9.939  2.2342 -0.9719 -3.0536
    1SAPS   C36   94   0.854   6.500   9.948  0.0341  0.6307  0.0917
    1SAPS   H6X   95   0.851   6.401   9.998  0.5218 -1.0450 -2.9396
    1SAPS   H6Y   96   0.961   6.524   9.965  0.0297  0.0664  1.0004
    1SAPS   C37   97   0.838   6.458   9.796  0.0587  0.6563  0.0684
    1SAPS   H7X   98   0.840   6.545   9.727  3.7821 -0.8339 -2.0262
    1SAPS   H7Y   99   0.740   6.407   9.793  1.8510 -3.3595  1.9249
    1SAPS   C38  100   0.940   6.354   9.740  0.1507  0.7963  0.7480
    1SAPS   H8X  101   0.954   6.272   9.814 -0.9303 -1.3664 -1.2972
    1SAPS   H8Y  102   1.037   6.409   9.731  1.8632 -1.8514  1.7918
    1SAPS   C39  103   0.898   6.282   9.611 -0.0520 -0.5266 -0.4266
    1SAPS   H9X  104   0.802   6.227   9.617  0.7333 -1.8042  1.0065
    1SAPS   H9Y  105   0.980   6.208   9.590  0.4220  0.2962 -1.6146
    1SAPS  C310  106   0.875   6.381   9.497 -0.2808 -0.3449  0.5587
    1SAPS  H10X  107   0.965   6.446   9.502 -0.6826  0.4834 -1.7046
    1SAPS  H10Y  108   0.790   6.450   9.517 -0.7938 -0.9599  0.5351
    1SAPS  C311  109   0.851   6.328   9.355  0.3888 -0.4193  0.5324
    1SAPS  H11X  110   0.755   6.273   9.357  1.2400 -1.9775  0.4298
    1SAPS  H11Y  111   0.936   6.263   9.324 -0.1417 -0.2650 -1.3135
    1SAPS  C312  112   0.846   6.448   9.251 -0.9599  0.7074  0.9151
    1SAPS  H12X  113   0.889   6.410   9.156 -0.0197 -2.3252  2.4318
    1SAPS  H12Y  114   0.921   6.527   9.277  1.1810 -1.0177  0.2926
    1SAPS  C313  115   0.703   6.499   9.228  0.2936  0.0969 -0.5723
    1SAPS  H13X  116   0.678   6.556   9.319  1.6972 -3.4962  2.2976
    1SAPS  H13Y  117   0.624   6.422   9.216  0.6513  0.0081 -2.7629
    1SAPS  C314  118   0.671   6.585   9.096  0.1829 -0.7475  0.3740
    1SAPS  H14X  119   0.567   6.622   9.109  0.1617 -1.1886  1.5780
    1SAPS  H14Y  120   0.674   6.523   9.003  0.8563  0.8911 -0.7550
    1SAPS  C315  121   0.761   6.701   9.078  0.1321 -1.0782 -0.0033
    1SAPS  H15X  122   0.868   6.675   9.090  1.0214  2.3549  0.5880
    1SAPS  H15Y  123   0.741   6.777   9.156 -1.0009 -0.8471 -0.4897
    1SAPS  C316  124   0.724   6.779   8.946  0.0729 -0.6551 -0.0284
    1SAPS  H16X  125   0.700   6.720   8.855  0.3889  1.2631 -1.4174
    1SAPS  H16Y  126   0.822   6.826   8.924  0.4250 -1.6226 -0.6148
    1SAPS  C317  127   0.613   6.880   8.976  0.3204  0.5501  0.3368
    1SAPS  H17X  128   0.660   6.958   9.039  1.3750  0.5713 -0.4473
    1SAPS  H17Y  129   0.529   6.826   9.025  1.1606 -1.1045  0.0373
    1SAPS  C318  130   0.559   6.952   8.849  0.2527 -0.1676 -0.4986
    1SAPS  H18X  131   0.520   6.890   8.766  0.0062  1.1740 -1.4104
    1SAPS  H18Y  132   0.629   7.024   8.803  0.4330  1.3304  1.9014
    1SAPS  H18Z  133   0.468   7.007   8.882  0.7471  0.8931 -0.8635
    2SAPS     N  134   5.067   0.844  10.915  0.6164  0.1139  0.7713
    2SAPS   HN1  135   5.002   0.906  10.967  1.0116  1.3672 -0.1859
    2SAPS   HN2  136   5.066   0.894  10.824 -0.5044  1.2386  1.3733
    2SAPS   HN3  137   5.016   0.755  10.896  0.7815  0.0377  0.6855
    2SAPS   C12  138   5.194   0.823  10.978 -0.2642 -0.3569  0.3838
    2SAPS  H12A  139   5.247   0.916  10.994 -1.0086  0.0389  0.6176
    2SAPS   C13  140   5.181   0.754  11.107  0.3725 -0.3444 -0.1480
    2SAPS  O13A  141   5.069   0.709  11.151  0.0647  0.3309  0.9867
    2SAPS  O13B  142   5.284   0.736  11.174  0.1230  0.2543 -0.5158
    2SAPS   C11  143   5.287   0.742  10.884 -0.0648 -0.2684 -0.2251
    2SAPS  H11A  144   5.261   0.637  10.862  0.0741 -0.7732  1.8677
    2SAPS  H11B  145   5.387   0.743  10.932  0.6493  0.6623 -1.6584
    2SAPS     P  146   5.425   0.852  10.705  0.1503 -0.1154 -0.3902
    2SAPS   O13  147   5.458   0.970  10.790 -0.2835 -0.1970 -0.2465
    2SAPS   O14  148   5.518   0.738  10.697 -0.3077  0.1345  0.5570
    2SAPS   O12  149   5.292   0.800  10.760  0.1872 -0.2768  0.5000
    2SAPS   O11  150   5.378   0.904  10.563 -0.8393 -0.5190 -0.3410
    2SAPS    C1  151   5.249   0.903  10.506  0.5048  0.3560 -0.3679
    2SAPS    HA  152   5.237   0.798  10.471  0.5130  0.0492  0.5187
    2SAPS    HB  153   5.176   0.934  10.584 -0.5393 -0.5285 -0.9715
    2SAPS    C2  154   5.228   0.990  10.385 -0.3034 -0.0363 -0.1867
    2SAPS    HS  155   5.138   0.953  10.331  0.2989 -0.3030 -1.0190
    2SAPS   O21  156   5.342   0.988  10.303 -0.1082  0.2956  0.5118
    2SAPS   C21  157   5.374   0.873  10.250  0.3715  0.2652 -0.1450
    2SAPS   O22  158   5.305   0.769  10.260  0.0251  0.4379  0.5015
    2SAPS   C22  159   5.496   0.872  10.165  0.1679  0.1408  0.5502
    2SAPS   H2R  160   5.487   0.955  10.092 -3.6146 -1.7947 -1.4453
    2SAPS   H2S  161   5.588   0.875  10.228  0.5334 -0.4690  0.0538
    2SAPS    C3  162   5.199   1.137  10.418  0.0715 -0.0724  0.2523
    2SAPS    HX  163   5.281   1.178  10.480  2.3821 -1.3208 -1.8242
    2SAPS    HY  164   5.105   1.136  10.478 -1.0407 -0.7597 -1.4290
    2SAPS   O31  165   5.182   1.214  10.296 -1.2288  0.4069 -0.1859
    2SAPS   C31  166   5.191   1.346  10.309 -0.9641  0.1196  0.0441
    2SAPS   O32  167   5.221   1.405  10.412 -0.2247 -0.2480 -0.4507
    2SAPS   C32  168   5.157   1.431  10.180 -0.4168  0.2079 -0.3469
    2SAPS   H2X  169   5.196   1.533  10.200 -1.6400  0.7415 -0.6038
    2SAPS   H2Y  170   5.049   1.427  10.156 -0.1023  0.6605 -1.9993
    2SAPS   C23  171   5.511   0.752  10.072  0.4440 -0.1377 -0.1072
    2SAPS   H3R  172   5.479   0.661  10.126  1.0559 -0.3371 -0.0697
    2SAPS   H3S  173   5.617   0.727  10.046  0.3586  1.0498 -1.7294
    2SAPS   C24  174   5.421   0.753   9.944  0.1921 -0.4541 -0.7927
    2SAPS   H4R  175   5.315   0.756   9.977  0.1670 -0.7451 -0.8442
    2SAPS   H4S  176   5.432   0.654   9.895  2.6456 -0.9390  0.5657
    2SAPS   C25  177   5.448   0.870   9.850 -0.0437 -0.2703 -0.1545
    2SAPS   H5R  178   5.453   0.974   9.884  0.1587  0.8022 -3.1733
    2SAPS   C26  179   5.451   0.861   9.714  0.3410 -0.4374  0.1006
    2SAPS   H6R  180   5.455   0.948   9.646 -0.0863 -1.1434 -0.8375
    2SAPS   C27  181   5.441   0.734   9.637  0.0376 -0.1493 -0.4844
    2SAPS   H7R  182   5.334   0.730   9.608 -0.2449  0.7292  0.3768
    2SAPS   H7S  183   5.461   0.650   9.707  0.4086  0.0834 -0.3097
    2SAPS   C28  184   5.536   0.721   9.529 -1.0628  0.4714  0.3083
    2SAPS   H8R  185   5.628   0.666   9.556 -1.0687 -0.6081 -1.7297
    2SAPS   C29  186   5.529   0.782   9.407 -0.8487  0.1370  0.0917
    2SAPS   H9R  187   5.605   0.766   9.330  0.8716  5.3876  0.3233
    2SAPS  C210  188   5.410   0.857   9.353 -0.5464  0.0976 -0.8204
    2SAPS  H10R  189   5.445   0.961   9.341  0.8369 -0.2308  0.1637
    2SAPS  H10S  190   5.322   0.857   9.422  0.4237  1.4390  0.4748
    2SAPS  C211  191   5.352   0.806   9.217  0.6249 -0.4387 -0.6177
    2SAPS  H11R  192   5.366   0.698   9.200  1.9250 -0.4403  0.3281
    2SAPS  C212  193   5.304   0.878   9.119 -0.2501  0.1447  0.3619
    2SAPS  H12R  194   5.279   0.837   9.020  0.0389 -1.0798  0.7894
    2SAPS  C213  195   5.279   1.027   9.128 -0.5431  0.4344  0.4595
    2SAPS  H13R  196   5.363   1.074   9.072 -0.7873 -0.2512 -0.5054
    2SAPS  H13S  197   5.275   1.068   9.231  0.7818 -0.9609  1.0958
    2SAPS  C214  198   5.155   1.068   9.046 -0.1254  0.1524 -0.1266
    2SAPS  H14R  199   5.063   1.071   9.108  0.7093 -1.3819  1.2491
    2SAPS  C215  200   5.146   1.116   8.919 -0.2530 -0.3455  0.3350
    2SAPS  H15R  201   5.054   1.145   8.868 -0.9084 -0.6418  1.3238
    2SAPS  C216  202   5.272   1.137   8.832 -0.3456 -0.3766 -0.1586
    2SAPS  H16R  203   5.362   1.160   8.894 -0.1712 -0.9073 -0.2096
    2SAPS  H16S  204   5.258   1.227   8.768  1.5969  0.0251 -0.0834
    2SAPS  C217  205   5.292   1.018   8.727  0.1237 -0.2531 -0.4952
    2SAPS  H17R  206   5.200   0.993   8.669 -0.9924 -0.6516  1.3761
    2SAPS  H17S  207   5.307   0.929   8.791 -3.4707  0.4968  1.7209
    2SAPS  C218  208   5.403   1.048   8.630  0.4240 -0.3250  0.6384
    2SAPS  H18R  209   5.502   1.089   8.658  1.2442 -0.4214 -1.8389
    2SAPS  H18S  210   5.357   1.133   8.576 -1.6196 -0.9354  1.3423
    2SAPS  C219  211   5.426   0.953   8.514 -0.0577 -0.2497 -0.0926
    2SAPS  H19R  212   5.461   1.004   8.422  4.0601  1.8008  2.3242
    2SAPS  H19S  213   5.336   0.899   8.475  1.4999 -1.9010 -1.6194
    2SAPS  C220  214   5.519   0.834   8.549 -0.2915  0.4547  0.0362
    2SAPS  H20R  215   5.471   0.772   8.628 -1.0415 -0.9514 -1.4671
    2SAPS  H20S  216   5.613   0.881   8.583 -0.5629  1.4026 -0.4966
    2SAPS  H20T  217   5.539   0.765   8.464  1.0374 -0.8549  1.3548
    2SAPS   C33  218   5.229   1.375  10.059 -0.9640 -0.2600  0.8077
    2SAPS   H3X  219   5.208   1.267  10.044  1.5387 -0.6970 -0.0212
    2SAPS   H3Y  220   5.340   1.387  10.067 -0.8666  0.2216 -0.8360
    2SAPS   C34  221   5.194   1.444   9.932 -0.5181  0.3429  0.3064
    2SAPS   H4X  222   5.251   1.539   9.936  0.4947 -0.2922  1.7581
    2SAPS   H4Y  223   5.086   1.471   9.928 -0.4026  0.6779 -0.5785
    2SAPS   C35  224   5.238   1.374   9.799 -0.7931  0.3264 -0.1793
    2SAPS   H5X  225   5.193   1.273   9.786  0.6308 -0.3353 -0.1649
    2SAPS   H5Y  226   5.346   1.353   9.816 -1.0805 -0.8433  0.3312
    2SAPS   C36  227   5.216   1.464   9.671 -0.4909  0.6508  0.3803
    2SAPS   H6X  228   5.279   1.553   9.693 -0.3131  0.7477 -0.4960
    2SAPS   H6Y  229   5.106   1.478   9.671 -0.7499 -0.8012 -1.7895
    2SAPS   C37  230   5.267   1.398   9.542  1.0534 -0.6677 -0.3192
    2SAPS   H7X  231   5.219   1.299   9.527 -2.6706  0.9700 -0.2944
    2SAPS   H7Y  232   5.375   1.374   9.546  1.2958  0.4573  0.5900
    2SAPS   C38  233   5.231   1.480   9.421 -0.5935  0.4014  0.4788
    2SAPS   H8X  234   5.272   1.583   9.427 -2.2559  1.1791 -0.8955
    2SAPS   H8Y  235   5.122   1.494   9.406 -0.6421  1.9415  1.9559
    2SAPS   C39  236   5.282   1.424   9.287 -0.0652 -0.2876  0.5858
    2SAPS   H9X  237   5.250   1.320   9.268 -2.5297  0.6911 -1.0081
    2SAPS   H9Y  238   5.393   1.420   9.284 -0.0201  0.3879  1.0550
    2SAPS  C310  239   5.222   1.520   9.185  0.9205 -0.0126  0.0334
    2SAPS  H10X  240   5.229   1.629   9.203 -1.4064  0.7880 -3.1752
    2SAPS  H10Y  241   5.112   1.512   9.174  0.9757  2.2719 -4.7647
    2SAPS  C311  242   5.280   1.503   9.045  0.0347 -0.1093  0.3495
    2SAPS  H11X  243   5.269   1.399   9.007  1.4387  0.5000 -1.9650
    2SAPS  H11Y  244   5.387   1.531   9.036  0.0995 -0.6187 -0.5822
    2SAPS  C312  245   5.208   1.593   8.954 -0.3704 -0.3665  0.5899
    2SAPS  H12X  246   5.238   1.699   8.967 -0.0521 -0.5153  1.1141
    2SAPS  H12Y  247   5.100   1.591   8.979 -0.0920  2.5747  2.5442
    2SAPS  C313  248   5.215   1.554   8.806 -0.1522 -0.0737 -0.0646
    2SAPS  H13X  249   5.147   1.466   8.801  0.3638 -0.6236  1.6147
    2SAPS  H13Y  250   5.311   1.514   8.767  0.0057 -0.8123  1.0214
    2SAPS  C314  251   5.159   1.667   8.725 -0.6345  0.2543  0.5554
    2SAPS  H14X  252   5.212   1.764   8.735 -1.3226  0.4932  2.0587
    2SAPS  H14Y  253   5.061   1.691   8.771 -0.4528 -0.4260  1.3199
    2SAPS  C315  254   5.147   1.632   8.572  0.2472  0.1407 -0.3650
    2SAPS  H15X  255   5.079   1.709   8.531  1.6284  1.4837 -0.2123
    2SAPS  H15Y  256   5.099   1.536   8.545  0.7115 -0.2049  0.0243
    2SAPS  C316  257   5.270   1.624   8.479 -0.5393  0.8042 -0.0879
    2SAPS  H16X  258   5.225   1.617   8.378  0.4955 -0.7809 -0.4776
    2SAPS  H16Y  259   5.329   1.533   8.503  0.1049 -0.0607 -4.2823
    2SAPS  C317  260   5.367   1.744   8.488 -0.2725  0.1857 -0.7868
    2SAPS  H17X  261   5.447   1.721   8.415 -1.4511 -1.3580 -1.6438
    2SAPS  H17Y  262   5.409   1.729   8.590 -0.6637  1.1366 -0.4790
    2SAPS  C318  263   5.309   1.887   8.474  0.2844 -0.0241  0.2045
    2SAPS  H18X  264   5.384   1.969   8.486  0.2466  0.1190 -0.5358
    2SAPS  H18Y  265   5.233   1.902   8.553  1.6904  2.3270  1.2348
    2SAPS  H18Z  266   5.257   1.883   8.376 -0.6673 -3.9419  0.7071
    3SAPS     N  267   5.246   1.675  10.845 -0.5338  0.0581 -0.2561
    3SAPS   HN1  268   5.304   1.757  10.821 -1.5144  0.0243 -3.0672
    3SAPS   HN2  269   5.258   1.595  10.779 -1.7399  0.8897 -1.5364
    3SAPS   HN3  270   5.149   1.708  10.827 -0.0364  0.8263 -1.7118
    3SAPS   C12  271   5.267   1.625  10.983  0.5468  0.1911 -0.3333
    3SAPS  H12A  272   5.237   1.708  11.046 -2.9819  0.4162 -2.0154
    3SAPS   C13  273   5.182   1.493  11.016  0.2976 -0.1632 -0.1360
    3SAPS  O13A  274   5.094   1.452  10.937  0.0269 -0.3720 -0.1908
    3SAPS  O13B  275   5.175   1.460  11.136  0.0155 -0.1167 -0.3056
    3SAPS   C11  276   5.415   1.602  11.006  0.7844 -0.5680  0.4358
    3SAPS  H11A  277   5.436   1.616  11.115  2.8976 -0.4053  0.0631
    3SAPS  H11B  278   5.478   1.683  10.965  0.4221 -0.9006 -0.8016
    3SAPS     P  279   5.595   1.415  11.007 -0.2469  0.6391 -0.0994
    3SAPS   O13  280   5.601   1.420  11.155  0.0864 -0.7326 -0.2889
    3SAPS   O14  281   5.621   1.279  10.953 -0.1724  0.3963 -0.1801
    3SAPS   O12  282   5.458   1.478  10.947 -0.2294  0.6602  0.2952
    3SAPS   O11  283   5.708   1.516  10.952 -0.3651  0.4374  0.1756
    3SAPS    C1  284   5.699   1.575  10.824  0.2101  0.3015 -1.0674
    3SAPS    HA  285   5.608   1.544  10.768 -0.5418 -0.5203  0.5571
    3SAPS    HB  286   5.688   1.685  10.839  0.9798  0.1874  0.4849
    3SAPS    C2  287   5.816   1.547  10.721 -0.3935  0.5192  0.0184
    3SAPS    HS  288   5.907   1.560  10.784 -2.1780  2.8777  2.3754
    3SAPS   O21  289   5.811   1.642  10.610 -0.4265 -0.2411 -0.1507
    3SAPS   C21  290   5.929   1.665  10.538  0.2667 -0.6341  0.4113
    3SAPS   O22  291   6.034   1.611  10.567 -0.1629 -0.2539 -0.2478
    3SAPS   C22  292   5.906   1.762  10.429 -0.5571  0.5370  0.3453
    3SAPS   H2R  293   5.833   1.843  10.453 -1.3131 -0.1134  0.2689
    3SAPS   H2S  294   6.005   1.810  10.409 -0.4825 -0.6037 -2.5085
    3SAPS    C3  295   5.810   1.400  10.670  0.2702  0.1089 -0.8666
    3SAPS    HX  296   5.816   1.343  10.765  0.6905 -1.2136 -1.6656
    3SAPS    HY  297   5.898   1.388  10.603 -0.1724  0.4386 -1.5188
    3SAPS   O31  298   5.687   1.369  10.598  0.9310 -0.5250 -0.1228
    3SAPS   C31  299   5.671   1.239  10.582 -0.6581  0.1821 -0.1140
    3SAPS   O32  300   5.743   1.155  10.633  0.0073 -0.1496 -0.1433
    3SAPS   C32  301   5.566   1.215  10.469  0.0634 -0.0941  0.5123
    3SAPS   H2X  302   5.467   1.257  10.498  0.4739  1.6640 -0.5223
    3SAPS   H2Y  303   5.558   1.107  10.447  0.6218  0.1889 -1.1856
    3SAPS   C23  304   5.849   1.702  10.301 -0.1377  0.3045  0.2652
    3SAPS   H3R  305   5.851   1.782  10.224  0.8135 -1.3653 -1.5270
    3SAPS   H3S  306   5.742   1.678  10.312 -0.0433  0.1564  0.8845
    3SAPS   C24  307   5.910   1.569  10.242  0.2708  0.8842 -0.1585
    3SAPS   H4R  308   5.840   1.528  10.166 -0.9593  1.3895  0.6663
    3SAPS   H4S  309   5.928   1.491  10.319 -1.1050  1.1482  0.4598
    3SAPS   C25  310   6.042   1.593  10.177 -0.1361  0.1418  0.2232
    3SAPS   H5R  311   6.109   1.652  10.242  0.0873 -0.7706  0.8367
    3SAPS   C26  312   6.086   1.556  10.053 -0.2868 -0.7846 -0.0303
    3SAPS   H6R  313   6.188   1.586  10.025 -0.1616 -1.2339 -0.0554
    3SAPS   C27  314   6.012   1.477   9.955  0.2071  0.4014  0.0085
    3SAPS   H7R  315   5.929   1.414   9.993 -0.1090 -0.2431 -1.6861
    3SAPS   H7S  316   6.073   1.393   9.919  1.9525  0.7869  1.9038
    3SAPS   C28  317   5.970   1.569   9.840 -0.4905 -0.2850  0.2416
    3SAPS   H8R  318   5.925   1.664   9.872 -1.6216  0.1746 -2.4614
    3SAPS   C29  319   5.976   1.538   9.708 -0.0766 -0.2761  0.5030
    3SAPS   H9R  320   5.940   1.618   9.641 -0.8886 -1.9013 -1.0944
    3SAPS  C210  321   6.022   1.418   9.649 -0.3483  0.1422 -0.0457
    3SAPS  H10R  322   5.933   1.388   9.590 -0.8919  3.4667 -1.0833
    3SAPS  H10S  323   6.045   1.331   9.715  2.3057  1.7043  1.2506
    3SAPS  C211  324   6.152   1.462   9.581  0.1538  0.4121 -0.2506
    3SAPS  H11R  325   6.243   1.434   9.636 -0.3120 -1.3012 -0.3045
    3SAPS  C212  326   6.162   1.527   9.461 -0.3513  0.4406 -0.3520
    3SAPS  H12R  327   6.261   1.547   9.417 -0.9118  1.9573 -0.9961
    3SAPS  C213  328   6.044   1.580   9.373 -0.5215  0.1986  0.4283
    3SAPS  H13R  329   6.086   1.657   9.305  0.0969 -0.0802  0.4882
    3SAPS  H13S  330   5.971   1.645   9.425 -0.7412  0.8465 -0.6606
    3SAPS  C214  331   5.974   1.476   9.288 -0.2292 -0.2824 -0.0712
    3SAPS  H14R  332   5.867   1.465   9.312 -0.7776  1.5671 -1.3820
    3SAPS  C215  333   6.036   1.396   9.198 -0.3208  0.0826 -0.7488
    3SAPS  H15R  334   5.984   1.316   9.143 -2.8468  2.3170 -1.8430
    3SAPS  C216  335   6.180   1.408   9.163  0.2200 -0.4193 -0.0944
    3SAPS  H16R  336   6.250   1.345   9.221  2.3852  2.6424  0.8427
    3SAPS  H16S  337   6.208   1.515   9.179 -1.5654  0.3686 -1.7514
    3SAPS  C217  338   6.211   1.377   9.010 -0.1459  0.6625 -0.0981
    3SAPS  H17R  339   6.185   1.272   8.983  4.0347 -0.0974 -1.9972
    3SAPS  H17S  340   6.322   1.377   9.001 -0.1244  0.3716  0.1238
    3SAPS  C218  341   6.152   1.473   8.912  0.5515 -0.1769 -0.3059
    3SAPS  H18R  342   6.180   1.579   8.930 -0.9947 -0.0228  1.4825
    3SAPS  H18S  343   6.043   1.478   8.935  0.8006  0.7588  0.7160
    3SAPS  C219  344   6.192   1.439   8.767  0.1680 -0.4570  0.7876
    3SAPS  H19R  345   6.150   1.341   8.733 -0.4002  0.6672 -2.0326
    3SAPS  H19S  346   6.301   1.442   8.747 -0.2179  2.9412 -1.6615
    3SAPS  C220  347   6.133   1.547   8.673 -0.0433  0.1906 -0.1763
    3SAPS  H20R  348   6.153   1.517   8.567  1.1833 -0.8661  0.3343
    3SAPS  H20S  349   6.171   1.649   8.697 -0.6992 -0.0795  2.2081
    3SAPS  H20T  350   6.023   1.543   8.688 -0.0120  1.1564  0.3628
    3SAPS   C33  351   5.597   1.294  10.344  0.2547 -0.8576  0.3479
    3SAPS   H3X  352   5.707   1.294  10.332  0.4300  1.8370  1.2776
    3SAPS   H3Y  353   5.564   1.399  10.334  1.5380 -0.2880  1.7268
    3SAPS   C34  354   5.556   1.210  10.219 -0.0249  1.2210  0.7392
    3SAPS   H4X  355   5.447   1.205  10.204 -0.1502  0.2969  1.7897
    3SAPS   H4Y  356   5.600   1.109  10.239 -0.0360  1.3349  1.3684
    3SAPS   C35  357   5.624   1.265  10.089  0.4563  0.8606  0.6127
    3SAPS   H5X  358   5.730   1.240  10.111  0.6129  0.1457 -0.8380
    3SAPS   H5Y  359   5.615   1.374  10.067 -2.2460  0.2576 -2.0424
    3SAPS   C36  360   5.582   1.203   9.958  0.6958  0.5075  0.3854
    3SAPS   H6X  361   5.473   1.180   9.958  0.5660  0.7036 -2.7254
    3SAPS   H6Y  362   5.630   1.103   9.956 -1.8202 -0.8982 -3.8202
    3SAPS   C37  363   5.620   1.278   9.825  0.3143  0.2805 -0.4915
    3SAPS   H7X  364   5.722   1.319   9.844  0.1643 -0.2190  1.6600
    3SAPS   H7Y  365   5.556   1.367   9.808 -0.8505 -0.7592 -1.7247
    3SAPS   C38  366   5.617   1.190   9.705 -0.2348 -0.2602 -0.0698
    3SAPS   H8X  367   5.513   1.159   9.684  0.3265 -2.8273  0.5174
    3SAPS   H8Y  368   5.686   1.110   9.740 -1.4713 -1.9610 -1.3531
    3SAPS   C39  369   5.664   1.248   9.571 -0.0879 -0.2297 -1.3476
    3SAPS   H9X  370   5.774   1.233   9.575 -0.2202 -0.8973  0.7586
    3SAPS   H9Y  371   5.640   1.356   9.583 -0.7878 -0.6153  1.2602
    3SAPS  C310  372   5.606   1.188   9.447 -0.5809 -0.0238 -0.6942
    3SAPS  H10X  373   5.495   1.193   9.452 -0.5524  0.9073 -0.7984
    3SAPS  H10Y  374   5.628   1.080   9.438  3.3380  0.1842  3.0261
    3SAPS  C311  375   5.654   1.252   9.319  0.0295  0.7568  0.1076
    3SAPS  H11X  376   5.765   1.245   9.311  0.3503 -2.1133  4.0203
    3SAPS  H11Y  377   5.627   1.360   9.311 -1.0585  0.4346 -0.7988
    3SAPS  C312  378   5.596   1.189   9.191  0.0403  0.6310  0.0415
    3SAPS  H12X  379   5.495   1.235   9.197 -1.4137 -2.4450  1.8352
    3SAPS  H12Y  380   5.577   1.080   9.204  0.5026  0.2747 -1.9412
    3SAPS  C313  381   5.672   1.224   9.067  0.0650  0.0370 -0.5229
    3SAPS  H13X  382   5.627   1.167   8.982  0.7592  0.5860 -1.2734
    3SAPS  H13Y  383   5.778   1.191   9.064 -0.1313 -0.5230 -1.9189
    3SAPS  C314  384   5.675   1.370   9.025  0.1130 -0.8188 -0.0966
    3SAPS  H14X  385   5.725   1.427   9.107 -1.1444 -0.4925  0.4781
    3SAPS  H14Y  386   5.568   1.403   9.028  0.5386  0.7380 -0.8574
    3SAPS  C315  387   5.743   1.392   8.891  0.5210  0.4638  0.1223
    3SAPS  H15X  388   5.812   1.308   8.869  0.7333  1.2254 -2.5022
    3SAPS  H15Y  389   5.815   1.477   8.893  3.7106 -1.9546 -1.4492
    3SAPS  C316  390   5.647   1.415   8.772 -0.6672 -0.3632  0.0745
    3SAPS  H16X  391   5.573   1.490   8.807  1.6212  1.5712  1.1103
    3SAPS  H16Y  392   5.596   1.319   8.751  2.7905 -1.8812 -2.3001
    3SAPS  C317  393   5.718   1.453   8.636  0.2363  0.7633 -0.2224
    3SAPS  H17X  394   5.774   1.548   8.645  1.0894  0.1860  0.8711
    3SAPS  H17Y  395   5.643   1.466   8.556  1.5371  1.5322 -1.3493
    3SAPS  C318  396   5.821   1.358   8.581  0.4740  0.0125  0.2923
    3SAPS  H18X  397   5.774   1.270   8.534 -0.2569  1.8463 -2.6465
    3SAPS  H18Y  398   5.888   1.331   8.666  1.0575  0.5409  0.0112
    3SAPS  H18Z  399   5.879   1.407   8.500 -2.0354 -1.3342 -2.5050
    4SAPS     N  400   1.121   6.003  10.804  0.0334  0.7484  0.1565
    4SAPS   HN1  401   1.121   6.031  10.704 -0.5070  1.0018  0.2191
    4SAPS   HN2  402   1.188   6.050  10.869  2.0288 -2.1927  0.3758
    4SAPS   HN3  403   1.153   5.905  10.817 -0.4395  0.7936  2.0376
    4SAPS   C12  404   0.974   6.004  10.851  0.0566 -0.2858  0.2139
    4SAPS  H12A  405   0.907   5.954  10.784  0.4320 -1.1425  0.4645
    4SAPS   C13  406   0.952   5.937  10.988 -0.9193 -0.6142  0.6306
    4SAPS  O13A  407   1.054   5.917  11.063 -0.4095  0.0587  0.5609
    4SAPS  O13B  408   0.836   5.923  11.031 -0.3694 -0.2434  0.9107
    4SAPS   C11  409   0.929   6.155  10.857  0.7299  0.5806 -0.3544
    4SAPS  H11A  410   0.972   6.197  10.950  0.5944  0.6759 -0.3352
    4SAPS  H11B  411   0.819   6.155  10.875  0.6255 -0.7831 -0.9091
    4SAPS     P  412   0.862   6.282  10.642 -0.3844  0.0849  0.3656
    4SAPS   O13  413   0.799   6.408  10.697  0.6978  0.2180  0.4517
    4SAPS   O14  414   0.925   6.285  10.508 -0.0947  0.5475  0.1397
    4SAPS   O12  415   0.969   6.230  10.740 -0.1486  0.6638 -0.4815
    4SAPS   O11  416   0.759   6.176  10.655  0.2286 -0.1367  0.3888
    4SAPS    C1  417   0.731   6.071  10.561 -0.3721 -0.1179  0.5954
    4SAPS    HA  418   0.821   6.010  10.540  0.2109  1.2440 -1.0455
    4SAPS    HB  419   0.664   6.003  10.618 -0.4443 -0.2540  0.3475
    4SAPS    C2  420   0.660   6.118  10.433  0.2279  0.5507 -0.3314
    4SAPS    HS  421   0.730   6.190  10.386  0.4362  0.9128  0.5178
    4SAPS   O21  422   0.540   6.185  10.486  0.3043  0.4035 -0.0591
    4SAPS   C21  423   0.493   6.274  10.395  0.6512  0.2479  0.1457
    4SAPS   O22  424   0.547   6.305  10.293 -0.0191  1.0453  0.2171
    4SAPS   C22  425   0.371   6.348  10.446  0.4695 -0.1291 -0.5080
    4SAPS   H2R  426   0.334   6.319  10.547  1.2612  2.6430  0.6478
    4SAPS   H2S  427   0.394   6.456  10.450  0.7890 -0.1712 -1.1004
    4SAPS    C3  428   0.624   5.996  10.349  0.6223 -0.3356  0.1276
    4SAPS    HX  429   0.550   5.932  10.403 -0.0844 -0.8727 -1.4142
    4SAPS    HY  430   0.717   5.935  10.344  1.4440  0.8325  0.7810
    4SAPS   O31  431   0.571   6.040  10.222  0.6842 -0.1191  0.1383
    4SAPS   C31  432   0.668   6.060  10.133 -0.3441  0.1239  0.6563
    4SAPS   O32  433   0.787   6.047  10.147  0.0815  0.0309 -0.2159
    4SAPS   C32  434   0.598   6.099   9.999 -0.1017 -0.0548  0.6714
    4SAPS   H2X  435   0.590   6.209   9.991  0.5677 -0.1246 -2.0354
    4SAPS   H2Y  436   0.495   6.058  10.009 -0.5401  0.7635 -0.2759
    4SAPS   C23  437   0.255   6.339  10.337  0.8044 -0.0200  0.6934
    4SAPS   H3R  438   0.289   6.366  10.235 -0.2304 -0.9475  0.0818
    4SAPS   H3S  439   0.175   6.412  10.360 -1.1744 -1.1590 -2.0152
    4SAPS   C24  440   0.192   6.200  10.327 -0.0070 -1.2545  0.3558
    4SAPS   H4R  441   0.162   6.162  10.427 -0.1620 -1.3424  0.2750
    4SAPS   H4S  442   0.268   6.128  10.290 -0.7357 -0.4217 -3.1004
    4SAPS   C25  443   0.072   6.190  10.233 -0.3161  0.3852  0.6872
    4SAPS   H5R  444  -0.016   6.210  10.298 -0.6066 -0.1060  0.4437
    4SAPS   C26  445   0.071   6.168  10.101  0.2224  0.3842 -0.0450
    4SAPS   H6R  446  -0.031   6.172  10.058 -0.8750  0.6848  2.4449
    4SAPS   C27  447   0.186   6.151  10.006  0.4106 -0.4575  1.1217
    4SAPS   H7R  448   0.189   6.048   9.962  0.7014 -0.8982  2.1535
    4SAPS   H7S  449   0.282   6.186  10.049  0.3397  2.2091 -0.6889
    4SAPS   C28  450   0.171   6.251   9.896  0.1828  0.8214  0.3977
    4SAPS   H8R  451   0.194   6.355   9.925 -0.9793  1.5642 -1.1878
    4SAPS   C29  452   0.134   6.233   9.767  0.2723  0.0377 -0.4480
    4SAPS   H9R  453   0.125   6.324   9.705 -0.3188 -0.6136 -1.3499
    4SAPS  C210  454   0.087   6.104   9.699 -0.4014 -0.0107  0.6555
    4SAPS  H10R  455  -0.003   6.134   9.642 -0.6371 -2.4350 -0.3312
    4SAPS  H10S  456   0.051   6.027   9.770 -0.3179 -0.0993  0.6020
    4SAPS  C211  457   0.199   6.036   9.624  0.8165  0.0519  0.6209
    4SAPS  H11R  458   0.257   5.977   9.696 -3.0045 -1.5694  2.6687
    4SAPS  C212  459   0.218   6.031   9.494 -0.2754  0.5227 -0.2143
    4SAPS  H12R  460   0.302   5.972   9.455 -0.6285  1.8451 -3.2294
    4SAPS  C213  461   0.131   6.093   9.385 -0.4175 -0.3405  0.0806
    4SAPS  H13R  462   0.211   6.119   9.313  3.0524 -0.7244  3.4982
    4SAPS  H13S  463   0.077   6.183   9.421  0.0254  0.0447 -0.2162
    4SAPS  C214  464   0.025   5.996   9.321 -0.4117 -0.0570 -0.2267
    4SAPS  H14R  465   0.021   5.894   9.360  1.7973  0.4772  1.6079
    4SAPS  C215  466  -0.055   6.033   9.218 -0.0879 -0.3645 -0.0987
    4SAPS  H15R  467  -0.106   5.945   9.175  0.6174 -0.4842 -0.7195
    4SAPS  C216  468  -0.055   6.166   9.148 -0.0047 -0.0656  0.1244
    4SAPS  H16R  469   0.042   6.219   9.160 -1.2530  2.3892  0.0571
    4SAPS  H16S  470  -0.126   6.232   9.202 -0.8809  0.9049 -2.1341
    4SAPS  C217  471  -0.091   6.169   8.998  0.9942  0.1735  0.1540
    4SAPS  H17R  472  -0.190   6.124   8.979  0.1344  0.8189  2.6113
    4SAPS  H17S  473  -0.015   6.120   8.934 -0.0364 -0.1281 -0.8580
    4SAPS  C218  474  -0.105   6.319   8.947 -0.4848  0.5469 -0.3847
    4SAPS  H18R  475  -0.003   6.362   8.935  0.5242 -0.6487  2.8125
    4SAPS  H18S  476  -0.152   6.377   9.029 -1.7247 -0.4174 -0.3825
    4SAPS  C219  477  -0.188   6.352   8.820  0.0490  0.1457  0.4247
    4SAPS  H19R  478  -0.294   6.327   8.844 -0.5929 -0.7728 -2.9296
    4SAPS  H19S  479  -0.158   6.273   8.748  0.6228  0.8984 -0.1735
    4SAPS  C220  480  -0.155   6.492   8.773 -0.1667 -0.8410 -0.4041
    4SAPS  H20R  481  -0.048   6.510   8.747 -0.5363 -0.4009 -1.6927
    4SAPS  H20S  482  -0.184   6.558   8.858 -2.2453 -0.8721 -1.0322
    4SAPS  H20T  483  -0.215   6.520   8.684 -2.5353 -0.6528  1.1752
    4SAPS   C33  484   0.666   6.027   9.887 -0.3545  0.1323  0.4878
    4SAPS   H3X  485   0.656   5.919   9.914 -2.0367 -0.1076 -0.8967
    4SAPS   H3Y  486   0.772   6.061   9.885 -0.7701  1.8025  3.0067
    4SAPS   C34  487   0.611   6.060   9.746  0.3918 -0.3321 -0.3522
    4SAPS   H4X  488   0.655   6.160   9.728  0.4829 -0.1832  0.6441
    4SAPS   H4Y  489   0.502   6.074   9.729  0.7894  1.4701 -1.6115
    4SAPS   C35  490   0.685   5.975   9.645  0.4476  0.9322  0.3596
    4SAPS   H5X  491   0.663   5.868   9.662  2.7292  0.4200  0.4651
    4SAPS   H5Y  492   0.795   5.989   9.642  0.8982 -2.0839 -0.7039
    4SAPS   C36  493   0.640   6.010   9.505  0.1814  0.2560  0.1565
    4SAPS   H6X  494   0.674   6.116   9.495 -0.2749  0.3786 -0.1517
    4SAPS   H6Y  495   0.530   6.018   9.491 -0.2951 -2.0015  2.0619
    4SAPS   C37  496   0.714   5.939   9.395 -1.0511  0.4006  0.0379
    4SAPS   H7X  497   0.700   5.829   9.400 -1.7404  0.2625 -2.9598
    4SAPS   H7Y  498   0.822   5.958   9.412 -0.5340 -0.2718 -2.2056
    4SAPS   C38  499   0.685   5.987   9.258  0.5316 -0.1816 -0.2613
    4SAPS   H8X  500   0.751   5.927   9.192 -0.8184 -1.8929 -0.1140
    4SAPS   H8Y  501   0.712   6.095   9.251 -1.1693  0.1668 -2.9135
    4SAPS   C39  502   0.533   5.967   9.206 -0.1083  0.5667 -0.3276
    4SAPS   H9X  503   0.530   6.006   9.102 -1.2965 -0.8952 -0.8802
    4SAPS   H9Y  504   0.465   6.028   9.270  0.3525 -2.0693  2.9213
    4SAPS  C310  505   0.478   5.822   9.214  0.6518  0.8590 -0.0639
    4SAPS  H10X  506   0.368   5.824   9.200  0.6296  1.1361  0.1451
    4SAPS  H10Y  507   0.495   5.775   9.313 -1.6634 -1.5799 -0.6818
    4SAPS  C311  508   0.554   5.727   9.112 -0.0846  0.5714  0.3193
    4SAPS  H11X  509   0.662   5.749   9.113  0.8566 -2.9437 -2.9704
    4SAPS  H11Y  510   0.514   5.751   9.011 -0.6838  0.4661  0.5245
    4SAPS  C312  511   0.519   5.580   9.141 -0.8767 -0.8062  0.1830
    4SAPS  H12X  512   0.556   5.546   9.239 -0.3379 -1.1558 -0.1358
    4SAPS  H12Y  513   0.556   5.509   9.064 -3.4894  0.9620 -2.9923
    4SAPS  C313  514   0.363   5.549   9.131 -0.4609  0.2488 -0.4002
    4SAPS  H13X  515   0.311   5.611   9.208  0.6153  1.5438 -0.6657
    4SAPS  H13Y  516   0.351   5.450   9.180 -1.7832  0.1241 -0.9345
    4SAPS  C314  517   0.315   5.557   8.992 -0.2331  0.8745  0.3044
    4SAPS  H14X  518   0.376   5.502   8.917  0.7777  3.2065 -0.6749
    4SAPS  H14Y  519   0.323   5.665   8.968  0.6259  1.3480  2.5137
    4SAPS  C315  520   0.166   5.511   8.968  0.5166 -0.3532  0.4490
    4SAPS  H15X  521   0.151   5.405   8.998  1.1071 -0.3524  0.7498
    4SAPS  H15Y  522   0.144   5.537   8.862  0.5985  0.5496  0.6469
    4SAPS  C316  523   0.068   5.590   9.059 -0.2957 -0.1173  0.4811
    4SAPS  H16X  524   0.094   5.698   9.055  1.0365 -0.2653  2.9067
    4SAPS  H16Y  525   0.087   5.558   9.164  0.8704  0.2162  0.3867
    4SAPS  C317  526  -0.077   5.585   9.020  0.4991  0.4787  0.6351
    4SAPS  H17X  527  -0.129   5.488   9.037 -0.6961  1.3163  1.9476
    4SAPS  H17Y  528  -0.082   5.602   8.910 -1.5657 -0.8918  0.4612
    4SAPS  C318  529  -0.164   5.685   9.088 -0.7901  0.6268  0.8198
    4SAPS  H18X  530  -0.263   5.703   9.041  0.5225  0.1665 -2.4229
    4SAPS  H18Y  531  -0.106   5.778   9.069  2.3081 -1.5069 -1.2744
    4SAPS  H18Z  532  -0.173   5.675   9.198 -0.3766  3.1120  1.1311
    5SAPS     N  533   0.935   1.068  10.735 -0.2935 -0.2485  0.0494
    5SAPS   HN1  534   0.865   1.002  10.694 -0.1431  0.0040 -0.6310
    5SAPS   HN2  535   0.883   1.148  10.775 -0.2428 -0.9586  1.6173
    5SAPS   HN3  536   1.011   1.093  10.668 -1.0729  1.1267 -0.3629
    5SAPS   C12  537   0.993   1.014  10.858  0.1549  0.2267  0.3297
    5SAPS  H12A  538   1.039   0.920  10.832  1.1566  1.2097 -1.6806
    5SAPS   C13  539   1.095   1.098  10.935  0.6143 -0.0643  0.4112
    5SAPS  O13A  540   1.143   1.208  10.889  0.0665 -0.1540  0.3577
    5SAPS  O13B  541   1.141   1.050  11.040 -0.4019  0.4227  0.0128
    5SAPS   C11  542   0.871   0.992  10.952  0.0109 -0.4112  0.1067
    5SAPS  H11A  543   0.846   1.093  10.991  2.2260  0.1093  0.2798
    5SAPS  H11B  544   0.904   0.929  11.038 -1.1133  1.2995  1.8948
    5SAPS     P  545   0.635   0.893  10.977 -0.0964 -0.1279 -0.0291
    5SAPS   O13  546   0.651   0.758  11.032 -0.7185 -0.1627  0.1238
    5SAPS   O14  547   0.616   1.010  11.067  0.2689  0.3980  0.0150
    5SAPS   O12  548   0.764   0.932  10.881 -0.2068 -0.5009 -0.2574
    5SAPS   O11  549   0.515   0.897  10.870 -0.6182  0.3568  0.1752
    5SAPS    C1  550   0.522   1.010  10.779 -0.1451 -0.7412 -0.1607
    5SAPS    HA  551   0.541   1.106  10.831 -0.1244 -1.8635  2.0030
    5SAPS    HB  552   0.601   1.001  10.701 -0.1774  2.6735 -0.7517
    5SAPS    C2  553   0.385   1.037  10.710  0.0839 -0.7777  0.0286
    5SAPS    HS  554   0.312   1.074  10.785  1.5721  0.7366  0.7958
    5SAPS   O21  555   0.342   0.912  10.662 -0.3598  0.3901 -0.1380
    5SAPS   C21  556   0.215   0.906  10.634  0.3527  0.0008  0.0893
    5SAPS   O22  557   0.136   0.997  10.637  0.1766 -0.4250 -0.3332
    5SAPS   C22  558   0.194   0.761  10.585 -0.1754  0.1720 -0.5267
    5SAPS   H2R  559   0.290   0.726  10.540  0.3794  1.5354 -0.4765
    5SAPS   H2S  560   0.172   0.701  10.675  0.5215  1.4708  0.5397
    5SAPS    C3  561   0.398   1.147  10.600  0.0387  0.0985 -0.2095
    5SAPS    HX  562   0.446   1.231  10.655  0.5308 -0.0288 -0.4416
    5SAPS    HY  563   0.294   1.179  10.578 -0.2279  0.4709  1.4631
    5SAPS   O31  564   0.473   1.121  10.480  0.4908  0.0537 -0.3041
    5SAPS   C31  565   0.410   1.079  10.364 -0.8598  0.3784 -0.3862
    5SAPS   O32  566   0.295   1.042  10.363  0.4055  0.0535 -0.2138
    5SAPS   C32  567   0.519   1.083  10.254  0.1503  0.3042  0.3213
    5SAPS   H2X  568   0.599   1.009  10.277 -1.6099 -1.8930 -0.2486
    5SAPS   H2Y  569   0.566   1.183  10.249 -0.5069  0.6215  0.3926
    5SAPS   C23  570   0.080   0.749  10.478  0.0724  0.7778 -0.1828
    5SAPS   H3R  571  -0.005   0.814  10.507 -1.2313 -0.7251 -0.5156
    5SAPS   H3S  572   0.041   0.649  10.508 -0.3325  1.6668  2.4771
    5SAPS   C24  573   0.118   0.757  10.330 -0.4188 -0.2853 -1.1242
    5SAPS   H4R  574   0.162   0.858  10.313  1.6263 -0.7175  1.0162
    5SAPS   H4S  575   0.036   0.751  10.256  0.0963  1.3382 -1.8924
    5SAPS   C25  576   0.230   0.669  10.286 -0.2016 -0.1108 -0.1968
    5SAPS   H5R  577   0.325   0.697  10.334 -0.2009  6.0235 -2.9108
    5SAPS   C26  578   0.230   0.566  10.200 -0.5587  1.1439  0.2355
    5SAPS   H6R  579   0.327   0.518  10.178 -1.1085  0.1234  0.0058
    5SAPS   C27  580   0.118   0.505  10.115 -0.6056  0.3364 -0.5666
    5SAPS   H7R  581   0.171   0.525  10.019  3.1002 -1.7934  0.8362
    5SAPS   H7S  582   0.032   0.576  10.119  0.8555  2.3386 -2.4378
    5SAPS   C28  583   0.071   0.367  10.131 -0.3105  0.3328 -0.7214
    5SAPS   H8R  584   0.029   0.342  10.230 -3.0304  0.7414 -1.7064
    5SAPS   C29  585   0.090   0.268  10.044 -0.4414  0.2049 -0.5876
    5SAPS   H9R  586   0.065   0.172  10.091  0.2643  0.8736  1.2198
    5SAPS  C210  587   0.157   0.274   9.907  0.5648  0.7087 -0.5405
    5SAPS  H10R  588   0.246   0.341   9.909 -0.4562  2.0921  0.1907
    5SAPS  H10S  589   0.095   0.326   9.831  1.4170  1.2010 -0.9151
    5SAPS  C211  590   0.204   0.142   9.845  0.8804  0.4068 -0.1493
    5SAPS  H11R  591   0.271   0.077   9.904 -1.2566 -1.5816  0.2424
    5SAPS  C212  592   0.181   0.105   9.717  0.5696  0.4567  0.5775
    5SAPS  H12R  593   0.220   0.007   9.687  2.2397  1.1415  0.3740
    5SAPS  C213  594   0.100   0.171   9.608 -0.4204 -0.1882 -0.3820
    5SAPS  H13R  595   0.011   0.219   9.655 -1.1642 -2.1628  0.3469
    5SAPS  H13S  596   0.046   0.096   9.547  0.9561 -3.4330  2.0494
    5SAPS  C214  597   0.161   0.281   9.525  0.4888  0.6204  0.4693
    5SAPS  H14R  598   0.151   0.385   9.558  2.6501 -0.4416  5.2512
    5SAPS  C215  599   0.247   0.239   9.430  0.1775  0.2319  0.2651
    5SAPS  H15R  600   0.303   0.305   9.362 -1.7816  0.8021 -0.8977
    5SAPS  C216  601   0.279   0.100   9.385  0.4961  0.1928 -0.2310
    5SAPS  H16R  602   0.263   0.098   9.275 -0.6304  0.6341 -0.0938
    5SAPS  H16S  603   0.214   0.026   9.436  1.5795  0.3483  1.4716
    5SAPS  C217  604   0.434   0.059   9.417  0.0085 -0.6772  0.5134
    5SAPS  H17R  605   0.467   0.058   9.523 -0.4183 -2.5294  0.6626
    5SAPS  H17S  606   0.499   0.140   9.377 -0.5570  0.6485  2.1595
    5SAPS  C218  607   0.470  -0.081   9.365  0.1147 -0.1906  0.4123
    5SAPS  H18R  608   0.424  -0.096   9.265  0.6959 -1.8079  0.3595
    5SAPS  H18S  609   0.580  -0.095   9.354  0.6032  3.2106 -0.2382
    5SAPS  C219  610   0.410  -0.186   9.461  0.4861 -0.2475  0.0507
    5SAPS  H19R  611   0.443  -0.285   9.421 -0.8435 -0.7074  0.0247
    5SAPS  H19S  612   0.299  -0.180   9.456  0.3285 -2.1670  0.1911
    5SAPS  C220  613   0.452  -0.192   9.616  0.0394 -0.7084  0.0181
    5SAPS  H20R  614   0.402  -0.283   9.655  0.3396 -1.0037 -0.2769
    5SAPS  H20S  615   0.414  -0.095   9.654  1.8821  0.4152 -0.8478
    5SAPS  H20T  616   0.563  -0.199   9.621  0.5159  4.0068  0.7073
    5SAPS   C33  617   0.459   1.032  10.124  0.4840  0.8316  1.0375
    5SAPS   H3X  618   0.395   1.110  10.078  0.0312  0.0909  0.3643
    5SAPS   H3Y  619   0.394   0.945  10.148 -0.2554  0.5051 -1.7427
    5SAPS   C34  620   0.558   0.981  10.017 -0.0055  0.0146 -0.1999
    5SAPS   H4X  621   0.646   1.042  10.046 -1.3696  2.6795 -1.3144
    5SAPS   H4Y  622   0.528   1.006   9.913 -0.2896  0.1816 -0.0800
    5SAPS   C35  623   0.588   0.827  10.018 -0.0486  0.4416  0.0310
    5SAPS   H5X  624   0.492   0.771  10.009 -0.2408  0.6487  0.7042
    5SAPS   H5Y  625   0.630   0.788  10.113 -3.0967 -1.1361  0.8759
    5SAPS   C36  626   0.679   0.786   9.901 -0.7383  0.6523 -0.3318
    5SAPS   H6X  627   0.720   0.684   9.920  0.8306  1.0012 -1.6569
    5SAPS   H6Y  628   0.771   0.848   9.904  0.5336 -1.1498 -0.4213
    5SAPS   C37  629   0.602   0.784   9.768  0.3879  0.2747  0.4202
    5SAPS   H7X  630   0.576   0.889   9.741  0.9920  1.0116  2.5044
    5SAPS   H7Y  631   0.513   0.719   9.783 -0.4793  1.2346 -0.4267
    5SAPS   C38  632   0.688   0.719   9.663 -0.4364  0.3633 -1.0758
    5SAPS   H8X  633   0.710   0.613   9.689  0.7641  0.0452 -3.2193
    5SAPS   H8Y  634   0.783   0.775   9.658 -0.3432  0.2722 -0.4310
    5SAPS   C39  635   0.643   0.721   9.518  0.2385 -0.4098  0.0604
    5SAPS   H9X  636   0.722   0.661   9.469  0.0592 -0.5100 -0.1063
    5SAPS   H9Y  637   0.643   0.824   9.478  0.6637  0.3405  1.9195
    5SAPS  C310  638   0.505   0.656   9.498  0.6179  0.2437  0.2639
    5SAPS  H10X  639   0.435   0.706   9.568 -2.9331 -1.8023 -1.5767
    5SAPS  H10Y  640   0.515   0.547   9.515 -0.0665  0.1388  0.0175
    5SAPS  C311  641   0.453   0.671   9.352  0.3126  0.5217  0.1311
    5SAPS  H11X  642   0.383   0.586   9.339  1.8254 -0.6192 -0.8856
    5SAPS  H11Y  643   0.536   0.667   9.279 -0.9605 -0.2357 -1.3344
    5SAPS  C312  644   0.371   0.804   9.341  0.0300  0.1030 -0.5773
    5SAPS  H12X  645   0.439   0.889   9.365 -2.6906  2.0909  0.6626
    5SAPS  H12Y  646   0.297   0.809   9.424  1.7868  0.5560  1.0540
    5SAPS  C313  647   0.315   0.828   9.202 -0.4925  0.9462  0.5989
    5SAPS  H13X  648   0.249   0.742   9.179  1.9374 -0.7544 -0.5058
    5SAPS  H13Y  649   0.401   0.805   9.135 -1.3325  0.7795 -0.4558
    5SAPS  C314  650   0.240   0.959   9.176 -0.3546 -0.7687 -0.2740
    5SAPS  H14X  651   0.310   1.038   9.211 -2.3001  0.1034  1.9080
    5SAPS  H14Y  652   0.156   0.964   9.248 -1.1921  0.7483 -1.2880
    5SAPS  C315  653   0.182   0.976   9.035 -0.0384 -0.1667 -0.9196
    5SAPS  H15X  654   0.130   1.074   9.042 -2.1666 -1.3746  2.0605
    5SAPS  H15Y  655   0.114   0.889   9.020  1.1953 -1.6665  1.6103
    5SAPS  C316  656   0.282   0.975   8.920  0.2084  0.1798 -1.0057
    5SAPS  H16X  657   0.344   0.883   8.931  0.4003  0.2694 -1.3298
    5SAPS  H16Y  658   0.359   1.053   8.937 -0.7095  0.6270  1.5414
    5SAPS  C317  659   0.207   0.962   8.785  0.0723  0.0749  0.6101
    5SAPS  H17X  660   0.124   1.036   8.774 -1.5021 -1.4048  1.9611
    5SAPS  H17Y  661   0.157   0.863   8.781 -0.6191  0.4681 -2.0430
    5SAPS  C318  662   0.293   0.979   8.660  0.2603  0.4018  0.2702
    5SAPS  H18X  663   0.369   0.898   8.654 -0.8362 -0.5843 -0.9779
    5SAPS  H18Y  664   0.337   1.080   8.648 -2.2337  1.5729  0.3175
    5SAPS  H18Z  665   0.227   0.960   8.572 -2.8122  1.5156  2.1871
    6SAPS     N  666   4.590   2.473  11.024  0.1609  0.1300  1.1088
    6SAPS   HN1  667   4.572   2.568  11.061 -0.0281  1.2141 -1.5172
    6SAPS   HN2  668   4.501   2.436  10.985 -0.4004  1.2385  1.3057
    6SAPS   HN3  669   4.614   2.414  11.106 -0.7738 -0.2392  1.1278
    6SAPS   C12  670   4.705   2.468  10.929 -0.4208 -0.2615 -0.3332
    6SAPS  H12A  671   4.786   2.509  10.987 -0.9873  0.9929 -0.3997
    6SAPS   C13  672   4.728   2.321  10.878 -0.0757  0.4398 -0.3415
    6SAPS  O13A  673   4.658   2.229  10.926  0.5798  0.4707 -0.3827
    6SAPS  O13B  674   4.818   2.293  10.793 -0.2513 -0.2186  0.3747
    6SAPS   C11  675   4.687   2.557  10.803  0.5708 -0.0585 -0.1094
    6SAPS  H11A  676   4.593   2.535  10.749  0.0765  1.2493  0.1689
    6SAPS  H11B  677   4.774   2.535  10.738  0.8792  0.7874  0.0009
    6SAPS     P  678   4.817   2.784  10.828  0.1459 -0.5616 -0.1810
    6SAPS   O13  679   4.790   2.914  10.892  0.0072  0.2398 -0.2815
    6SAPS   O14  680   4.938   2.715  10.868 -0.4231 -0.3354 -0.1916
    6SAPS   O12  681   4.682   2.693  10.834 -0.4928  0.1882 -0.0829
    6SAPS   O11  682   4.832   2.810  10.670 -0.4004 -0.0106 -0.2667
    6SAPS    C1  683   4.725   2.874  10.596  1.0407 -0.6456 -0.0516
    6SAPS    HA  684   4.672   2.949  10.658 -0.0792 -1.8312  0.4602
    6SAPS    HB  685   4.773   2.939  10.520  1.2624  0.8748  1.3455
    6SAPS    C2  686   4.631   2.776  10.528 -0.3456 -0.1064 -0.1476
    6SAPS    HS  687   4.590   2.717  10.613 -0.1389 -0.7481 -0.4801
    6SAPS   O21  688   4.708   2.680  10.455 -0.1947  0.5593  0.9316
    6SAPS   C21  689   4.646   2.570  10.424  0.0858 -0.5558 -0.4436
    6SAPS   O22  690   4.539   2.537  10.472  0.1159 -0.1216 -0.8355
    6SAPS   C22  691   4.724   2.501  10.308  1.0355  0.2683 -0.2741
    6SAPS   H2R  692   4.722   2.566  10.218  0.8743  3.4460  1.8645
    6SAPS   H2S  693   4.828   2.490  10.344  0.9337  1.0685  0.2910
    6SAPS    C3  694   4.518   2.853  10.446  0.3015 -0.2917  0.9561
    6SAPS    HX  695   4.456   2.911  10.519 -1.0565 -0.9984  0.4054
    6SAPS    HY  696   4.440   2.787  10.402  2.2083 -0.6044 -2.2846
    6SAPS   O31  697   4.572   2.938  10.335 -0.0354 -0.1281 -0.2736
    6SAPS   C31  698   4.579   2.874  10.222 -0.3119  0.9521  0.3114
    6SAPS   O32  699   4.540   2.763  10.195  0.6560 -0.4434  0.0850
    6SAPS   C32  700   4.655   2.960  10.125 -0.3891  0.5403 -0.5232
    6SAPS   H2X  701   4.737   3.010  10.180 -3.2937  0.8859  4.0225
    6SAPS   H2Y  702   4.579   3.028  10.080 -1.0024  0.7221  0.7416
    6SAPS   C23  703   4.674   2.357  10.263 -0.5251  0.2769 -0.6199
    6SAPS   H3R  704   4.602   2.386  10.184 -2.1495  0.6038  0.8909
    6SAPS   H3S  705   4.614   2.313  10.346  0.6310 -1.5763 -0.7143
    6SAPS   C24  706   4.790   2.283  10.198 -0.6249 -0.0046 -0.0670
    6SAPS   H4R  707   4.873   2.264  10.270 -0.6299 -0.2700 -0.1304
    6SAPS   H4S  708   4.838   2.342  10.117  0.2754  0.6719  0.9370
    6SAPS   C25  709   4.741   2.154  10.150 -0.0424 -0.8904  0.1125
    6SAPS   H5R  710   4.684   2.095  10.223 -1.6836 -0.3797 -0.6956
    6SAPS   C26  711   4.751   2.098  10.026  0.3908  0.4625  0.6248
    6SAPS   H6R  712   4.711   1.997  10.008 -0.0806  1.1134 -2.3661
    6SAPS   C27  713   4.815   2.151   9.897 -0.3425 -0.5993 -0.6045
    6SAPS   H7R  714   4.856   2.063   9.844  1.4184 -2.2052  3.0651
    6SAPS   H7S  715   4.901   2.216   9.925 -0.9252 -0.3409  0.6695
    6SAPS   C28  716   4.721   2.231   9.813 -0.0529 -0.8749  0.1807
    6SAPS   H8R  717   4.619   2.243   9.853  0.0092 -0.1145  0.1317
    6SAPS   C29  718   4.742   2.291   9.694 -0.5198 -0.7962  0.0858
    6SAPS   H9R  719   4.654   2.342   9.651  0.5005  0.6682 -0.3501
    6SAPS  C210  720   4.870   2.276   9.604 -0.7489 -0.4022  0.0863
    6SAPS  H10R  721   4.935   2.215   9.670 -1.0791 -1.8836 -0.9010
    6SAPS  H10S  722   4.924   2.372   9.593 -0.4252 -0.5637  0.2591
    6SAPS  C211  723   4.847   2.218   9.466 -0.0578 -0.1806  0.2769
    6SAPS  H11R  724   4.788   2.125   9.467 -2.8991  1.5019 -0.1129
    6SAPS  C212  725   4.890   2.273   9.353 -0.9257  0.6201 -0.3164
    6SAPS  H12R  726   4.863   2.230   9.255  0.5825  0.3963 -0.6506
    6SAPS  C213  727   4.970   2.400   9.334 -0.0789  0.1591 -0.7648
    6SAPS  H13R  728   5.067   2.389   9.280 -0.1943  1.1435 -1.1983
    6SAPS  H13S  729   5.007   2.438   9.432  0.5055  1.5700 -1.4948
    6SAPS  C214  730   4.886   2.515   9.274  0.0341 -0.2366 -0.2771
    6SAPS  H14R  731   4.817   2.572   9.338  0.5190  1.3803 -1.1232
    6SAPS  C215  732   4.917   2.578   9.163 -0.4241 -0.4225  0.1356
    6SAPS  H15R  733   4.855   2.662   9.128 -0.9073 -0.3755  1.0642
    6SAPS  C216  734   5.035   2.545   9.067 -0.0853  0.1069  0.0222
    6SAPS  H16R  735   5.031   2.436   9.042  0.7424 -0.3454  1.7175
    6SAPS  H16S  736   5.135   2.571   9.105  1.8504 -2.0882 -3.0615
    6SAPS  C217  737   5.012   2.607   8.928 -0.5292  0.2736 -0.5406
    6SAPS  H17R  738   5.004   2.714   8.954 -1.5703  0.3268 -1.0354
    6SAPS  H17S  739   4.913   2.582   8.885 -0.7083  0.9615 -0.5389
    6SAPS  C218  740   5.128   2.591   8.828 -0.1435 -0.4796 -0.5992
    6SAPS  H18R  741   5.133   2.481   8.812  1.1720 -1.0928  3.0051
    6SAPS  H18S  742   5.223   2.612   8.881  0.5082 -1.8513 -1.1696
    6SAPS  C219  743   5.113   2.667   8.703 -0.3873 -0.2401  0.1652
    6SAPS  H19R  744   5.101   2.773   8.734  1.5894  0.4112 -1.1064
    6SAPS  H19S  745   5.030   2.627   8.641  0.1429  0.6739 -1.1771
    6SAPS  C220  746   5.241   2.648   8.618 -0.4251  0.2942  0.4105
    6SAPS  H20R  747   5.250   2.540   8.595  0.0346 -0.2667  2.9388
    6SAPS  H20S  748   5.330   2.684   8.674  0.7238 -0.8071 -0.6431
    6SAPS  H20T  749   5.235   2.704   8.522  0.8259  0.8526  0.6359
    6SAPS   C33  750   4.703   2.877  10.004  0.2806  0.4367 -0.7485
    6SAPS   H3X  751   4.630   2.813   9.950 -0.8597  2.2355 -1.4486
    6SAPS   H3Y  752   4.790   2.827  10.051 -0.8133  0.7821  1.7984
    6SAPS   C34  753   4.744   2.970   9.891  0.0019 -0.6121  0.3467
    6SAPS   H4X  754   4.821   3.039   9.933 -0.5043 -0.0700  0.4088
    6SAPS   H4Y  755   4.659   3.018   9.839 -0.3759 -1.4050  0.2227
    6SAPS   C35  756   4.809   2.888   9.776  0.3431 -0.4450  0.0881
    6SAPS   H5X  757   4.742   2.803   9.753  0.4585 -0.2521 -1.0018
    6SAPS   H5Y  758   4.901   2.847   9.824  0.5006 -0.7073 -0.4345
    6SAPS   C36  759   4.850   2.972   9.662 -0.1252 -0.8904 -0.6572
    6SAPS   H6X  760   4.937   2.921   9.615  0.1242 -0.8981 -0.1979
    6SAPS   H6Y  761   4.887   3.073   9.691 -0.6323 -0.1640 -2.4048
    6SAPS   C37  762   4.745   2.979   9.550  0.2115  0.5000 -0.0389
    6SAPS   H7X  763   4.652   3.034   9.576 -1.4526 -1.3305 -1.7149
    6SAPS   H7Y  764   4.713   2.873   9.540 -2.1834  1.1627  0.0880
    6SAPS   C38  765   4.783   3.031   9.406  0.2353 -0.0100  0.5469
    6SAPS   H8X  766   4.812   3.136   9.424 -0.0651  0.3282 -0.7970
    6SAPS   H8Y  767   4.699   3.019   9.333  0.0394 -0.2552  0.8088
    6SAPS   C39  768   4.905   2.959   9.344 -0.1789  0.5084 -0.1769
    6SAPS   H9X  769   4.894   2.850   9.322  0.0774  0.3519  0.4453
    6SAPS   H9Y  770   4.989   2.990   9.410 -0.0610  1.3418 -0.7107
    6SAPS  C310  771   4.930   3.028   9.210  0.2705 -0.3524 -0.2366
    6SAPS  H10X  772   4.941   3.137   9.229 -1.1663 -0.2299 -0.0317
    6SAPS  H10Y  773   4.840   3.021   9.145  0.6828 -0.9554 -0.7669
    6SAPS  C311  774   5.049   2.975   9.133 -0.4302  0.4111 -0.7182
    6SAPS  H11X  775   5.019   2.878   9.088  2.2152 -1.1843  0.7284
    6SAPS  H11Y  776   5.129   2.950   9.206 -0.4886 -1.2781 -1.1915
    6SAPS  C312  777   5.108   3.076   9.034 -0.6469  0.4966 -0.5521
    6SAPS  H12X  778   5.200   3.022   9.003 -2.0338 -1.3577 -1.5595
    6SAPS  H12Y  779   5.141   3.177   9.066 -0.9867  0.7404 -0.9620
    6SAPS  C313  780   5.020   3.094   8.912  0.5432 -0.2349  0.1208
    6SAPS  H13X  781   4.940   3.168   8.934 -1.5431 -2.0019 -1.0310
    6SAPS  H13Y  782   4.953   3.006   8.901  0.5411  0.0229 -2.7199
    6SAPS  C314  783   5.088   3.125   8.773  0.2379  0.7295 -0.0678
    6SAPS  H14X  784   5.170   3.051   8.771  0.0386  0.4118  1.8923
    6SAPS  H14Y  785   5.127   3.229   8.766 -0.9074  1.2393  0.7377
    6SAPS  C315  786   4.987   3.110   8.646 -0.3525 -0.3148  0.0399
    6SAPS  H15X  787   5.034   3.169   8.565  0.1196  0.5384  0.9041
    6SAPS  H15Y  788   4.894   3.166   8.667 -1.7245 -2.0083 -1.3072
    6SAPS  C316  789   4.946   2.964   8.603 -0.1929 -0.2148  0.0265
    6SAPS  H16X  790   4.913   2.914   8.697 -0.1198  0.3333  0.3489
    6SAPS  H16Y  791   5.032   2.916   8.552  0.7542  1.0525  0.3753
    6SAPS  C317  792   4.832   2.968   8.506  0.4605 -1.0798  0.2180
    6SAPS  H17X  793   4.766   3.047   8.547  0.6843  0.4073 -2.0786
    6SAPS  H17Y  794   4.787   2.868   8.489  0.1104 -1.0989  1.2104
    6SAPS  C318  795   4.860   3.041   8.373 -0.1224 -0.1319  0.1625
    6SAPS  H18X  796   4.764   3.050   8.317 -0.6409  1.4606  1.2601
    6SAPS  H18Y  797   4.937   2.985   8.317  0.8470  2.6598 -1.5148
    6SAPS  H18Z  798   4.906   3.142   8.373 -0.5366  0.1670  3.7502
    7SAPS     N  799   1.071   1.435  10.774  0.2273  0.8728  1.0571
    7SAPS   HN1  800   0.970   1.429  10.798 -0.5881  0.2790 -2.0642
    7SAPS   HN2  801   1.076   1.432  10.670  0.7217 -2.0955  1.0806
    7SAPS   HN3  802   1.111   1.345  10.808 -0.6209 -0.1853 -0.6278
    7SAPS   C12  803   1.140   1.555  10.824  0.1353  0.0760  0.5593
    7SAPS  H12A  804   1.118   1.638  10.758 -0.9617  0.9160  1.9483
    7SAPS   C13  805   1.089   1.581  10.962 -0.3638 -0.6934 -0.3386
    7SAPS  O13A  806   0.991   1.521  11.012  0.5551 -0.2312  0.3136
    7SAPS  O13B  807   1.157   1.669  11.025 -0.1513  0.0138  0.0985
    7SAPS   C11  808   1.292   1.526  10.822  0.3159  0.0163  0.3940
    7SAPS  H11A  809   1.310   1.449  10.900 -0.4873  0.5347  1.1164
    7SAPS  H11B  810   1.355   1.614  10.847  0.2417 -0.3293  1.8947
    7SAPS     P  811   1.416   1.527  10.597  0.5841 -0.7129 -0.0259
    7SAPS   O13  812   1.382   1.670  10.606  0.4546 -0.5829 -0.1237
    7SAPS   O14  813   1.556   1.496  10.621  0.9372  0.1948  0.5127
    7SAPS   O12  814   1.330   1.456  10.705  0.5059  0.0691 -0.0430
    7SAPS   O11  815   1.370   1.457  10.457 -0.2069  0.2885  0.3389
    7SAPS    C1  816   1.428   1.328  10.421 -1.0531 -0.2589 -0.7459
    7SAPS    HA  817   1.538   1.343  10.426 -0.6439 -3.2236  2.4130
    7SAPS    HB  818   1.398   1.249  10.493 -0.2758  1.3879  1.5194
    7SAPS    C2  819   1.384   1.290  10.283  0.8615 -0.0698  0.5224
    7SAPS    HS  820   1.273   1.289  10.277  0.8979 -0.2555 -0.2152
    7SAPS   O21  821   1.442   1.166  10.238 -0.2291  0.0062  0.2722
    7SAPS   C21  822   1.390   1.061  10.285  0.6217  0.2338 -0.3277
    7SAPS   O22  823   1.287   1.055  10.359 -0.6287  0.3575  0.7333
    7SAPS   C22  824   1.467   0.931  10.247  1.0321 -0.1846  0.2266
    7SAPS   H2R  825   1.543   0.959  10.172  1.1906  1.5567  0.9869
    7SAPS   H2S  826   1.515   0.891  10.339 -1.8533 -1.3899  1.3323
    7SAPS    C3  827   1.432   1.398  10.185  0.4776 -0.6219 -0.2615
    7SAPS    HX  828   1.543   1.405  10.185  0.4701 -0.2762  0.7350
    7SAPS    HY  829   1.393   1.493  10.228 -0.8686 -1.3316  0.1516
    7SAPS   O31  830   1.381   1.376  10.058 -0.1416  0.1951  0.0327
    7SAPS   C31  831   1.469   1.331   9.970 -0.3102 -0.1417 -0.1731
    7SAPS   O32  832   1.585   1.303   9.984 -0.8237 -0.2949  0.2611
    7SAPS   C32  833   1.382   1.304   9.846  0.4976 -0.0849 -0.4770
    7SAPS   H2X  834   1.339   1.401   9.813 -2.0614 -0.4571  1.4618
    7SAPS   H2Y  835   1.308   1.224   9.866  1.8875 -0.7251  2.5819
    7SAPS   C23  836   1.373   0.810  10.200  0.6224  0.1706  0.9915
    7SAPS   H3R  837   1.312   0.780  10.288 -0.9564  1.9520  0.5555
    7SAPS   H3S  838   1.428   0.718  10.171  0.8637  0.6432 -0.0950
    7SAPS   C24  839   1.280   0.857  10.089  0.6802 -1.0393  0.5343
    7SAPS   H4R  840   1.236   0.951  10.129 -0.1770 -1.5716  0.8747
    7SAPS   H4S  841   1.201   0.782  10.068  0.1284 -0.3369  0.0187
    7SAPS   C25  842   1.343   0.888   9.953 -0.2785 -0.5317 -0.5841
    7SAPS   H5R  843   1.453   0.897   9.951 -0.3228  1.2152  1.3951
    7SAPS   C26  844   1.265   0.919   9.847 -0.7461  0.3352 -0.2165
    7SAPS   H6R  845   1.309   0.956   9.752 -0.2026  1.7113  0.5390
    7SAPS   C27  846   1.115   0.921   9.828 -0.2560 -0.4898 -0.7052
    7SAPS   H7R  847   1.071   0.839   9.888  1.2866 -0.5550  0.4027
    7SAPS   H7S  848   1.098   0.896   9.721  2.3037  1.6019 -1.7239
    7SAPS   C28  849   1.059   1.057   9.873 -0.1203 -0.3790  0.0076
    7SAPS   H8R  850   1.063   1.070   9.982  0.8183 -3.2146  0.4022
    7SAPS   C29  851   1.032   1.158   9.790  0.6845 -0.1733 -0.3712
    7SAPS   H9R  852   0.993   1.254   9.828  0.7162  0.6971 -2.4160
    7SAPS  C210  853   1.032   1.144   9.638  0.1998 -0.1429  0.0294
    7SAPS  H10R  854   1.133   1.100   9.629  0.2256 -0.4050  1.3910
    7SAPS  H10S  855   1.032   1.245   9.593  1.3285 -0.1711 -0.0500
    7SAPS  C211  856   0.932   1.054   9.568 -0.1263 -0.2404 -0.1117
    7SAPS  H11R  857   0.826   1.076   9.583 -0.3894 -0.8801 -0.9386
    7SAPS  C212  858   0.957   0.949   9.486 -0.1539 -0.5621 -0.2839
    7SAPS  H12R  859   0.867   0.913   9.435  1.2818 -2.2111 -1.7545
    7SAPS  C213  860   1.088   0.891   9.430  0.3481 -0.4435 -0.2108
    7SAPS  H13R  861   1.123   0.814   9.501  1.7812  1.2470  1.0204
    7SAPS  H13S  862   1.173   0.962   9.423  2.5412 -2.6856  1.7068
    7SAPS  C214  863   1.057   0.821   9.303  0.0057  0.2223  0.2932
    7SAPS  H14R  864   1.002   0.727   9.319 -1.2224  0.8001 -0.3415
    7SAPS  C215  865   1.100   0.845   9.180 -0.1310  0.7303 -0.0470
    7SAPS  H15R  866   1.068   0.770   9.106  0.4061 -0.9983  1.3999
    7SAPS  C216  867   1.191   0.957   9.136 -0.5621 -0.0751 -0.1000
    7SAPS  H16R  868   1.289   0.924   9.096 -0.1600  2.3703 -1.3216
    7SAPS  H16S  869   1.214   1.025   9.221 -0.2784 -0.0307 -0.2147
    7SAPS  C217  870   1.133   1.041   9.013  1.3933  0.4650 -0.6175
    7SAPS  H17R  871   1.053   0.984   8.962 -0.5116 -0.0839  2.6753
    7SAPS  H17S  872   1.214   1.052   8.938 -0.1659 -1.1442 -2.6824
    7SAPS  C218  873   1.091   1.171   9.061  0.2797  0.2315  0.1151
    7SAPS  H18R  874   1.152   1.225   9.137  0.4248  0.0691  0.1148
    7SAPS  H18S  875   0.995   1.150   9.111 -1.6564  2.8102 -2.1817
    7SAPS  C219  876   1.061   1.279   8.948  0.0310  0.4507 -0.3823
    7SAPS  H19R  877   0.995   1.355   8.994  2.1370  2.2315 -0.1154
    7SAPS  H19S  878   1.005   1.243   8.859 -1.0842 -0.9764  0.8594
    7SAPS  C220  879   1.188   1.350   8.897  0.6789 -0.2593  0.6644
    7SAPS  H20R  880   1.145   1.413   8.817 -2.3957 -2.0834  0.7207
    7SAPS  H20S  881   1.260   1.284   8.844 -0.8298  0.0581 -1.9417
    7SAPS  H20T  882   1.244   1.399   8.980 -0.5846 -1.8286  2.5637
    7SAPS   C33  883   1.476   1.263   9.730  0.6949 -0.2884 -0.1958
    7SAPS   H3X  884   1.500   1.155   9.735 -1.3738 -0.7989 -0.2308
    7SAPS   H3Y  885   1.564   1.330   9.733  0.5385 -0.0976  0.3969
    7SAPS   C34  886   1.406   1.272   9.595 -0.1490  0.0193  0.0862
    7SAPS   H4X  887   1.410   1.379   9.565 -2.1819  0.4078  0.9740
    7SAPS   H4Y  888   1.302   1.235   9.613 -0.2396  0.3126  0.1906
    7SAPS   C35  889   1.472   1.184   9.489  0.2174 -0.1271 -0.4088
    7SAPS   H5X  890   1.486   1.081   9.529  0.1371  0.0664  0.1314
    7SAPS   H5Y  891   1.574   1.227   9.480 -0.4467  1.6148 -0.0976
    7SAPS   C36  892   1.409   1.188   9.353 -0.6422 -0.2140  0.8099
    7SAPS   H6X  893   1.429   1.289   9.309  0.8185 -0.8335 -0.0274
    7SAPS   H6Y  894   1.299   1.172   9.353 -1.1427  2.3312 -1.8851
    7SAPS   C37  895   1.479   1.097   9.244  0.3891  0.2114  0.2019
    7SAPS   H7X  896   1.435   1.134   9.149 -1.0941 -0.0950  0.7316
    7SAPS   H7Y  897   1.434   0.997   9.259 -1.1709  1.0196  1.2967
    7SAPS   C38  898   1.632   1.086   9.225 -0.6615  0.0037 -0.1444
    7SAPS   H8X  899   1.665   1.015   9.304 -1.9901 -0.9832 -0.4407
    7SAPS   H8Y  900   1.679   1.184   9.248 -0.9921  0.0936  0.1526
    7SAPS   C39  901   1.668   1.016   9.101  0.5100  0.9711  0.1878
    7SAPS   H9X  902   1.610   0.922   9.104  0.0101  1.3002  2.1666
    7SAPS   H9Y  903   1.776   0.991   9.112  0.0253 -1.9709 -0.9407
    7SAPS  C310  904   1.649   1.098   8.973  0.1231 -0.3081  0.0752
    7SAPS  H10X  905   1.557   1.159   8.981  0.8540  0.5950  2.6788
    7SAPS  H10Y  906   1.639   1.038   8.880  0.2837  1.3403 -1.0428
    7SAPS  C311  907   1.765   1.197   8.930  0.5419 -0.2386 -0.1165
    7SAPS  H11X  908   1.833   1.136   8.867  1.4987  0.1192  0.5469
    7SAPS  H11Y  909   1.813   1.224   9.026  0.4435 -0.1511 -0.0912
    7SAPS  C312  910   1.723   1.322   8.856  0.0565 -0.0062 -0.1091
    7SAPS  H12X  911   1.804   1.398   8.850 -0.3702  0.5084  0.5187
    7SAPS  H12Y  912   1.638   1.358   8.918  0.2131 -0.8324  0.6040
    7SAPS  C313  913   1.655   1.303   8.714 -0.2811  0.0082  0.5350
    7SAPS  H13X  914   1.563   1.242   8.726  0.1680 -0.7330  0.2445
    7SAPS  H13Y  915   1.726   1.254   8.644 -1.3984  0.6074 -1.0852
    7SAPS  C314  916   1.621   1.444   8.669  0.4408 -0.3273  0.4604
    7SAPS  H14X  917   1.624   1.441   8.558 -1.0273 -0.0110  0.4023
    7SAPS  H14Y  918   1.682   1.531   8.702  0.2811  1.4555 -3.3859
    7SAPS  C315  919   1.477   1.478   8.713  0.6617 -0.2950  0.0281
    7SAPS  H15X  920   1.466   1.477   8.823  0.8847  1.2409  0.0903
    7SAPS  H15Y  921   1.396   1.417   8.668 -0.8773  1.5521  0.1569
    7SAPS  C316  922   1.435   1.609   8.655 -0.6113  0.2256 -0.2958
    7SAPS  H16X  923   1.334   1.629   8.697 -1.1683 -1.8218 -0.5733
    7SAPS  H16Y  924   1.421   1.603   8.545 -0.9828 -0.5751 -0.2086
    7SAPS  C317  925   1.524   1.728   8.699 -0.4021  0.2275 -0.4540
    7SAPS  H17X  926   1.614   1.734   8.634 -1.6858  0.4086 -2.2975
    7SAPS  H17Y  927   1.556   1.722   8.805 -0.3931 -0.3826 -0.4892
    7SAPS  C318  928   1.452   1.865   8.674  0.6757  0.4588 -0.5235
    7SAPS  H18X  929   1.434   1.915   8.772 -1.4497  0.0340 -0.6485
    7SAPS  H18Y  930   1.354   1.837   8.629  0.8490 -0.3302 -0.4221
    7SAPS  H18Z  931   1.509   1.937   8.610  0.6656  0.5144 -0.4697
    8SAPS     N  932   4.607   4.676  11.229  0.2821  0.0581 -0.3888
    8SAPS   HN1  933   4.609   4.644  11.328  0.5233  0.0512 -0.3936
    8SAPS   HN2  934   4.584   4.593  11.171 -0.4735  1.1568 -1.7209
    8SAPS   HN3  935   4.706   4.701  11.210  1.3701 -0.9107  3.2035
    8SAPS   C12  936   4.496   4.771  11.201  0.7006  0.5146 -0.5891
    8SAPS  H12A  937   4.487   4.781  11.093  0.7019 -0.8570 -0.7360
    8SAPS   C13  938   4.356   4.719  11.249  0.1819 -0.0289  0.0737
    8SAPS  O13A  939   4.345   4.619  11.330 -0.6491 -0.0739  0.4708
    8SAPS  O13B  940   4.259   4.784  11.207  0.2155  1.0084 -0.5469
    8SAPS   C11  941   4.516   4.908  11.265 -0.0389  0.6637  0.3215
    8SAPS  H11A  942   4.503   4.920  11.375 -0.1038  1.1096  0.2679
    8SAPS  H11B  943   4.430   4.967  11.225 -2.0086 -1.0705  1.7344
    8SAPS     P  944   4.651   5.077  11.122  0.0342 -0.1530  0.6359
    8SAPS   O13  945   4.556   5.186  11.153 -0.2364 -0.5589 -0.3565
    8SAPS   O14  946   4.796   5.102  11.103 -0.3393 -0.4309 -0.8983
    8SAPS   O12  947   4.643   4.964  11.233 -0.0368 -0.0106  0.3574
    8SAPS   O11  948   4.593   5.002  10.993  0.8680  0.2335  0.0940
    8SAPS    C1  949   4.683   4.951  10.888 -0.2938 -0.1077  0.6486
    8SAPS    HA  950   4.789   4.936  10.917 -0.1123  0.2102  0.1597
    8SAPS    HB  951   4.639   4.851  10.868 -0.1378 -0.3968  1.7022
    8SAPS    C2  952   4.691   5.045  10.762  0.2818  0.7756  1.1578
    8SAPS    HS  953   4.738   5.141  10.793  1.4114  0.4705  0.4528
    8SAPS   O21  954   4.557   5.053  10.711  0.3496  0.1932 -0.0844
    8SAPS   C21  955   4.523   5.143  10.627 -0.0822 -0.1693  0.3971
    8SAPS   O22  956   4.583   5.243  10.598  0.2543 -0.0565  0.2110
    8SAPS   C22  957   4.387   5.122  10.568  0.1975  0.2007 -0.1634
    8SAPS   H2R  958   4.370   5.013  10.561 -1.5942  0.5135 -1.1300
    8SAPS   H2S  959   4.315   5.164  10.641  0.5992  1.4342 -0.4525
    8SAPS    C3  960   4.774   4.989  10.640  0.3073 -1.1342 -0.2545
    8SAPS    HX  961   4.722   4.893  10.619 -1.7634 -0.1231 -0.0439
    8SAPS    HY  962   4.877   4.967  10.675  2.1506  2.8733 -2.4644
    8SAPS   O31  963   4.779   5.079  10.529  0.2808 -0.3960  0.2605
    8SAPS   C31  964   4.837   5.035  10.427 -0.4778  0.0766  0.0061
    8SAPS   O32  965   4.921   4.943  10.422  0.3861 -0.1254  0.0088
    8SAPS   C32  966   4.791   5.112  10.304 -0.0971  0.0554 -0.1222
    8SAPS   H2X  967   4.825   5.216  10.321  1.1579 -0.6957  2.4305
    8SAPS   H2Y  968   4.681   5.116  10.291  0.0981  1.8460 -1.7421
    8SAPS   C23  969   4.361   5.198  10.441 -0.5301  0.7345 -0.0121
    8SAPS   H3R  970   4.433   5.166  10.363 -0.3983  1.6988 -0.2980
    8SAPS   H3S  971   4.392   5.303  10.457  2.0471 -0.1363  1.3147
    8SAPS   C24  972   4.219   5.179  10.385  0.1247 -0.6117 -0.0325
    8SAPS   H4R  973   4.143   5.188  10.466  0.6710 -0.2146  0.4491
    8SAPS   H4S  974   4.200   5.073  10.359  2.1595 -1.5469  1.9149
    8SAPS   C25  975   4.191   5.283  10.279 -0.4897  0.6268 -0.0393
    8SAPS   H5R  976   4.180   5.387  10.313  1.8078  0.8073  0.3566
    8SAPS   C26  977   4.178   5.247  10.152 -0.0524  0.1817 -0.4027
    8SAPS   H6R  978   4.155   5.318  10.072  0.7578  0.9758  0.0567
    8SAPS   C27  979   4.195   5.102  10.101  0.0772 -0.3014 -0.6257
    8SAPS   H7R  980   4.250   5.035  10.170  1.6696 -3.1547 -4.3260
    8SAPS   H7S  981   4.284   5.114  10.035  1.7601  1.1118  1.7498
    8SAPS   C28  982   4.077   5.035  10.038  0.6323 -0.4122  0.9613
    8SAPS   H8R  983   3.992   5.030  10.109  0.1171 -1.2967  0.2975
    8SAPS   C29  984   4.063   4.981   9.915 -0.0877  0.0650  0.8395
    8SAPS   H9R  985   3.965   4.935   9.896 -0.8498  1.8854  0.1484
    8SAPS  C210  986   4.173   4.976   9.812 -0.3355 -0.5747 -0.0182
    8SAPS  H10R  987   4.159   4.876   9.768 -0.2412 -1.1537  1.2161
    8SAPS  H10S  988   4.276   4.973   9.855 -1.0649 -3.4388  1.7950
    8SAPS  C211  989   4.148   5.095   9.718  0.9819 -0.2469  0.8971
    8SAPS  H11R  990   4.095   5.186   9.747  1.6019  1.2657 -2.3771
    8SAPS  C212  991   4.173   5.089   9.587 -0.1598 -0.1370 -0.1267
    8SAPS  H12R  992   4.139   5.170   9.521 -0.7921 -0.9706 -0.8585
    8SAPS  C213  993   4.231   4.970   9.509 -0.1245 -0.0445  0.2063
    8SAPS  H13R  994   4.285   4.899   9.575  1.5901  0.5985 -0.4527
    8SAPS  H13S  995   4.321   5.003   9.454 -1.4996 -1.1517 -2.9778
    8SAPS  C214  996   4.129   4.905   9.424 -0.2379  0.4113  0.6655
    8SAPS  H14R  997   4.068   4.835   9.483  1.4904 -0.4052  1.5797
    8SAPS  C215  998   4.111   4.927   9.294 -0.0473  0.3002  0.4646
    8SAPS  H15R  999   4.036   4.868   9.239  1.3853 -2.7162  1.5288
    8SAPS  C216 1000   4.192   5.023   9.206  0.0965  0.2774  0.2993
    8SAPS  H16R 1001   4.267   5.077   9.268  1.3030 -0.5086 -0.4089
    8SAPS  H16S 1002   4.122   5.093   9.156 -1.4640 -0.6498  1.1222
    8SAPS  C217 1003   4.280   4.939   9.110 -0.2845  0.3716 -0.0512
    8SAPS  H17R 1004   4.342   4.864   9.165  1.0963  1.4817 -0.0387
    8SAPS  H17S 1005   4.351   5.015   9.070 -1.0666  1.7925  1.1562
    8SAPS  C218 1006   4.198   4.877   8.995 -0.4720  0.2153  0.6880
    8SAPS  H18R 1007   4.112   4.813   9.027 -2.3419  1.4003 -1.6500
    8SAPS  H18S 1008   4.272   4.809   8.947  0.8162 -0.1411  3.0089
    8SAPS  C219 1009   4.136   4.983   8.916  0.1908  0.8447  0.7031
    8SAPS  H19R 1010   4.206   5.061   8.879  1.7373 -0.6438  0.2859
    8SAPS  H19S 1011   4.051   5.037   8.961 -0.8803 -0.6475  0.5744
    8SAPS  C220 1012   4.071   4.917   8.795 -0.1681  0.5299 -0.2603
    8SAPS  H20R 1013   4.026   4.990   8.723  0.3349 -0.2614 -1.4098
    8SAPS  H20S 1014   3.992   4.845   8.823  2.4400 -2.0708  0.9298
    8SAPS  H20T 1015   4.144   4.865   8.729 -1.2116 -0.1744 -0.8940
    8SAPS   C33 1016   4.852   5.066  10.170 -0.0853  0.1516  0.2375
    8SAPS   H3X 1017   4.850   4.955  10.162  1.5653  0.2269 -2.3835
    8SAPS   H3Y 1018   4.961   5.088  10.177 -0.2057  0.9500 -0.2783
    8SAPS   C34 1019   4.787   5.121  10.041 -0.2423 -0.2532 -0.7182
    8SAPS   H4X 1020   4.805   5.230  10.047  2.5116 -0.6797 -0.3004
    8SAPS   H4Y 1021   4.677   5.101  10.042 -0.0479 -1.8661 -3.1990
    8SAPS   C35 1022   4.847   5.074   9.908 -0.5860 -0.0805  0.0164
    8SAPS   H5X 1023   4.774   5.050   9.827 -0.5432  0.8609 -0.3162
    8SAPS   H5Y 1024   4.903   4.980   9.926  0.2938  0.1436 -1.3949
    8SAPS   C36 1025   4.938   5.171   9.826  1.3139 -0.2791 -0.3671
    8SAPS   H6X 1026   5.021   5.187   9.898 -2.3639 -0.6656  4.4336
    8SAPS   H6Y 1027   4.886   5.265   9.802  1.9232 -0.2562 -1.6723
    8SAPS   C37 1028   4.993   5.123   9.691  0.0769 -0.0420  0.8234
    8SAPS   H7X 1029   5.064   5.198   9.650 -3.1258  0.9168 -3.7223
    8SAPS   H7Y 1030   4.910   5.134   9.619  0.1059 -0.3419  0.7439
    8SAPS   C38 1031   5.043   4.988   9.678  0.1654  0.6726 -0.3663
    8SAPS   H8X 1032   4.990   4.906   9.732 -1.1310  0.8412 -1.3371
    8SAPS   H8Y 1033   5.149   4.975   9.709  1.5556  0.8023 -4.5274
    8SAPS   C39 1034   5.040   4.942   9.532 -0.7139 -0.2684 -0.1751
    8SAPS   H9X 1035   5.079   5.020   9.463  0.0970  0.2711  0.8659
    8SAPS   H9Y 1036   4.934   4.946   9.498 -0.9046  1.4527  0.5417
    8SAPS  C310 1037   5.100   4.799   9.502  0.3298 -0.4756 -0.3419
    8SAPS  H10X 1038   5.048   4.722   9.563 -1.1483 -0.0543 -1.0383
    8SAPS  H10Y 1039   5.205   4.792   9.538  0.0355 -0.8414  0.4677
    8SAPS  C311 1040   5.099   4.775   9.352 -1.2870 -0.4715  0.2843
    8SAPS  H11X 1041   4.997   4.787   9.309  0.0802 -0.3448 -3.2435
    8SAPS  H11Y 1042   5.135   4.671   9.340  1.1072  0.3439 -0.1525
    8SAPS  C312 1043   5.205   4.852   9.271 -0.1413 -0.1824 -0.7293
    8SAPS  H12X 1044   5.308   4.827   9.303  0.3882  1.0449 -1.4009
    8SAPS  H12Y 1045   5.184   4.961   9.279  1.2148 -0.0620  2.2621
    8SAPS  C313 1046   5.207   4.809   9.125  0.5032 -0.2684  0.1468
    8SAPS  H13X 1047   5.108   4.820   9.076  1.1268  0.5104 -0.9931
    8SAPS  H13Y 1048   5.216   4.699   9.111  0.7411 -0.1500 -0.6854
    8SAPS  C314 1049   5.319   4.876   9.046 -0.5074  0.3744  0.5689
    8SAPS  H14X 1050   5.401   4.836   9.109  0.4347 -0.9655 -1.4212
    8SAPS  H14Y 1051   5.309   4.987   9.050  2.1980  0.8995 -2.4965
    8SAPS  C315 1052   5.326   4.836   8.893  0.7411 -0.2903  0.1615
    8SAPS  H15X 1053   5.411   4.899   8.859  2.2560 -1.1303  2.1680
    8SAPS  H15Y 1054   5.235   4.859   8.835  1.1486 -1.2712 -0.8964
    8SAPS  C316 1055   5.375   4.690   8.880 -0.4669 -0.2406  0.1851
    8SAPS  H16X 1056   5.306   4.618   8.930  0.9018  0.4834  3.4083
    8SAPS  H16Y 1057   5.475   4.669   8.923 -0.1393 -0.4099 -0.6499
    8SAPS  C317 1058   5.370   4.649   8.730 -0.2241 -0.0567  0.1516
    8SAPS  H17X 1059   5.447   4.702   8.670  0.7801 -0.8211  0.7482
    8SAPS  H17Y 1060   5.267   4.675   8.698 -0.6132 -2.8809 -1.2180
    8SAPS  C318 1061   5.384   4.504   8.719 -0.4450 -0.3770 -0.0664
    8SAPS  H18X 1062   5.479   4.471   8.767 -0.0338  0.6416 -0.1419
    8SAPS  H18Y 1063   5.377   4.464   8.616 -2.2725 -3.5554  1.1649
    8SAPS  H18Z 1064   5.299   4.452   8.767 -1.1858  0.7053 -0.1702
    9SAPS     N 1065   0.155   6.194   5.797 -0.3646  0.0962  0.2857
    9SAPS   HN1 1066   0.163   6.183   5.694  1.9519  1.7193  0.2002
    9SAPS   HN2 1067   0.094   6.119   5.835 -1.3300  0.4734 -0.4884
    9SAPS   HN3 1068   0.108   6.285   5.816 -0.7529 -0.5288  2.5876
    9SAPS   C12 1069   0.288   6.196   5.852 -0.1488 -0.7388  0.8092
    9SAPS  H12A 1070   0.337   6.101   5.834  1.4440  0.2318 -0.2993
    9SAPS   C13 1071   0.381   6.292   5.777 -0.2149 -0.0128 -0.1080
    9SAPS  O13A 1072   0.344   6.365   5.678  0.1910 -0.1893  0.0260
    9SAPS  O13B 1073   0.501   6.290   5.808 -0.2876  0.4249 -0.4466
    9SAPS   C11 1074   0.284   6.233   6.003 -0.2677 -0.1466  0.0115
    9SAPS  H11A 1075   0.243   6.335   6.023  1.8181  0.4626  1.5198
    9SAPS  H11B 1076   0.389   6.230   6.037  0.3891  0.9640 -1.8047
    9SAPS     P 1077   0.187   6.148   6.238 -0.0428 -0.0503 -0.1265
    9SAPS   O13 1078   0.098   6.260   6.266 -0.5647  0.2268 -0.2002
    9SAPS   O14 1079   0.144   6.011   6.282  0.0165 -0.4557 -0.1392
    9SAPS   O12 1080   0.211   6.136   6.082  0.3994 -0.3937 -0.7015
    9SAPS   O11 1081   0.332   6.189   6.276 -0.3422  0.6234 -0.6289
    9SAPS    C1 1082   0.372   6.272   6.390 -0.1706 -0.3308  0.6990
    9SAPS    HA 1083   0.473   6.311   6.366 -0.0209 -0.7363  0.6518
    9SAPS    HB 1084   0.303   6.357   6.409 -0.7192 -0.6301  0.0740
    9SAPS    C2 1085   0.381   6.193   6.523  0.0852 -0.0666  0.7910
    9SAPS    HS 1086   0.424   6.094   6.499 -2.1444 -0.8373 -0.3921
    9SAPS   O21 1087   0.242   6.177   6.569  0.0189  0.2581 -0.1283
    9SAPS   C21 1088   0.239   6.077   6.654  0.4725 -0.6866 -0.2113
    9SAPS   O22 1089   0.328   5.995   6.667  0.1501 -0.4787 -0.1323
    9SAPS   C22 1090   0.099   6.066   6.721  0.1876 -0.1708 -0.7787
    9SAPS   H2R 1091   0.027   6.082   6.638  1.4056  2.5102 -1.4257
    9SAPS   H2S 1092   0.085   5.968   6.771 -0.5736  0.1665 -0.3014
    9SAPS    C3 1093   0.471   6.271   6.619 -0.1850 -0.4462  0.3507
    9SAPS    HX 1094   0.426   6.372   6.626  3.0384  1.0421  1.6649
    9SAPS    HY 1095   0.572   6.278   6.575 -0.1686 -1.7964  0.1122
    9SAPS   O31 1096   0.470   6.217   6.746  0.1881  0.2549  0.1579
    9SAPS   C31 1097   0.566   6.143   6.785 -0.1899 -0.3208  0.2154
    9SAPS   O32 1098   0.668   6.120   6.718  0.4068 -0.1504  0.4251
    9SAPS   C32 1099   0.528   6.092   6.926 -0.1483 -0.1770  0.3721
    9SAPS   H2X 1100   0.426   6.126   6.955 -1.1040 -1.9445 -0.7564
    9SAPS   H2Y 1101   0.596   6.145   6.996  0.5772  1.3329 -1.3862
    9SAPS   C23 1102   0.079   6.184   6.823 -0.2411 -0.1491  0.3870
    9SAPS   H3R 1103   0.091   6.282   6.773  0.6312  0.5676  1.9108
    9SAPS   H3S 1104   0.155   6.183   6.905 -1.7131  1.9127  1.9038
    9SAPS   C24 1105  -0.061   6.190   6.885 -0.5547  0.3646 -0.0091
    9SAPS   H4R 1106  -0.130   6.202   6.798  0.7373 -1.6291 -1.3877
    9SAPS   H4S 1107  -0.064   6.281   6.949  0.3986 -0.1343  0.7451
    9SAPS   C25 1108  -0.095   6.066   6.959 -0.1604  1.0656 -0.6909
    9SAPS   H5R 1109  -0.119   5.978   6.897  0.4925  1.0984 -1.0072
    9SAPS   C26 1110  -0.087   6.054   7.096 -0.0541 -0.8078 -0.5741
    9SAPS   H6R 1111  -0.113   5.956   7.139 -0.8760  0.0494  0.9356
    9SAPS   C27 1112  -0.043   6.164   7.188  0.8044 -0.1269  0.3306
    9SAPS   H7R 1113  -0.055   6.266   7.145  2.6549  0.3559  0.8988
    9SAPS   H7S 1114   0.061   6.142   7.218 -0.6153 -4.6116  2.9484
    9SAPS   C28 1115  -0.119   6.147   7.317  0.3473 -0.2284 -0.1842
    9SAPS   H8R 1116  -0.212   6.089   7.326 -0.2012  0.5233 -0.8927
    9SAPS   C29 1117  -0.079   6.202   7.428  0.2932 -1.3620 -1.0330
    9SAPS   H9R 1118  -0.135   6.172   7.518  1.7092 -0.5149  0.1759
    9SAPS  C210 1119   0.046   6.283   7.462 -0.7191  0.2991  0.3158
    9SAPS  H10R 1120   0.124   6.270   7.384 -1.7675 -1.4164 -0.5077
    9SAPS  H10S 1121   0.087   6.241   7.556  0.1243  0.6864  0.1322
    9SAPS  C211 1122   0.013   6.428   7.474  0.0918  0.6259  0.2478
    9SAPS  H11R 1123   0.003   6.492   7.385  0.5655  0.1066 -0.1900
    9SAPS  C212 1124  -0.011   6.486   7.589 -0.0935  0.1983  0.2278
    9SAPS  H12R 1125  -0.034   6.593   7.598 -0.1357  0.1474  0.7448
    9SAPS  C213 1126   0.000   6.421   7.723  0.2799 -0.4084  0.5942
    9SAPS  H13R 1127   0.044   6.485   7.803 -2.7290 -1.4741  3.3196
    9SAPS  H13S 1128   0.082   6.347   7.725 -2.4000 -3.5963  0.2194
    9SAPS  C214 1129  -0.115   6.349   7.789 -0.0447 -0.0410  0.0846
    9SAPS  H14R 1130  -0.144   6.261   7.729 -0.0283 -0.9438  1.3688
    9SAPS  C215 1131  -0.171   6.367   7.906  0.3404 -0.2237  0.2559
    9SAPS  H15R 1132  -0.252   6.301   7.940  1.1981 -0.6727  1.4994
    9SAPS  C216 1133  -0.131   6.470   8.009  0.2096 -0.3355 -0.1646
    9SAPS  H16R 1134  -0.150   6.571   7.966 -1.9226 -0.6352  0.0142
    9SAPS  H16S 1135  -0.020   6.461   8.020  0.0279 -1.5028  0.8735
    9SAPS  C217 1136  -0.210   6.464   8.142 -0.7147 -0.0961 -0.2702
    9SAPS  H17R 1137  -0.201   6.373   8.204 -1.0836  1.5861  2.4171
    9SAPS  H17S 1138  -0.318   6.485   8.126 -0.6186  1.2365  0.6236
    9SAPS  C218 1139  -0.154   6.574   8.242 -0.4676 -0.3887  0.2234
    9SAPS  H18R 1140  -0.172   6.673   8.194 -3.0023 -0.2360  1.3623
    9SAPS  H18S 1141  -0.045   6.549   8.243 -0.4234 -0.2947 -0.7504
    9SAPS  C219 1142  -0.222   6.581   8.376 -0.1772 -0.2000 -0.0075
    9SAPS  H19R 1143  -0.226   6.484   8.430 -3.6566 -0.3675 -0.3833
    9SAPS  H19S 1144  -0.325   6.618   8.361  0.1039  0.0948 -1.3209
    9SAPS  C220 1145  -0.156   6.699   8.456  0.2937  0.1754  0.3227
    9SAPS  H20R 1146  -0.203   6.695   8.556  0.5396  0.3541  0.4489
    9SAPS  H20S 1147  -0.164   6.799   8.408 -1.5736  1.3343  2.8130
    9SAPS  H20T 1148  -0.047   6.677   8.459  0.7694  0.9874 -4.2744
    9SAPS   C33 1149   0.558   5.946   6.943 -0.8705  0.7395 -0.4318
    9SAPS   H3X 1150   0.659   5.920   6.906 -0.8811 -3.7202  1.9909
    9SAPS   H3Y 1151   0.481   5.892   6.886 -3.6225  1.6727  2.1328
    9SAPS   C34 1152   0.560   5.911   7.095 -0.2147  0.0206  0.3780
    9SAPS   H4X 1153   0.624   5.984   7.147 -1.1169 -0.4618  2.2284
    9SAPS   H4Y 1154   0.600   5.808   7.110 -0.5759 -0.0052  1.1819
    9SAPS   C35 1155   0.425   5.911   7.155 -0.2912 -0.1857  0.3236
    9SAPS   H5X 1156   0.357   5.852   7.090 -0.1701  0.2517 -0.2121
    9SAPS   H5Y 1157   0.377   6.012   7.154  0.8202  0.3940  1.9935
    9SAPS   C36 1158   0.409   5.854   7.294 -0.7071  0.3071 -0.8864
    9SAPS   H6X 1159   0.440   5.747   7.286  1.5015  0.8640 -0.5066
    9SAPS   H6Y 1160   0.301   5.849   7.319 -0.7160 -0.7964 -1.0719
    9SAPS   C37 1161   0.492   5.923   7.399  0.3910  0.0025 -0.8331
    9SAPS   H7X 1162   0.465   6.028   7.422  0.8667 -0.2230  0.9118
    9SAPS   H7Y 1163   0.600   5.913   7.376  0.6058 -0.1047  0.1806
    9SAPS   C38 1164   0.466   5.854   7.534  0.3370  0.2628  0.9939
    9SAPS   H8X 1165   0.538   5.774   7.562 -1.4961 -1.4482  1.0543
    9SAPS   H8Y 1166   0.372   5.795   7.527  1.7492 -2.0243 -0.1145
    9SAPS   C39 1167   0.461   5.942   7.662 -0.0044  0.2861  0.0857
    9SAPS   H9X 1168   0.421   5.875   7.742 -0.8350  0.9904  0.2731
    9SAPS   H9Y 1169   0.394   6.027   7.636 -0.8275 -0.4293 -0.1768
    9SAPS  C310 1170   0.604   5.989   7.708 -0.0283  0.2902 -0.0213
    9SAPS  H10X 1171   0.645   6.054   7.628 -1.3426 -1.6784 -2.4329
    9SAPS  H10Y 1172   0.669   5.900   7.720 -1.2507 -0.4190  1.6486
    9SAPS  C311 1173   0.590   6.057   7.853 -0.3545  0.5407  0.7845
    9SAPS  H11X 1174   0.497   6.117   7.862  1.6176  3.8672  0.6950
    9SAPS  H11Y 1175   0.673   6.129   7.871 -1.2693  2.2151 -1.2455
    9SAPS  C312 1176   0.592   5.951   7.970  0.0141 -1.0116 -0.4606
    9SAPS  H12X 1177   0.694   5.908   7.977  0.5565  0.2954 -0.1015
    9SAPS  H12Y 1178   0.529   5.860   7.955 -0.6009 -0.4357 -1.4399
    9SAPS  C313 1179   0.561   6.020   8.099  0.0915 -0.2272 -0.1866
    9SAPS  H13X 1180   0.452   6.041   8.097  0.2458  0.6601  0.1071
    9SAPS  H13Y 1181   0.603   6.123   8.092 -2.5030  0.9576  0.5514
    9SAPS  C314 1182   0.579   5.943   8.228  0.4223 -0.0276  0.0903
    9SAPS  H14X 1183   0.686   5.925   8.249  0.2982  0.3040  1.0866
    9SAPS  H14Y 1184   0.522   5.848   8.216  0.0916  0.4122 -2.2719
    9SAPS  C315 1185   0.535   6.006   8.363 -0.1371 -0.5554 -0.8412
    9SAPS  H15X 1186   0.429   6.038   8.363  0.5051  2.0531  1.8567
    9SAPS  H15Y 1187   0.581   6.107   8.371 -2.6839  0.5948  0.5714
    9SAPS  C316 1188   0.549   5.901   8.474 -0.5076  0.4602  0.4466
    9SAPS  H16X 1189   0.645   5.844   8.476 -0.3016  0.6885 -1.3867
    9SAPS  H16Y 1190   0.472   5.823   8.455  0.8142 -1.2710  1.8180
    9SAPS  C317 1191   0.522   5.951   8.618 -0.8692 -0.1807  0.7614
    9SAPS  H17X 1192   0.415   5.983   8.620 -0.7734  0.1535  0.5294
    9SAPS  H17Y 1193   0.596   6.030   8.643  0.6095 -1.3818  0.2957
    9SAPS  C318 1194   0.552   5.838   8.712  0.8152  0.3369 -0.0173
    9SAPS  H18X 1195   0.531   5.734   8.676 -2.5949  0.6082  0.8727
    9SAPS  H18Y 1196   0.503   5.856   8.809  0.4622  0.0976 -0.1457
    9SAPS  H18Z 1197   0.662   5.841   8.731  0.9911 -3.4904  0.3629
   10SAPS     N 1198   0.439   3.529   6.203  0.7218  0.0338  0.1350
   10SAPS   HN1 1199   0.520   3.496   6.146 -0.8837  1.6955 -3.4766
   10SAPS   HN2 1200   0.470   3.601   6.270  0.8144 -1.1361  1.3894
   10SAPS   HN3 1201   0.397   3.442   6.241 -0.1066 -0.0947 -1.0026
   10SAPS   C12 1202   0.330   3.590   6.120 -0.3223 -0.0090 -0.3197
   10SAPS  H12A 1203   0.374   3.681   6.079 -0.1759 -0.4753 -1.2278
   10SAPS   C13 1204   0.287   3.491   6.001 -0.1044  0.3615  0.2766
   10SAPS  O13A 1205   0.375   3.408   5.955 -0.0974 -0.2383 -0.5110
   10SAPS  O13B 1206   0.183   3.518   5.934  0.3718  0.6763  0.6361
   10SAPS   C11 1207   0.212   3.640   6.210  0.1703  0.6183 -0.2919
   10SAPS  H11A 1208   0.170   3.547   6.254  2.4058  0.6711  2.2526
   10SAPS  H11B 1209   0.139   3.695   6.147  2.5957  1.1815 -2.8305
   10SAPS     P 1210   0.205   3.794   6.425  0.6648 -0.1510 -0.1065
   10SAPS   O13 1211   0.202   3.939   6.384  0.5887  0.1468 -0.1238
   10SAPS   O14 1212   0.074   3.724   6.447 -0.0237  0.1718  0.5365
   10SAPS   O12 1213   0.272   3.723   6.309 -0.4032 -0.3903 -0.0100
   10SAPS   O11 1214   0.295   3.768   6.548 -0.1900  0.0511  0.5136
   10SAPS    C1 1215   0.379   3.654   6.569  1.0226  0.3814 -1.6230
   10SAPS    HA 1216   0.362   3.568   6.501 -0.0104  0.1917 -1.1492
   10SAPS    HB 1217   0.486   3.683   6.564  0.7803  1.4206 -1.1167
   10SAPS    C2 1218   0.350   3.597   6.713  0.1082 -0.3200  0.5493
   10SAPS    HS 1219   0.257   3.537   6.701  0.3815 -0.5154 -0.7385
   10SAPS   O21 1220   0.350   3.706   6.814 -0.6761 -0.1533 -0.1880
   10SAPS   C21 1221   0.233   3.749   6.849  0.3332  0.6810 -0.2458
   10SAPS   O22 1222   0.121   3.720   6.809  0.8021 -0.0802  0.1569
   10SAPS   C22 1223   0.258   3.849   6.964 -0.0027  0.6205 -0.2240
   10SAPS   H2R 1224   0.366   3.871   6.969  0.1003  0.4369 -1.3222
   10SAPS   H2S 1225   0.190   3.935   6.944  0.7900  1.4007  0.3703
   10SAPS    C3 1226   0.463   3.492   6.740  0.4851  0.2452 -0.4962
   10SAPS    HX 1227   0.553   3.552   6.766 -1.0195  1.7328  1.6281
   10SAPS    HY 1228   0.473   3.429   6.650  1.1871  0.7156 -0.7511
   10SAPS   O31 1229   0.416   3.407   6.842  0.3120 -0.1638  0.3756
   10SAPS   C31 1230   0.462   3.434   6.962  0.2564 -0.5131  0.3923
   10SAPS   O32 1231   0.554   3.513   6.987 -0.2838  0.8444 -0.0762
   10SAPS   C32 1232   0.392   3.343   7.060 -0.2959 -0.2209 -0.2470
   10SAPS   H2X 1233   0.379   3.238   7.024  1.5869 -1.1581  1.5988
   10SAPS   H2Y 1234   0.289   3.384   7.070  0.1267  0.6682  0.5936
   10SAPS   C23 1235   0.202   3.788   7.097 -0.5138 -0.5201  0.5308
   10SAPS   H3R 1236   0.104   3.740   7.080 -0.1219 -1.0719 -0.2476
   10SAPS   H3S 1237   0.190   3.868   7.173  1.9293 -1.3650  1.9290
   10SAPS   C24 1238   0.300   3.684   7.154  0.2486 -0.5787 -0.3703
   10SAPS   H4R 1239   0.403   3.726   7.157 -1.2464  3.6475 -1.1413
   10SAPS   H4S 1240   0.305   3.595   7.088  0.4007 -0.8654  0.0175
   10SAPS   C25 1241   0.257   3.644   7.294 -0.1566  0.0611 -0.4413
   10SAPS   H5R 1242   0.200   3.551   7.307 -2.3136  1.4847  1.0138
   10SAPS   C26 1243   0.269   3.721   7.408  0.3116 -0.0410  0.5268
   10SAPS   H6R 1244   0.213   3.688   7.497 -0.7991 -0.8407 -0.4499
   10SAPS   C27 1245   0.336   3.856   7.401  1.4379  0.1341 -0.5484
   10SAPS   H7R 1246   0.279   3.931   7.459  1.1427 -1.7130  1.6971
   10SAPS   H7S 1247   0.337   3.904   7.300  0.4767  0.7696 -0.2701
   10SAPS   C28 1248   0.481   3.854   7.448 -0.0236 -0.4554 -0.3219
   10SAPS   H8R 1249   0.556   3.836   7.369 -1.4892  1.9662 -2.4112
   10SAPS   C29 1250   0.521   3.885   7.578 -1.0734 -0.8913  0.9644
   10SAPS   H9R 1251   0.629   3.878   7.594 -0.6116 -0.2260 -1.4715
   10SAPS  C210 1252   0.445   3.919   7.698 -0.2127  0.0194 -0.5408
   10SAPS  H10R 1253   0.340   3.932   7.667  0.0499  1.8376 -0.7846
   10SAPS  H10S 1254   0.486   4.012   7.743 -0.5054 -0.7566  1.4444
   10SAPS  C211 1255   0.438   3.809   7.806  0.5484 -0.0774  0.1516
   10SAPS  H11R 1256   0.422   3.709   7.763 -0.3184  0.1826 -0.1550
   10SAPS  C212 1257   0.427   3.829   7.936 -0.5256 -0.3700 -0.1815
   10SAPS  H12R 1258   0.410   3.745   8.006 -1.0003  0.1333  0.3126
   10SAPS  C213 1259   0.426   3.957   8.011  0.2227  0.6041  0.4179
   10SAPS  H13R 1260   0.365   3.955   8.104  0.3198  2.7138  0.5780
   10SAPS  H13S 1261   0.380   4.035   7.947  0.3042  2.2626  2.2960
   10SAPS  C214 1262   0.559   4.012   8.040  0.2248  0.5223  0.3084
   10SAPS  H14R 1263   0.591   4.087   7.967  1.0214 -1.8805 -1.9561
   10SAPS  C215 1264   0.649   3.981   8.139  0.3669  0.0845 -0.0027
   10SAPS  H15R 1265   0.742   4.037   8.155  1.4035 -2.2128  2.7410
   10SAPS  C216 1266   0.618   3.884   8.255 -0.7733  0.4107 -0.4162
   10SAPS  H16R 1267   0.710   3.853   8.307 -0.7911 -0.0779 -0.6672
   10SAPS  H16S 1268   0.568   3.793   8.216 -1.4170  0.6490 -0.1697
   10SAPS  C217 1269   0.535   3.948   8.369 -0.1155 -0.3616 -0.2038
   10SAPS  H17R 1270   0.446   4.005   8.333 -1.3797 -1.6503  0.7904
   10SAPS  H17S 1271   0.607   4.019   8.415 -0.7651 -0.2448  0.6435
   10SAPS  C218 1272   0.475   3.849   8.471 -0.5849 -0.8168  0.4014
   10SAPS  H18R 1273   0.440   3.913   8.555  0.0955  1.4413 -0.9823
   10SAPS  H18S 1274   0.554   3.789   8.521 -0.1256  1.0695  2.0815
   10SAPS  C219 1275   0.358   3.764   8.418 -0.4892  0.6531 -0.3307
   10SAPS  H19R 1276   0.386   3.689   8.341 -3.2101 -1.0231  0.1800
   10SAPS  H19S 1277   0.305   3.830   8.345  0.3233 -0.3534 -1.8981
   10SAPS  C220 1278   0.253   3.703   8.519  0.2670 -0.1843  0.6373
   10SAPS  H20R 1279   0.220   3.785   8.587 -1.5175  1.9683 -2.5598
   10SAPS  H20S 1280   0.296   3.625   8.586  0.4792  0.8741  1.7752
   10SAPS  H20T 1281   0.165   3.674   8.458  0.1097 -0.9023  1.1915
   10SAPS   C33 1282   0.462   3.337   7.202  0.3509  1.0119  0.1037
   10SAPS   H3X 1283   0.498   3.439   7.226  1.0469  0.8320 -0.1524
   10SAPS   H3Y 1284   0.558   3.281   7.202  0.1277  0.5818  1.6620
   10SAPS   C34 1285   0.379   3.274   7.309 -0.0960 -0.4916  0.2228
   10SAPS   H4X 1286   0.364   3.166   7.288 -1.8700 -0.5393  1.5051
   10SAPS   H4Y 1287   0.279   3.323   7.313 -0.7500 -1.3673 -2.6970
   10SAPS   C35 1288   0.446   3.271   7.447  0.9937  0.6301  0.4531
   10SAPS   H5X 1289   0.483   3.374   7.466  0.8389  0.5353  1.2721
   10SAPS   H5Y 1290   0.534   3.204   7.450  1.9335  1.7692 -0.6305
   10SAPS   C36 1291   0.347   3.240   7.556 -0.7060 -0.1263 -0.3091
   10SAPS   H6X 1292   0.313   3.135   7.545  0.3830 -0.4737 -0.4388
   10SAPS   H6Y 1293   0.261   3.310   7.553 -0.3419  0.3015 -1.7971
   10SAPS   C37 1294   0.412   3.249   7.699 -0.3215  0.1351 -0.4283
   10SAPS   H7X 1295   0.519   3.226   7.712 -0.5427  0.0114  1.3935
   10SAPS   H7Y 1296   0.358   3.174   7.760  1.6138 -0.1716  0.9700
   10SAPS   C38 1297   0.414   3.389   7.763 -0.3554  0.0722  0.1254
   10SAPS   H8X 1298   0.310   3.425   7.750 -0.2258  0.6469  0.6550
   10SAPS   H8Y 1299   0.468   3.458   7.696  0.8579 -0.8712  0.0936
   10SAPS   C39 1300   0.463   3.402   7.912  0.4132  0.4261  0.6509
   10SAPS   H9X 1301   0.377   3.405   7.983 -0.1845  1.9800 -0.1162
   10SAPS   H9Y 1302   0.503   3.505   7.924  0.2402  0.3238  2.3611
   10SAPS  C310 1303   0.571   3.300   7.963  0.0789 -0.7958  0.3344
   10SAPS  H10X 1304   0.654   3.299   7.889  0.0791 -3.4894  0.2771
   10SAPS  H10Y 1305   0.535   3.195   7.965 -2.0938 -0.2129 -2.3748
   10SAPS  C311 1306   0.628   3.330   8.100 -0.5824 -0.0607 -0.2188
   10SAPS  H11X 1307   0.652   3.439   8.094 -0.7821 -0.0649 -1.1286
   10SAPS  H11Y 1308   0.720   3.273   8.125 -0.7091 -0.4116 -0.5537
   10SAPS  C312 1309   0.535   3.307   8.211  0.9081  0.1254 -0.9974
   10SAPS  H12X 1310   0.500   3.203   8.199  2.8068 -0.3525 -3.4910
   10SAPS  H12Y 1311   0.449   3.377   8.205  1.3383  0.6387 -1.2658
   10SAPS  C313 1312   0.602   3.322   8.354  0.4212 -0.4289 -0.0044
   10SAPS  H13X 1313   0.677   3.240   8.361 -0.0399 -0.7998  0.6865
   10SAPS  H13Y 1314   0.521   3.308   8.429 -0.0555  0.0724 -0.4226
   10SAPS  C314 1315   0.665   3.458   8.381 -0.6574 -0.5638 -0.3888
   10SAPS  H14X 1316   0.584   3.530   8.357 -1.2210 -0.6385  1.1770
   10SAPS  H14Y 1317   0.750   3.482   8.313  1.6565 -3.4098  1.2578
   10SAPS  C315 1318   0.719   3.476   8.522 -0.0760  0.1458  0.2483
   10SAPS  H15X 1319   0.738   3.584   8.536 -1.1047  0.8035 -2.6268
   10SAPS  H15Y 1320   0.816   3.424   8.536  0.7709  1.8273  0.8511
   10SAPS  C316 1321   0.622   3.441   8.639 -0.0524  0.3555  0.4503
   10SAPS  H16X 1322   0.588   3.335   8.640 -0.6221  0.5344  0.8463
   10SAPS  H16Y 1323   0.529   3.500   8.621 -0.4704 -0.5120 -0.3206
   10SAPS  C317 1324   0.684   3.478   8.778  0.0539  0.4587 -0.4447
   10SAPS  H17X 1325   0.695   3.588   8.773  0.0231  0.5034  0.4343
   10SAPS  H17Y 1326   0.782   3.427   8.788 -0.7223 -1.3232 -1.3818
   10SAPS  C318 1327   0.604   3.441   8.898 -0.2949  0.2554 -0.8328
   10SAPS  H18X 1328   0.507   3.494   8.911  0.5933  1.7561 -0.0167
   10SAPS  H18Y 1329   0.661   3.465   8.990 -2.5490  0.2046  0.6574
   10SAPS  H18Z 1330   0.590   3.331   8.897 -0.4920  0.2853 -1.5818
   11SAPS     N 1331   4.563   2.749   6.115 -0.1550 -0.6246  0.5406
   11SAPS   HN1 1332   4.587   2.688   6.034  0.0091 -0.1616  0.2348
   11SAPS   HN2 1333   4.646   2.754   6.177  0.1724  2.9939  0.0150
   11SAPS   HN3 1334   4.489   2.710   6.176 -1.3006  0.0789 -0.3600
   11SAPS   C12 1335   4.529   2.883   6.060  0.5817 -0.0716  0.1228
   11SAPS  H12A 1336   4.506   2.940   6.149 -0.7021  1.0897 -0.9388
   11SAPS   C13 1337   4.648   2.959   6.007  0.5998 -0.3330  0.3085
   11SAPS  O13A 1338   4.753   2.897   5.980  0.0404 -0.7497  0.2789
   11SAPS  O13B 1339   4.631   3.078   5.986 -0.7118 -0.0382  0.3685
   11SAPS   C11 1340   4.416   2.866   5.956 -0.4043 -0.1867 -0.3564
   11SAPS  H11A 1341   4.465   2.828   5.864 -0.3670  1.5026 -1.0615
   11SAPS  H11B 1342   4.379   2.969   5.935 -0.0410 -0.1702 -0.9151
   11SAPS     P 1343   4.251   2.662   5.907  0.7392 -0.4118  0.3959
   11SAPS   O13 1344   4.198   2.713   5.776 -0.0847  0.2770  0.0470
   11SAPS   O14 1345   4.358   2.556   5.902 -0.2193  0.3763 -0.0953
   11SAPS   O12 1346   4.313   2.774   5.996  0.6982  0.2341 -0.6822
   11SAPS   O11 1347   4.134   2.616   6.002  0.4441  0.1870 -0.6230
   11SAPS    C1 1348   4.055   2.691   6.091 -0.1389 -0.4977  0.1812
   11SAPS    HA 1349   4.047   2.798   6.060  0.7678  0.2533  2.3131
   11SAPS    HB 1350   3.952   2.652   6.097 -0.5257  0.2167 -1.2468
   11SAPS    C2 1351   4.109   2.700   6.235  0.3658  0.1145 -0.4657
   11SAPS    HS 1352   4.186   2.780   6.234 -2.5908  3.1085 -0.8900
   11SAPS   O21 1353   4.159   2.575   6.287 -0.1601  0.3902 -0.0247
   11SAPS   C21 1354   4.291   2.552   6.283 -0.2614 -0.5308 -0.0331
   11SAPS   O22 1355   4.374   2.639   6.259  0.5221  0.5762 -0.2958
   11SAPS   C22 1356   4.330   2.415   6.319  0.6779  0.5026 -0.0042
   11SAPS   H2R 1357   4.298   2.344   6.239 -1.0264  2.7676 -1.4702
   11SAPS   H2S 1358   4.438   2.411   6.341  1.0188 -0.7715 -1.7138
   11SAPS    C3 1359   4.000   2.762   6.323  0.6147  0.4394  0.1945
   11SAPS    HX 1360   3.902   2.712   6.308  1.6847 -1.5635 -0.5445
   11SAPS    HY 1361   3.986   2.867   6.290  0.1394  0.0619 -0.8485
   11SAPS   O31 1362   4.044   2.766   6.466 -0.0902  0.1689  0.0094
   11SAPS   C31 1363   3.993   2.673   6.542  0.5858  0.6097  0.6153
   11SAPS   O32 1364   3.904   2.587   6.508 -0.6726 -0.7680 -0.5246
   11SAPS   C32 1365   4.036   2.679   6.686 -1.0582  0.3052  0.1049
   11SAPS   H2X 1366   4.039   2.787   6.709 -0.0153  0.6028 -1.2913
   11SAPS   H2Y 1367   4.141   2.642   6.685 -0.6696  1.2680  1.7325
   11SAPS   C23 1368   4.250   2.359   6.438 -0.6058  0.1019  1.0056
   11SAPS   H3R 1369   4.275   2.252   6.451  0.2885  0.2808  0.8109
   11SAPS   H3S 1370   4.141   2.372   6.419 -0.2916 -0.2703 -1.3558
   11SAPS   C24 1371   4.294   2.424   6.571 -0.1054 -0.5965 -0.4004
   11SAPS   H4R 1372   4.229   2.405   6.659  0.7808  0.7817  0.5935
   11SAPS   H4S 1373   4.296   2.533   6.549  0.8174 -0.2134  1.3540
   11SAPS   C25 1374   4.438   2.396   6.601 -0.7101 -0.2359 -0.4521
   11SAPS   H5R 1375   4.511   2.450   6.539  0.9968 -0.9093  0.8838
   11SAPS   C26 1376   4.491   2.311   6.700 -0.0356 -0.6537 -0.1891
   11SAPS   H6R 1377   4.599   2.292   6.710  0.4234  1.1024 -1.3180
   11SAPS   C27 1378   4.406   2.219   6.786 -0.2047  0.2245 -0.2742
   11SAPS   H7R 1379   4.326   2.291   6.813 -0.2429  0.7608 -1.6935
   11SAPS   H7S 1380   4.456   2.207   6.884 -2.8657 -0.3875  1.0977
   11SAPS   C28 1381   4.354   2.096   6.707 -0.4871  0.0296 -0.4749
   11SAPS   H8R 1382   4.309   2.125   6.611 -1.5723  1.8398  0.5154
   11SAPS   C29 1383   4.355   1.966   6.755 -0.1832  0.5240 -0.2932
   11SAPS   H9R 1384   4.336   1.892   6.675  2.5811  0.3223 -0.8419
   11SAPS  C210 1385   4.396   1.915   6.888 -0.2848  0.2143 -0.4027
   11SAPS  H10R 1386   4.316   1.950   6.956  0.1462 -0.5979  0.5515
   11SAPS  H10S 1387   4.488   1.969   6.920 -0.0663 -0.0254 -0.6128
   11SAPS  C211 1388   4.414   1.760   6.892  0.6305 -0.0272 -0.0462
   11SAPS  H11R 1389   4.335   1.705   6.840  1.4058 -2.1827  0.9546
   11SAPS  C212 1390   4.503   1.682   6.957 -0.8560 -0.4992 -0.4338
   11SAPS  H12R 1391   4.491   1.573   6.951 -1.9260 -0.5918  2.1074
   11SAPS  C213 1392   4.621   1.738   7.032  0.2905  0.5489 -0.1261
   11SAPS  H13R 1393   4.674   1.821   6.979  1.2258  0.0042 -0.0543
   11SAPS  H13S 1394   4.695   1.656   7.037  0.7023  0.7065 -2.4829
   11SAPS  C214 1395   4.580   1.770   7.176  0.2295  0.8019 -0.1524
   11SAPS  H14R 1396   4.510   1.700   7.225  0.5200  0.3280 -0.4047
   11SAPS  C215 1397   4.625   1.870   7.247 -0.3565 -0.6127  0.1898
   11SAPS  H15R 1398   4.606   1.885   7.354 -0.3614  3.4988 -0.2223
   11SAPS  C216 1399   4.714   1.976   7.200 -0.6785 -0.2287  0.5012
   11SAPS  H16R 1400   4.659   2.070   7.225 -0.1403  0.4825 -0.9019
   11SAPS  H16S 1401   4.737   1.971   7.091 -1.9177  0.7717  0.1645
   11SAPS  C217 1402   4.848   1.975   7.279  0.0260  0.2564  0.0013
   11SAPS  H17R 1403   4.919   2.047   7.233  0.9331  0.2718  1.3776
   11SAPS  H17S 1404   4.898   1.876   7.277 -1.3721 -0.4817 -1.9060
   11SAPS  C218 1405   4.822   2.028   7.424 -0.7664 -0.2807  0.0190
   11SAPS  H18R 1406   4.753   1.961   7.479  0.1702 -1.0179  0.3123
   11SAPS  H18S 1407   4.787   2.134   7.425 -1.3411 -0.4467 -0.7487
   11SAPS  C219 1408   4.960   2.027   7.507  0.5496 -0.0444  0.2147
   11SAPS  H19R 1409   5.033   2.086   7.447 -0.0913  0.1747 -0.3629
   11SAPS  H19S 1410   5.007   1.927   7.503 -0.2440 -0.4331  0.3467
   11SAPS  C220 1411   4.960   2.076   7.650  0.3548 -0.3646 -0.3098
   11SAPS  H20R 1412   5.060   2.088   7.697  0.0970  1.3823 -0.1145
   11SAPS  H20S 1413   4.897   2.012   7.715 -0.6321  1.2288  0.3847
   11SAPS  H20T 1414   4.919   2.180   7.647  3.0328  0.8272  1.0417
   11SAPS   C33 1415   3.950   2.610   6.793 -0.5200 -0.6815  0.0033
   11SAPS   H3X 1416   3.949   2.504   6.758 -0.7843 -0.6793  0.0014
   11SAPS   H3Y 1417   3.851   2.661   6.789  0.2971  0.9923 -4.3888
   11SAPS   C34 1418   4.010   2.622   6.934  0.0391 -0.1440 -0.6705
   11SAPS   H4X 1419   4.109   2.571   6.923 -0.4010 -0.8121 -1.6235
   11SAPS   H4Y 1420   3.956   2.560   7.009  0.7184  1.2021  1.0188
   11SAPS   C35 1421   4.036   2.764   6.993  0.0830  0.8139 -0.1169
   11SAPS   H5X 1422   3.942   2.822   6.991 -1.3559 -1.3984  0.2394
   11SAPS   H5Y 1423   4.114   2.824   6.941 -1.2838  3.6601  0.9263
   11SAPS   C36 1424   4.077   2.759   7.144 -0.7467 -0.2820 -0.3597
   11SAPS   H6X 1425   4.008   2.690   7.196 -1.8733  1.3100  0.3604
   11SAPS   H6Y 1426   4.065   2.859   7.191 -2.5224 -0.0359 -1.2250
   11SAPS   C37 1427   4.217   2.711   7.183  0.7345 -0.3279  0.7773
   11SAPS   H7X 1428   4.289   2.774   7.127 -0.5662  0.5168 -0.0118
   11SAPS   H7Y 1429   4.222   2.604   7.151 -0.1688 -1.2474  3.4331
   11SAPS   C38 1430   4.253   2.710   7.335 -0.5411  0.2531 -0.9560
   11SAPS   H8X 1431   4.273   2.812   7.374  2.5832 -1.0366  1.2222
   11SAPS   H8Y 1432   4.354   2.665   7.346 -0.4189  0.5494 -0.8533
   11SAPS   C39 1433   4.159   2.636   7.428 -0.1416 -0.4341 -0.0675
   11SAPS   H9X 1434   4.148   2.532   7.390 -1.6040  0.2492 -1.6335
   11SAPS   H9Y 1435   4.054   2.673   7.424 -0.8334 -2.3587 -1.3650
   11SAPS  C310 1436   4.206   2.641   7.571 -0.2819  0.2155 -0.3552
   11SAPS  H10X 1437   4.153   2.721   7.627 -0.1263 -2.2928  3.7569
   11SAPS  H10Y 1438   4.316   2.660   7.572 -0.1369 -0.6104  0.3301
   11SAPS  C311 1439   4.180   2.521   7.659  0.7436  0.6248  0.1006
   11SAPS  H11X 1440   4.230   2.441   7.599  2.1653  0.4897  1.4029
   11SAPS  H11Y 1441   4.072   2.497   7.651  0.5952  0.3808  2.3938
   11SAPS  C312 1442   4.234   2.528   7.801 -0.0285  0.1918 -0.2900
   11SAPS  H12X 1443   4.174   2.600   7.861  1.1200 -0.9607  2.4400
   11SAPS  H12Y 1444   4.342   2.552   7.802  0.8835 -3.1549 -2.2449
   11SAPS  C313 1445   4.213   2.391   7.879 -0.7905  0.5213  0.5605
   11SAPS  H13X 1446   4.275   2.328   7.811  1.7353  2.0792  1.2748
   11SAPS  H13Y 1447   4.106   2.364   7.866 -0.9076  1.1532  0.1853
   11SAPS  C314 1448   4.265   2.399   8.024 -0.0097  0.7227  0.4500
   11SAPS  H14X 1449   4.213   2.491   8.058 -2.0952  0.1984 -1.0999
   11SAPS  H14Y 1450   4.372   2.429   8.020 -0.2594  1.5888 -0.0770
   11SAPS  C315 1451   4.230   2.272   8.102 -0.1413 -0.1893  0.3322
   11SAPS  H15X 1452   4.119   2.270   8.105 -0.1776  0.9751  0.3158
   11SAPS  H15Y 1453   4.259   2.299   8.206  3.4000 -1.8435 -0.0560
   11SAPS  C316 1454   4.284   2.141   8.055  0.0541  0.5631  0.3455
   11SAPS  H16X 1455   4.394   2.156   8.050  0.3890 -1.1132  1.7890
   11SAPS  H16Y 1456   4.250   2.120   7.951  0.3869  0.1947  0.3060
   11SAPS  C317 1457   4.233   2.030   8.150 -0.1170  0.2179  0.4246
   11SAPS  H17X 1458   4.124   2.021   8.134  0.0179 -0.5225 -0.1934
   11SAPS  H17Y 1459   4.246   2.064   8.255  2.4955  1.8156 -0.3166
   11SAPS  C318 1460   4.291   1.897   8.125  0.6592 -0.0047  0.0421
   11SAPS  H18X 1461   4.265   1.865   8.022  1.1456  3.3862 -1.2543
   11SAPS  H18Y 1462   4.256   1.834   8.209 -0.2805  1.1407  0.5381
   11SAPS  H18Z 1463   4.402   1.890   8.134  0.7253  1.6391  0.8024
   12SAPS     N 1464   4.115   4.289   6.185  0.0242 -0.5977  0.2897
   12SAPS   HN1 1465   4.022   4.243   6.172 -1.1946  1.9793 -0.7536
   12SAPS   HN2 1466   4.164   4.256   6.271 -2.9330  1.3687  2.9954
   12SAPS   HN3 1467   4.088   4.388   6.199 -2.0494 -0.9211 -1.0028
   12SAPS   C12 1468   4.199   4.271   6.066 -0.3248  0.3496 -0.0402
   12SAPS  H12A 1469   4.293   4.320   6.083  0.2258 -0.9227  0.6966
   12SAPS   C13 1470   4.218   4.119   6.025  0.8513 -0.6362  0.0198
   12SAPS  O13A 1471   4.178   4.027   6.100  0.2174  0.1096 -0.1519
   12SAPS  O13B 1472   4.305   4.095   5.935  0.2023 -0.1301  0.1329
   12SAPS   C11 1473   4.135   4.355   5.953  0.0473  0.5264  0.1425
   12SAPS  H11A 1474   4.032   4.317   5.935 -0.0679  1.4779 -1.3098
   12SAPS  H11B 1475   4.197   4.349   5.861  0.8633  0.4237  0.6784
   12SAPS     P 1476   4.021   4.592   5.951  0.5806 -0.2668  0.6848
   12SAPS   O13 1477   4.078   4.727   5.997  0.5563  0.2256 -0.3160
   12SAPS   O14 1478   3.984   4.582   5.808 -0.0287 -0.7050 -0.8740
   12SAPS   O12 1479   4.133   4.492   5.995  0.2736  0.0384  0.3504
   12SAPS   O11 1480   3.900   4.550   6.040 -0.7187 -0.5160 -0.5975
   12SAPS    C1 1481   3.764   4.596   6.027  0.4378  0.0404 -0.2961
   12SAPS    HA 1482   3.754   4.705   6.006  0.0980  0.1585  0.4416
   12SAPS    HB 1483   3.720   4.529   5.950 -0.7868 -0.0869  0.4935
   12SAPS    C2 1484   3.692   4.570   6.156 -0.3398  0.5091 -0.9406
   12SAPS    HS 1485   3.582   4.584   6.156 -0.6544 -1.1092  1.8516
   12SAPS   O21 1486   3.760   4.643   6.260  0.3895 -0.2695 -0.0335
   12SAPS   C21 1487   3.720   4.768   6.277 -0.8591  0.6689 -0.0247
   12SAPS   O22 1488   3.631   4.822   6.218  0.0594 -0.7873  0.0623
   12SAPS   C22 1489   3.814   4.822   6.387 -0.1541 -0.1735  0.0682
   12SAPS   H2R 1490   3.794   4.761   6.477 -3.7238  0.9200  0.1721
   12SAPS   H2S 1491   3.917   4.807   6.348 -0.8915 -1.4443 -1.4932
   12SAPS    C3 1492   3.699   4.414   6.185  0.1292 -0.3295  0.1019
   12SAPS    HX 1493   3.803   4.397   6.222 -0.3490 -1.7631  0.8724
   12SAPS    HY 1494   3.686   4.350   6.095 -0.4950 -0.9318  0.6025
   12SAPS   O31 1495   3.600   4.379   6.289  0.1674 -0.3382  0.1369
   12SAPS   C31 1496   3.644   4.356   6.415 -0.2656 -0.5789  0.0579
   12SAPS   O32 1497   3.761   4.350   6.446 -0.1198 -0.4183 -0.8971
   12SAPS   C32 1498   3.532   4.348   6.513 -0.0079  0.0982 -0.1509
   12SAPS   H2X 1499   3.447   4.406   6.471  2.0035  3.6229  0.2458
   12SAPS   H2Y 1500   3.556   4.400   6.608 -0.5651 -2.6137  1.5666
   12SAPS   C23 1501   3.792   4.966   6.431  0.3767  0.1214  0.9638
   12SAPS   H3R 1502   3.692   4.964   6.480 -1.5707 -3.5967 -2.5710
   12SAPS   H3S 1503   3.783   5.029   6.340  0.7559 -0.2874  0.6363
   12SAPS   C24 1504   3.905   5.019   6.520 -0.0129  0.0646 -0.4232
   12SAPS   H4R 1505   3.995   5.021   6.454  0.7855 -0.6033  0.6083
   12SAPS   H4S 1506   3.911   4.940   6.598 -2.0860 -0.9547 -1.2380
   12SAPS   C25 1507   3.865   5.156   6.560 -0.4592 -0.0152 -0.4600
   12SAPS   H5R 1508   3.858   5.231   6.480 -2.6850  1.9869  1.4717
   12SAPS   C26 1509   3.851   5.201   6.688  0.0014  0.2454  0.6783
   12SAPS   H6R 1510   3.850   5.311   6.693  2.2794  0.3511 -0.0966
   12SAPS   C27 1511   3.856   5.126   6.817 -0.9057  0.2347  0.5850
   12SAPS   H7R 1512   3.917   5.181   6.891  0.5304  0.1277 -0.4755
   12SAPS   H7S 1513   3.904   5.026   6.807 -2.2346 -0.1816 -3.5412
   12SAPS   C28 1514   3.719   5.105   6.869 -0.4445 -0.4824 -0.1160
   12SAPS   H8R 1515   3.675   5.194   6.917  0.5546 -0.4483  0.7768
   12SAPS   C29 1516   3.663   4.985   6.892 -0.2618 -0.2827 -1.0364
   12SAPS   H9R 1517   3.566   4.982   6.944  0.3470 -0.4914  0.1207
   12SAPS  C210 1518   3.722   4.847   6.853  0.2443  0.4989 -0.1165
   12SAPS  H10R 1519   3.791   4.818   6.935 -0.0454  3.0022  1.1106
   12SAPS  H10S 1520   3.779   4.853   6.757 -0.2830 -1.8241 -0.6444
   12SAPS  C211 1521   3.617   4.745   6.830  0.1177  1.0536  0.2235
   12SAPS  H11R 1522   3.575   4.745   6.728  2.4610 -2.7953 -0.9949
   12SAPS  C212 1523   3.585   4.638   6.906  0.0691  0.5858  0.2521
   12SAPS  H12R 1524   3.507   4.569   6.871 -0.3983  1.1142  0.2494
   12SAPS  C213 1525   3.650   4.596   7.035 -0.3122  0.1707 -0.3127
   12SAPS  H13R 1526   3.726   4.670   7.067  0.6034 -0.5818 -0.6891
   12SAPS  H13S 1527   3.720   4.510   7.024  0.2673  0.3147  1.7327
   12SAPS  C214 1528   3.555   4.552   7.136  0.0747  0.2934 -0.1996
   12SAPS  H14R 1529   3.478   4.488   7.090 -0.4078 -0.1193  1.1425
   12SAPS  C215 1530   3.556   4.576   7.268 -0.0212 -0.0711 -0.5350
   12SAPS  H15R 1531   3.481   4.538   7.339 -0.7260  0.9484 -0.7079
   12SAPS  C216 1532   3.665   4.657   7.337 -0.0562 -0.0114 -0.2233
   12SAPS  H16R 1533   3.680   4.754   7.285  3.4438 -0.4547 -0.2192
   12SAPS  H16S 1534   3.762   4.605   7.328 -0.0746  0.1951 -1.7356
   12SAPS  C217 1535   3.629   4.682   7.490 -0.8378  0.1418  0.5839
   12SAPS  H17R 1536   3.527   4.724   7.506 -1.6614 -1.7670  0.6160
   12SAPS  H17S 1537   3.697   4.765   7.517  0.1750  0.2233 -1.9311
   12SAPS  C218 1538   3.654   4.558   7.578  0.1194  0.4291 -0.1998
   12SAPS  H18R 1539   3.744   4.504   7.540 -0.5336 -0.2096 -0.8660
   12SAPS  H18S 1540   3.563   4.496   7.566  0.1045  0.5486 -0.7335
   12SAPS  C219 1541   3.680   4.570   7.726  0.2559 -0.1477 -0.1705
   12SAPS  H19R 1542   3.592   4.608   7.781 -0.6587 -0.1090 -1.6153
   12SAPS  H19S 1543   3.758   4.647   7.743  2.9015 -2.2747 -1.8050
   12SAPS  C220 1544   3.720   4.429   7.779 -0.2550 -0.7947  0.8297
   12SAPS  H20R 1545   3.714   4.440   7.890  0.2665 -0.3457  0.8151
   12SAPS  H20S 1546   3.822   4.406   7.743  0.4054  2.5553  0.2002
   12SAPS  H20T 1547   3.656   4.350   7.735  1.0845 -1.7877  0.6071
   12SAPS   C33 1548   3.493   4.204   6.552  0.8178 -0.5725  0.2333
   12SAPS   H3X 1549   3.476   4.133   6.468 -0.0513  0.3697 -0.4054
   12SAPS   H3Y 1550   3.401   4.213   6.614 -0.4662  0.5598 -1.7055
   12SAPS   C34 1551   3.590   4.143   6.659 -0.2290  0.1595  0.1092
   12SAPS   H4X 1552   3.680   4.117   6.600 -1.3684 -0.7030 -1.3115
   12SAPS   H4Y 1553   3.547   4.043   6.684  1.2668 -0.0389  2.1630
   12SAPS   C35 1554   3.609   4.212   6.783 -0.0749  0.1797 -0.7494
   12SAPS   H5X 1555   3.505   4.233   6.816 -0.2383 -0.7215 -0.6663
   12SAPS   H5Y 1556   3.648   4.316   6.779 -0.9316  0.5379 -0.0812
   12SAPS   C36 1557   3.683   4.126   6.890 -1.1840  0.2237 -0.2295
   12SAPS   H6X 1558   3.786   4.104   6.854 -0.6177  0.8598  0.9446
   12SAPS   H6Y 1559   3.640   4.024   6.899 -0.3893 -0.1386 -0.3981
   12SAPS   C37 1560   3.685   4.203   7.027 -0.2144 -0.0915  0.3047
   12SAPS   H7X 1561   3.581   4.237   7.043 -0.3409 -0.7489  0.9420
   12SAPS   H7Y 1562   3.756   4.288   7.020 -1.3250  0.8080 -0.2444
   12SAPS   C38 1563   3.737   4.113   7.145 -0.4937 -0.3369 -0.5505
   12SAPS   H8X 1564   3.839   4.074   7.124  0.5051  1.0750  1.4257
   12SAPS   H8Y 1565   3.660   4.035   7.163 -2.1910  1.1573 -1.0205
   12SAPS   C39 1566   3.746   4.181   7.280  0.2856 -0.0956  0.4447
   12SAPS   H9X 1567   3.647   4.210   7.320 -1.0083 -2.2367 -0.9695
   12SAPS   H9Y 1568   3.797   4.279   7.276  0.5560 -0.2653 -1.2865
   12SAPS  C310 1569   3.819   4.093   7.387 -0.0488 -0.1602  0.3181
   12SAPS  H10X 1570   3.916   4.066   7.341  0.5960 -2.7760  2.8533
   12SAPS  H10Y 1571   3.756   4.002   7.401 -0.4133 -0.0419 -0.5010
   12SAPS  C311 1572   3.844   4.159   7.526 -0.8821  0.5433  0.0548
   12SAPS  H11X 1573   3.736   4.168   7.552 -1.2686 -1.1040 -0.8340
   12SAPS  H11Y 1574   3.892   4.259   7.523 -0.1905  0.2060 -2.2597
   12SAPS  C312 1575   3.915   4.067   7.626  0.6559 -0.6980 -0.4897
   12SAPS  H12X 1576   4.009   4.024   7.587  0.8064  0.0919 -1.0236
   12SAPS  H12Y 1577   3.850   3.979   7.643 -0.5421 -0.4455 -3.2362
   12SAPS  C313 1578   3.931   4.143   7.757  0.1863  0.3162 -0.2673
   12SAPS  H13X 1579   3.829   4.164   7.795 -0.7582  1.7834 -3.3469
   12SAPS  H13Y 1580   3.985   4.239   7.743  1.9415 -0.7261 -0.9776
   12SAPS  C314 1581   4.017   4.065   7.855 -0.4428  0.3233 -0.3059
   12SAPS  H14X 1582   4.122   4.053   7.821 -0.3761  2.2302 -0.8842
   12SAPS  H14Y 1583   3.956   3.972   7.860 -0.4804  0.1538 -2.7118
   12SAPS  C315 1584   4.026   4.132   7.991  0.3214  0.5839 -0.4370
   12SAPS  H15X 1585   4.081   4.059   8.054  3.5479  1.9880 -1.4564
   12SAPS  H15Y 1586   3.923   4.155   8.024  1.1780  2.6584  0.9647
   12SAPS  C316 1587   4.113   4.257   7.995  0.0168  0.1096 -0.3411
   12SAPS  H16X 1588   4.083   4.338   7.926 -0.8111  0.3133  0.2387
   12SAPS  H16Y 1589   4.211   4.224   7.956  0.8986 -1.9974  3.2235
   12SAPS  C317 1590   4.151   4.298   8.135  0.2733 -0.4387  0.1503
   12SAPS  H17X 1591   4.205   4.210   8.178 -1.4571 -1.3794  0.4799
   12SAPS  H17Y 1592   4.069   4.308   8.209 -0.6784  0.4232 -0.9966
   12SAPS  C318 1593   4.239   4.423   8.171 -0.4410 -0.2318  0.0084
   12SAPS  H18X 1594   4.214   4.509   8.105  1.1806 -0.6083 -1.1741
   12SAPS  H18Y 1595   4.346   4.397   8.156 -0.8672 -0.9144 -2.2990
   12SAPS  H18Z 1596   4.231   4.461   8.275 -0.6612 -0.6463  0.1439
   13SAPS     N 1597   3.054   6.645   6.182  0.1062 -0.0786  0.5939
   13SAPS   HN1 1598   3.013   6.737   6.155  0.5558  0.2254  0.9252
   13SAPS   HN2 1599   3.002   6.591   6.254 -0.3164 -0.8623 -0.2810
   13SAPS   HN3 1600   3.155   6.657   6.205  0.3938 -1.1552 -0.0277
   13SAPS   C12 1601   3.046   6.565   6.054 -0.2753 -0.0462 -1.0969
   13SAPS  H12A 1602   2.987   6.478   6.082 -2.2388  0.9713 -1.8649
   13SAPS   C13 1603   2.965   6.642   5.953 -0.1300 -0.3009 -0.7104
   13SAPS  O13A 1604   2.898   6.742   5.999  0.1647  0.7262  0.0362
   13SAPS  O13B 1605   2.924   6.566   5.863 -0.6242 -0.6873 -0.3349
   13SAPS   C11 1606   3.187   6.518   6.003  0.2215 -0.1794  1.0406
   13SAPS  H11A 1607   3.249   6.605   5.971  0.4002 -0.8518 -0.4696
   13SAPS  H11B 1608   3.175   6.448   5.918  0.2517 -0.1484  1.0107
   13SAPS     P 1609   3.429   6.439   6.110 -0.4069  0.4173  0.1333
   13SAPS   O13 1610   3.456   6.369   5.985  0.1769  0.1217 -0.2589
   13SAPS   O14 1611   3.505   6.562   6.148  0.2063  0.2095  0.2990
   13SAPS   O12 1612   3.264   6.460   6.113 -0.4099  0.2052 -0.5126
   13SAPS   O11 1613   3.454   6.342   6.223  0.1969  0.1967  0.5444
   13SAPS    C1 1614   3.358   6.316   6.323  0.0499 -0.0713  0.7708
   13SAPS    HA 1615   3.254   6.302   6.287  0.5093 -0.5036 -0.4596
   13SAPS    HB 1616   3.389   6.220   6.370 -1.2491 -1.5338 -1.1723
   13SAPS    C2 1617   3.375   6.422   6.432  0.1238 -0.1318 -0.0117
   13SAPS    HS 1618   3.348   6.516   6.379  0.5573 -0.2623 -0.4695
   13SAPS   O21 1619   3.513   6.435   6.482 -0.2298  0.7219  0.7830
   13SAPS   C21 1620   3.543   6.549   6.540  0.3050 -0.3016  0.7198
   13SAPS   O22 1621   3.471   6.647   6.538 -0.4382 -0.0152  0.6786
   13SAPS   C22 1622   3.677   6.535   6.611 -0.0149 -0.0841  0.0595
   13SAPS   H2R 1623   3.671   6.435   6.658  0.5063  0.4365  1.2634
   13SAPS   H2S 1624   3.762   6.539   6.539 -0.3998 -0.8037 -0.4556
   13SAPS    C3 1625   3.278   6.391   6.547 -0.3197  0.4603  0.2090
   13SAPS    HX 1626   3.316   6.296   6.592  1.2536  1.1585  0.4103
   13SAPS    HY 1627   3.177   6.369   6.504 -0.5448 -1.1603  1.4481
   13SAPS   O31 1628   3.281   6.484   6.654 -0.3827 -0.4243 -0.6028
   13SAPS   C31 1629   3.213   6.595   6.646  0.3829  0.9182  0.4992
   13SAPS   O32 1630   3.162   6.641   6.545 -0.1567  0.0783 -0.4107
   13SAPS   C32 1631   3.213   6.662   6.783  0.0357 -0.8198 -0.5158
   13SAPS   H2X 1632   3.317   6.675   6.821  0.8621  0.2084 -2.9363
   13SAPS   H2Y 1633   3.154   6.597   6.851 -0.9484 -1.2418 -1.7309
   13SAPS   C23 1634   3.698   6.642   6.718  0.1301  0.2291 -0.2653
   13SAPS   H3R 1635   3.627   6.632   6.803 -0.6847 -2.0163 -1.1258
   13SAPS   H3S 1636   3.683   6.744   6.678  0.9145  0.4640  0.0243
   13SAPS   C24 1637   3.841   6.644   6.779  0.3681  0.0379 -0.0669
   13SAPS   H4R 1638   3.852   6.743   6.830  0.0828 -0.4636  1.0062
   13SAPS   H4S 1639   3.918   6.645   6.699  1.0058  0.3503  0.5385
   13SAPS   C25 1640   3.865   6.533   6.878 -0.7100  0.3889 -0.6390
   13SAPS   H5R 1641   3.838   6.558   6.982 -0.0698 -3.0433  0.5142
   13SAPS   C26 1642   3.926   6.415   6.854  0.3319  0.3049  0.1992
   13SAPS   H6R 1643   3.944   6.346   6.938 -0.4773  1.0110  0.9797
   13SAPS   C27 1644   3.978   6.367   6.726 -0.5501 -0.3972 -0.3596
   13SAPS   H7R 1645   3.905   6.388   6.644  0.3942  1.7010 -0.7441
   13SAPS   H7S 1646   3.978   6.256   6.727  2.6525 -0.4890 -0.2726
   13SAPS   C28 1647   4.106   6.426   6.676 -0.5639  0.0493 -0.5461
   13SAPS   H8R 1648   4.099   6.518   6.616  0.6704 -1.4815 -3.2054
   13SAPS   C29 1649   4.225   6.362   6.673  0.3030  0.3237 -0.2436
   13SAPS   H9R 1650   4.310   6.421   6.636 -0.2941  1.5431  0.2735
   13SAPS  C210 1651   4.250   6.215   6.711 -0.6563 -0.2814 -0.6284
   13SAPS  H10R 1652   4.258   6.147   6.624  1.2319 -0.8457 -0.0662
   13SAPS  H10S 1653   4.172   6.176   6.779 -0.9447  0.6171 -0.4315
   13SAPS  C211 1654   4.385   6.216   6.790 -0.1910 -0.4108 -0.6699
   13SAPS  H11R 1655   4.473   6.200   6.725 -0.3989  3.4596 -2.1958
   13SAPS  C212 1656   4.397   6.222   6.928 -0.6202  0.4812  0.3952
   13SAPS  H12R 1657   4.494   6.242   6.974 -1.5847  0.7895  2.4221
   13SAPS  C213 1658   4.281   6.234   7.025  0.2331  0.1247 -0.8101
   13SAPS  H13R 1659   4.199   6.300   6.991 -0.7083 -0.3915  0.3595
   13SAPS  H13S 1660   4.321   6.283   7.117  2.0532 -0.8934 -0.9994
   13SAPS  C214 1661   4.204   6.100   7.059  0.6902  0.1553  0.0549
   13SAPS  H14R 1662   4.194   6.024   6.981 -0.0991  0.8025 -0.4881
   13SAPS  C215 1663   4.166   6.068   7.182 -0.4245 -0.1090  0.0351
   13SAPS  H15R 1664   4.109   5.974   7.187 -0.2740 -0.3012 -1.5362
   13SAPS  C216 1665   4.174   6.153   7.307  0.0498  0.3310 -0.1197
   13SAPS  H16R 1666   4.151   6.260   7.287 -0.2104  0.4979  1.0238
   13SAPS  H16S 1667   4.275   6.143   7.353 -0.7455 -1.3215  1.3769
   13SAPS  C217 1668   4.078   6.096   7.413  0.1154  0.7335  0.3671
   13SAPS  H17R 1669   3.977   6.110   7.370 -0.2300 -0.8819  0.6137
   13SAPS  H17S 1670   4.081   6.151   7.509 -0.3553 -0.6050  1.1686
   13SAPS  C218 1671   4.100   5.951   7.455  0.4518  0.7893 -0.1726
   13SAPS  H18R 1672   4.180   5.900   7.397  1.2943 -0.7582  2.2395
   13SAPS  H18S 1673   4.014   5.884   7.430  1.6024 -0.0341 -2.1546
   13SAPS  C219 1674   4.121   5.942   7.599 -0.0554 -0.3297 -0.0129
   13SAPS  H19R 1675   4.032   5.967   7.660 -0.2336  0.1449 -0.4559
   13SAPS  H19S 1676   4.191   6.023   7.629 -1.9583  1.0942  0.8305
   13SAPS  C220 1677   4.170   5.798   7.626 -0.2232 -0.0772 -0.0328
   13SAPS  H20R 1678   4.098   5.729   7.577  0.5631  0.1777 -1.6192
   13SAPS  H20S 1679   4.195   5.777   7.732  3.8163 -0.0051 -0.7869
   13SAPS  H20T 1680   4.266   5.773   7.575  0.0299 -1.1077  0.9235
   13SAPS   C33 1681   3.154   6.806   6.772  0.7541  0.5103 -0.1169
   13SAPS   H3X 1682   3.051   6.793   6.733  0.8243  0.7347 -0.3749
   13SAPS   H3Y 1683   3.204   6.866   6.694  1.5096  0.4659  0.3249
   13SAPS   C34 1684   3.167   6.877   6.905  0.9416  0.0542  0.3118
   13SAPS   H4X 1685   3.169   6.985   6.878 -0.4042 -0.0574 -0.3460
   13SAPS   H4Y 1686   3.259   6.852   6.962  0.0356  0.5735  2.0773
   13SAPS   C35 1687   3.050   6.854   7.005 -0.5178  0.0995 -0.4281
   13SAPS   H5X 1688   3.018   6.749   7.021 -1.2879  0.4297  0.2962
   13SAPS   H5Y 1689   2.966   6.910   6.957  0.4692  0.8574 -1.3146
   13SAPS   C36 1690   3.076   6.921   7.145 -0.6440  0.0087  0.7899
   13SAPS   H6X 1691   3.098   7.029   7.131 -0.3815 -0.1408 -0.0303
   13SAPS   H6Y 1692   3.173   6.881   7.182 -0.0735  0.2977 -0.3571
   13SAPS   C37 1693   2.957   6.903   7.234  0.1917  0.5044 -0.1675
   13SAPS   H7X 1694   2.931   6.796   7.252  2.8580  0.2472  3.1563
   13SAPS   H7Y 1695   2.869   6.950   7.185  0.3379 -0.2042 -1.1467
   13SAPS   C38 1696   2.985   6.966   7.370 -0.0360 -0.0091 -0.4974
   13SAPS   H8X 1697   2.892   6.990   7.426 -0.4723 -1.4690 -0.5770
   13SAPS   H8Y 1698   3.035   7.063   7.346  1.0048 -0.0395  1.3787
   13SAPS   C39 1699   3.069   6.875   7.456  0.1698  0.0870 -0.2152
   13SAPS   H9X 1700   3.172   6.886   7.415 -0.4973 -0.4053 -2.1495
   13SAPS   H9Y 1701   3.049   6.767   7.445  1.3598 -0.1103 -0.5513
   13SAPS  C310 1702   3.078   6.925   7.603 -0.3082  0.2627  0.4017
   13SAPS  H10X 1703   3.044   6.841   7.667  0.5653  0.6796  1.4393
   13SAPS  H10Y 1704   3.006   7.003   7.634 -1.4478  0.1431 -1.7542
   13SAPS  C311 1705   3.216   6.980   7.636  0.3072 -0.0427  0.0427
   13SAPS  H11X 1706   3.249   7.056   7.561 -1.5819  1.2510  0.4339
   13SAPS  H11Y 1707   3.284   6.892   7.642  0.3495  0.0418  0.9235
   13SAPS  C312 1708   3.214   7.060   7.769  0.3001  0.2024  0.0025
   13SAPS  H12X 1709   3.191   6.986   7.848  0.5819  1.0714  0.9100
   13SAPS  H12Y 1710   3.135   7.138   7.770 -2.8273 -2.7592  1.7082
   13SAPS  C313 1711   3.354   7.122   7.798 -0.3860  0.2600 -0.0125
   13SAPS  H13X 1712   3.355   7.205   7.724  0.5528 -1.1959 -1.6890
   13SAPS  H13Y 1713   3.441   7.057   7.776  0.3993  1.5615 -0.8872
   13SAPS  C314 1714   3.360   7.184   7.930 -0.6277  0.3368 -0.0126
   13SAPS  H14X 1715   3.364   7.117   8.018 -0.6478 -1.2032 -1.1560
   13SAPS  H14Y 1716   3.266   7.241   7.944 -0.8147  0.5074 -1.7462
   13SAPS  C315 1717   3.477   7.285   7.939 -0.4463 -0.1028 -0.2221
   13SAPS  H15X 1718   3.463   7.369   7.867 -1.8806  2.5094  2.8422
   13SAPS  H15Y 1719   3.570   7.229   7.915 -0.4119 -1.4077  2.6239
   13SAPS  C316 1720   3.499   7.328   8.085  0.7687  0.7146 -0.0665
   13SAPS  H16X 1721   3.517   7.247   8.159 -2.7760  0.5508  0.8107
   13SAPS  H16Y 1722   3.405   7.374   8.123 -1.1087  0.0549 -3.5145
   13SAPS  C317 1723   3.602   7.436   8.107  0.1727 -0.6986  0.1308
   13SAPS  H17X 1724   3.620   7.458   8.214 -0.7719 -2.2719  0.6386
   13SAPS  H17Y 1725   3.552   7.526   8.065  0.2413 -0.5227  0.4199
   13SAPS  C318 1726   3.742   7.411   8.044 -0.2311  0.3610 -0.1116
   13SAPS  H18X 1727   3.816   7.490   8.068 -1.9293  2.0798 -0.2306
   13SAPS  H18Y 1728   3.726   7.420   7.935  0.0391 -0.4528 -0.2204
   13SAPS  H18Z 1729   3.777   7.308   8.068 -3.3285 -0.7526  0.2163
   14SAPS     N 1730   2.928   2.338   5.979 -0.2959 -0.0812 -0.5683
   14SAPS   HN1 1731   2.974   2.254   5.940  1.5310  0.7075 -0.2332
   14SAPS   HN2 1732   3.000   2.396   6.026 -0.6725  0.0085 -0.0934
   14SAPS   HN3 1733   2.859   2.307   6.050  0.1954  0.1027 -0.0013
   14SAPS   C12 1734   2.854   2.415   5.873  0.0000  0.6771  0.1009
   14SAPS  H12A 1735   2.904   2.511   5.871 -0.6935  1.1410 -3.9604
   14SAPS   C13 1736   2.868   2.351   5.729  0.1300 -0.1512  0.2128
   14SAPS  O13A 1737   2.942   2.249   5.712  0.9012  0.5222 -0.1890
   14SAPS  O13B 1738   2.825   2.426   5.639 -0.1439  0.3627  0.1827
   14SAPS   C11 1739   2.705   2.427   5.918 -0.6887 -0.1746  0.0723
   14SAPS  H11A 1740   2.650   2.452   5.824 -1.4303  1.2456  0.8504
   14SAPS  H11B 1741   2.713   2.513   5.987  2.2846 -0.3965  0.1371
   14SAPS     P 1742   2.499   2.296   5.987  0.1830 -0.1783  0.4283
   14SAPS   O13 1743   2.426   2.405   5.925 -0.2527 -0.3979  0.1704
   14SAPS   O14 1744   2.445   2.161   5.963 -0.1694 -0.3048 -0.2329
   14SAPS   O12 1745   2.657   2.308   5.980  0.0479  0.3254  0.6449
   14SAPS   O11 1746   2.492   2.313   6.143 -0.0938  0.0101  0.3950
   14SAPS    C1 1747   2.502   2.445   6.195 -0.4825 -0.2916 -0.3565
   14SAPS    HA 1748   2.590   2.502   6.158  0.6396 -0.9481  1.2165
   14SAPS    HB 1749   2.404   2.495   6.178 -0.0500  1.6221  2.1703
   14SAPS    C2 1750   2.507   2.453   6.348  0.5337  0.5416  0.0548
   14SAPS    HS 1751   2.502   2.561   6.374 -0.2784  0.5659 -0.1867
   14SAPS   O21 1752   2.624   2.403   6.418 -0.0206  0.3500 -0.0192
   14SAPS   C21 1753   2.736   2.447   6.381 -0.1035  0.1455  0.3892
   14SAPS   O22 1754   2.756   2.530   6.291  0.0125 -0.3628 -0.0051
   14SAPS   C22 1755   2.843   2.379   6.465  0.2389  0.1352 -0.1924
   14SAPS   H2R 1756   2.827   2.273   6.493  2.4789  0.0089  0.7999
   14SAPS   H2S 1757   2.928   2.376   6.393 -1.3234  1.0607 -2.1910
   14SAPS    C3 1758   2.390   2.384   6.422  0.0691  0.0810  0.1257
   14SAPS    HX 1759   2.388   2.276   6.400 -0.1546  0.3137 -1.0755
   14SAPS    HY 1760   2.307   2.437   6.370  1.5539  2.9195  0.4369
   14SAPS   O31 1761   2.389   2.414   6.560 -0.3397 -0.3636  0.4588
   14SAPS   C31 1762   2.445   2.329   6.641 -0.1476  0.0390 -0.2299
   14SAPS   O32 1763   2.512   2.228   6.612 -0.0877 -0.4927  0.6006
   14SAPS   C32 1764   2.378   2.354   6.773 -0.3231  0.1076  0.2802
   14SAPS   H2X 1765   2.272   2.320   6.776  0.1611 -1.4254  1.8955
   14SAPS   H2Y 1766   2.375   2.464   6.786  1.6868  0.3944 -1.2614
   14SAPS   C23 1767   2.894   2.454   6.590 -0.1285 -0.0059  0.1130
   14SAPS   H3R 1768   2.917   2.559   6.561 -0.8299  0.7005  1.9831
   14SAPS   H3S 1769   2.992   2.414   6.624 -0.1957  0.0056  0.3223
   14SAPS   C24 1770   2.794   2.455   6.705  0.9714  0.2530 -0.4016
   14SAPS   H4R 1771   2.698   2.488   6.661  0.6196  0.2998  0.3812
   14SAPS   H4S 1772   2.828   2.535   6.774  3.4263 -1.0091 -0.0123
   14SAPS   C25 1773   2.783   2.325   6.791  0.3703  0.3129  0.8695
   14SAPS   H5R 1774   2.737   2.236   6.746  3.2501 -0.8206 -0.0475
   14SAPS   C26 1775   2.814   2.317   6.918 -0.4612 -0.4377  0.1860
   14SAPS   H6R 1776   2.828   2.217   6.962 -0.8384 -0.9260 -0.7709
   14SAPS   C27 1777   2.870   2.424   7.014  0.1903  0.4731 -0.3303
   14SAPS   H7R 1778   2.893   2.518   6.960  1.3154  0.3473 -0.0904
   14SAPS   H7S 1779   2.965   2.389   7.059 -0.1795 -0.4333 -0.2249
   14SAPS   C28 1780   2.767   2.443   7.119 -0.8692  0.0476 -0.1020
   14SAPS   H8R 1781   2.694   2.523   7.103  0.0892  0.6544 -1.7028
   14SAPS   C29 1782   2.762   2.370   7.235 -0.4205 -0.0245  0.6231
   14SAPS   H9R 1783   2.685   2.405   7.305  0.8228  1.2373  1.4236
   14SAPS  C210 1784   2.848   2.254   7.282 -0.0575 -0.4473  0.9252
   14SAPS  H10R 1785   2.920   2.282   7.362  0.2066 -0.5337  0.7193
   14SAPS  H10S 1786   2.909   2.205   7.203 -3.4260 -1.3544 -1.3133
   14SAPS  C211 1787   2.763   2.145   7.336  0.0259 -0.9162  0.9313
   14SAPS  H11R 1788   2.678   2.105   7.279 -0.6989 -0.4626  1.6811
   14SAPS  C212 1789   2.746   2.105   7.462 -0.0199  0.4291 -0.0612
   14SAPS  H12R 1790   2.672   2.027   7.484  0.0536  0.1892 -0.6561
   14SAPS  C213 1791   2.830   2.159   7.580 -0.2555  0.4541  0.0104
   14SAPS  H13R 1792   2.791   2.260   7.606  0.1360  0.3568  1.0191
   14SAPS  H13S 1793   2.935   2.168   7.548  0.2386 -1.4311  0.9424
   14SAPS  C214 1794   2.825   2.076   7.706 -0.6663 -0.1823 -0.0460
   14SAPS  H14R 1795   2.736   2.012   7.720  0.2046 -1.6018 -0.7011
   14SAPS  C215 1796   2.918   2.067   7.807  0.4983  0.2615 -0.0169
   14SAPS  H15R 1797   2.881   2.012   7.895  1.4433 -2.7829 -1.4093
   14SAPS  C216 1798   3.055   2.144   7.806  0.4252  0.1689 -0.3411
   14SAPS  H16R 1799   3.041   2.241   7.859 -3.2072  0.8296 -2.1789
   14SAPS  H16S 1800   3.096   2.158   7.704  0.6614 -2.3499 -0.6485
   14SAPS  C217 1801   3.161   2.060   7.890  0.1239  0.2358  0.9218
   14SAPS  H17R 1802   3.206   1.977   7.831  2.4941  0.8503  1.7239
   14SAPS  H17S 1803   3.118   2.002   7.974 -1.6470 -1.9251 -1.3546
   14SAPS  C218 1804   3.279   2.142   7.934 -0.7410 -0.0600  0.1027
   14SAPS  H18R 1805   3.247   2.228   7.997  0.2904 -0.3412  1.0532
   14SAPS  H18S 1806   3.324   2.196   7.847 -1.2615  2.8302  1.5124
   14SAPS  C219 1807   3.376   2.058   8.013 -0.3723  0.1102 -0.6155
   14SAPS  H19R 1808   3.398   1.961   7.962  0.4207  0.8077 -1.6454
   14SAPS  H19S 1809   3.323   2.020   8.102  0.4084 -0.5312 -0.4105
   14SAPS  C220 1810   3.501   2.121   8.077  0.5445 -0.8921 -0.1647
   14SAPS  H20R 1811   3.559   2.046   8.133  0.6708  1.5174  3.2507
   14SAPS  H20S 1812   3.468   2.200   8.148 -0.3612 -0.1587 -1.3524
   14SAPS  H20T 1813   3.562   2.173   7.999  0.0598  0.2536  0.1900
   14SAPS   C33 1814   2.441   2.280   6.891  0.6556  1.0378 -0.2188
   14SAPS   H3X 1815   2.551   2.297   6.899  1.3265 -2.4976 -0.0313
   14SAPS   H3Y 1816   2.416   2.173   6.870  0.4154  1.5239 -2.7268
   14SAPS   C34 1817   2.374   2.319   7.025  0.2404 -0.5538 -0.0381
   14SAPS   H4X 1818   2.267   2.291   7.019  0.2700 -0.4146 -2.0615
   14SAPS   H4Y 1819   2.365   2.430   7.031 -1.2106 -0.5294 -1.8390
   14SAPS   C35 1820   2.424   2.249   7.150 -0.1330  0.4970  0.0049
   14SAPS   H5X 1821   2.533   2.269   7.162 -0.1979  0.0725  1.4250
   14SAPS   H5Y 1822   2.419   2.141   7.122  1.4464  0.2987  0.3679
   14SAPS   C36 1823   2.356   2.294   7.273 -0.2014  0.2729 -0.0061
   14SAPS   H6X 1824   2.249   2.283   7.247  0.0923 -0.5646 -0.9521
   14SAPS   H6Y 1825   2.371   2.400   7.305 -1.1028  0.9454 -1.6674
   14SAPS   C37 1826   2.388   2.212   7.400 -0.1459 -0.3093 -0.4208
   14SAPS   H7X 1827   2.498   2.222   7.412 -0.0843  1.3529 -1.9541
   14SAPS   H7Y 1828   2.359   2.104   7.396 -0.8770 -0.1077 -0.8786
   14SAPS   C38 1829   2.314   2.269   7.518  0.4932  0.6241 -0.2588
   14SAPS   H8X 1830   2.215   2.219   7.509  2.1152 -2.7840 -0.6009
   14SAPS   H8Y 1831   2.301   2.379   7.513 -0.5812  0.5456  0.4951
   14SAPS   C39 1832   2.354   2.241   7.657 -0.2238  0.0667 -0.6052
   14SAPS   H9X 1833   2.316   2.140   7.684 -2.5823  0.4979 -1.9940
   14SAPS   H9Y 1834   2.303   2.304   7.733 -1.5120 -0.9076 -0.6309
   14SAPS  C310 1835   2.503   2.245   7.683 -0.3781  0.9700 -0.2122
   14SAPS  H10X 1836   2.540   2.333   7.627 -0.2163 -1.0897 -3.5954
   14SAPS  H10Y 1837   2.561   2.156   7.652  1.4874  0.1557  4.7214
   14SAPS  C311 1838   2.536   2.264   7.828 -0.4013 -0.2564 -0.0899
   14SAPS  H11X 1839   2.500   2.364   7.861  0.2378 -0.0812  0.0875
   14SAPS  H11Y 1840   2.644   2.275   7.851 -0.2127 -3.6184  1.2966
   14SAPS  C312 1841   2.477   2.146   7.916 -0.1259 -0.0707 -0.1105
   14SAPS  H12X 1842   2.457   2.073   7.835  1.2170  1.6351 -2.0850
   14SAPS  H12Y 1843   2.381   2.167   7.968 -0.2657  0.1691 -0.4650
   14SAPS  C313 1844   2.579   2.096   8.013 -0.2545 -0.6182 -0.0873
   14SAPS  H13X 1845   2.583   2.183   8.082  1.4694 -0.0981 -0.8114
   14SAPS  H13Y 1846   2.680   2.083   7.969  0.6081 -0.5501  1.7552
   14SAPS  C314 1847   2.546   1.962   8.074  0.4821  0.1645  0.5704
   14SAPS  H14X 1848   2.529   1.880   8.001  1.1017  0.5764 -0.0429
   14SAPS  H14Y 1849   2.448   1.982   8.124  1.1246  1.1063  1.5090
   14SAPS  C315 1850   2.656   1.912   8.174  0.3407  0.0177 -0.0464
   14SAPS  H15X 1851   2.599   1.827   8.216  1.1468  0.3358  1.8085
   14SAPS  H15Y 1852   2.672   1.968   8.269  1.4118 -1.4506  0.6822
   14SAPS  C316 1853   2.787   1.874   8.111  0.6982  0.3640  0.8841
   14SAPS  H16X 1854   2.851   1.965   8.100 -1.7600  2.1122  0.0540
   14SAPS  H16Y 1855   2.769   1.832   8.009  1.8060  1.3343  0.2595
   14SAPS  C317 1856   2.869   1.774   8.197  0.0257 -0.3736 -0.3121
   14SAPS  H17X 1857   2.790   1.709   8.243  1.5309 -0.4517  2.3516
   14SAPS  H17Y 1858   2.909   1.835   8.281  0.0988  0.6163 -1.0506
   14SAPS  C318 1859   2.984   1.698   8.126  0.8936  0.0859  0.0523
   14SAPS  H18X 1860   2.943   1.652   8.033  2.6274 -2.6161  0.5195
   14SAPS  H18Y 1861   3.037   1.617   8.181 -0.7695 -1.0461  0.0497
   14SAPS  H18Z 1862   3.054   1.780   8.100  0.1540  0.3362 -1.2298
   15SAPS     N 1863   2.802   2.009   5.709  0.4207  0.2534  1.1237
   15SAPS   HN1 1864   2.884   2.071   5.724 -0.4771  1.4632  1.2045
   15SAPS   HN2 1865   2.812   1.947   5.626 -1.1303 -0.5729  1.5202
   15SAPS   HN3 1866   2.708   2.053   5.696  0.2830 -0.4484 -0.5333
   15SAPS   C12 1867   2.787   1.922   5.833  0.1804 -0.2189  0.4084
   15SAPS  H12A 1868   2.680   1.912   5.846  0.0961 -0.7711 -0.6456
   15SAPS   C13 1869   2.832   1.785   5.815 -0.4541 -0.5246 -0.5878
   15SAPS  O13A 1870   2.902   1.749   5.718  0.1577 -0.2144  0.1176
   15SAPS  O13B 1871   2.811   1.710   5.914  0.3530 -0.0788  0.4192
   15SAPS   C11 1872   2.858   1.985   5.945 -0.1593 -0.2497 -0.2676
   15SAPS  H11A 1873   2.854   1.923   6.038 -1.3526  1.9667  1.2501
   15SAPS  H11B 1874   2.799   2.071   5.984 -0.6348 -0.8072  0.2781
   15SAPS     P 1875   3.125   1.985   5.967 -0.3825  0.1992  0.2288
   15SAPS   O13 1876   3.100   1.875   6.058 -1.0050  0.6070  0.4042
   15SAPS   O14 1877   3.222   1.971   5.858  0.0495  0.4021 -0.5839
   15SAPS   O12 1878   2.990   2.040   5.910  0.3233 -0.2767  0.2013
   15SAPS   O11 1879   3.154   2.112   6.051 -0.5387  0.7258 -0.1580
   15SAPS    C1 1880   3.266   2.197   6.040 -0.8043 -0.3554  0.6003
   15SAPS    HA 1881   3.343   2.149   5.976 -1.3406 -0.1973 -0.1704
   15SAPS    HB 1882   3.214   2.291   6.012 -2.1698 -1.1943  0.1966
   15SAPS    C2 1883   3.338   2.230   6.175 -0.1865  0.3611 -0.1796
   15SAPS    HS 1884   3.402   2.141   6.195 -1.3855 -0.4240  0.3056
   15SAPS   O21 1885   3.239   2.239   6.277 -0.0030 -0.1479 -0.2650
   15SAPS   C21 1886   3.224   2.133   6.362 -0.6643  0.2528 -0.2211
   15SAPS   O22 1887   3.289   2.031   6.362  0.6224  0.0929  0.2307
   15SAPS   C22 1888   3.138   2.171   6.475  0.8375 -0.9805  0.3269
   15SAPS   H2R 1889   3.178   2.255   6.535  0.7211 -0.0991 -0.8050
   15SAPS   H2S 1890   3.042   2.202   6.429  0.0375 -3.9676 -0.2377
   15SAPS    C3 1891   3.422   2.355   6.153  0.0363 -0.8993 -0.5182
   15SAPS    HX 1892   3.346   2.433   6.132  2.1327  1.2221 -0.5718
   15SAPS    HY 1893   3.485   2.340   6.063 -0.4469 -1.1041 -0.8266
   15SAPS   O31 1894   3.503   2.376   6.265  0.0077 -0.2983  0.5456
   15SAPS   C31 1895   3.457   2.464   6.358  0.6512 -0.0906 -0.1892
   15SAPS   O32 1896   3.347   2.516   6.347  0.4957  0.7038  0.1174
   15SAPS   C32 1897   3.552   2.473   6.475  0.1775  0.6171  0.2997
   15SAPS   H2X 1898   3.659   2.477   6.443 -0.4131 -1.0011 -2.1525
   15SAPS   H2Y 1899   3.562   2.374   6.525 -0.0993  0.9161  0.9545
   15SAPS   C23 1900   3.115   2.051   6.576 -0.5691 -0.0392  0.0803
   15SAPS   H3R 1901   3.216   2.020   6.610 -0.6032  0.0424  0.2639
   15SAPS   H3S 1902   3.053   1.976   6.523 -1.4637 -0.3561  1.4916
   15SAPS   C24 1903   3.040   2.103   6.696 -0.2787  0.2321 -0.1407
   15SAPS   H4R 1904   2.930   2.110   6.681 -0.2461  1.7715  0.1804
   15SAPS   H4S 1905   3.060   2.211   6.713  1.6799  0.2897 -2.4041
   15SAPS   C25 1906   3.089   2.050   6.832  1.1735  0.6717  1.2421
   15SAPS   H5R 1907   3.041   1.958   6.868  2.7093 -1.2085 -1.1483
   15SAPS   C26 1908   3.189   2.098   6.906 -1.1329  0.0318 -0.7121
   15SAPS   H6R 1909   3.200   2.060   7.008 -1.1018  0.5774 -0.5080
   15SAPS   C27 1910   3.281   2.217   6.891 -0.4001 -0.5078  0.4191
   15SAPS   H7R 1911   3.258   2.267   6.795 -0.6004  0.4768  0.9672
   15SAPS   H7S 1912   3.388   2.189   6.885 -0.0493  0.8991 -0.2257
   15SAPS   C28 1913   3.249   2.331   6.987 -0.0038  0.4455 -0.2713
   15SAPS   H8R 1914   3.207   2.420   6.939 -1.9847 -0.4885 -0.3800
   15SAPS   C29 1915   3.271   2.339   7.119  0.5948 -0.1401 -0.1155
   15SAPS   H9R 1916   3.228   2.418   7.183  0.2397 -2.2374  2.4229
   15SAPS  C210 1917   3.327   2.234   7.210 -0.2939  0.1094  0.3810
   15SAPS  H10R 1918   3.409   2.281   7.268 -0.7883 -0.1565  1.3049
   15SAPS  H10S 1919   3.375   2.157   7.145 -0.9441  0.6322 -0.7554
   15SAPS  C211 1920   3.229   2.161   7.299 -0.3268  0.5024 -0.0416
   15SAPS  H11R 1921   3.139   2.127   7.246  0.0017  0.1502 -0.3794
   15SAPS  C212 1922   3.245   2.142   7.429 -0.9754 -0.9277 -0.6991
   15SAPS  H12R 1923   3.163   2.100   7.489 -1.0478  0.8343  0.4759
   15SAPS  C213 1924   3.361   2.201   7.509  0.2971 -0.1271 -0.2564
   15SAPS  H13R 1925   3.459   2.161   7.472  0.8413  0.1887  0.8121
   15SAPS  H13S 1926   3.354   2.147   7.606  0.9160 -0.7632 -0.5559
   15SAPS  C214 1927   3.369   2.350   7.533  0.2190  0.1693  0.0214
   15SAPS  H14R 1928   3.296   2.406   7.472  1.9823 -0.3247 -2.7401
   15SAPS  C215 1929   3.457   2.409   7.615  0.1889  0.1536  0.1364
   15SAPS  H15R 1930   3.443   2.517   7.631 -0.4600 -0.2297  2.6835
   15SAPS  C216 1931   3.572   2.343   7.692 -0.3269  0.9568  0.3947
   15SAPS  H16R 1932   3.548   2.247   7.741 -1.2228  0.6493 -0.6099
   15SAPS  H16S 1933   3.606   2.407   7.776 -1.2728  1.2633  0.5542
   15SAPS  C217 1934   3.693   2.310   7.598  0.0509 -0.9170  1.4369
   15SAPS  H17R 1935   3.721   2.409   7.557 -0.3971 -1.4827 -0.3127
   15SAPS  H17S 1936   3.662   2.249   7.510  0.2842  1.9179 -0.7349
   15SAPS  C218 1937   3.823   2.256   7.659 -0.0753 -0.3632  0.6770
   15SAPS  H18R 1938   3.790   2.161   7.706 -2.6337  0.0246 -0.2006
   15SAPS  H18S 1939   3.864   2.326   7.735 -0.8467  2.5326 -1.3981
   15SAPS  C219 1940   3.936   2.233   7.552 -0.4552  0.1074 -0.5168
   15SAPS  H19R 1941   3.966   2.336   7.525 -1.9817  0.4186 -1.1547
   15SAPS  H19S 1942   3.896   2.181   7.463 -1.3481  2.5957 -1.6564
   15SAPS  C220 1943   4.051   2.164   7.621  0.6388 -0.4603 -0.3825
   15SAPS  H20R 1944   4.119   2.133   7.538 -0.8198 -0.4254 -1.6458
   15SAPS  H20S 1945   4.019   2.076   7.680 -0.8440  0.8606  0.8806
   15SAPS  H20T 1946   4.108   2.219   7.698  0.8733 -2.0608  0.6331
   15SAPS   C33 1947   3.500   2.582   6.564 -0.3026  0.8152 -0.5026
   15SAPS   H3X 1948   3.393   2.575   6.592  0.0094 -0.5149  0.5119
   15SAPS   H3Y 1949   3.517   2.678   6.512 -0.4432 -0.9445 -4.0985
   15SAPS   C34 1950   3.575   2.582   6.697 -0.0634 -0.4662  0.1806
   15SAPS   H4X 1951   3.561   2.680   6.749 -1.6831 -0.1497 -0.8013
   15SAPS   H4Y 1952   3.683   2.591   6.671  0.4972 -0.5554  2.2770
   15SAPS   C35 1953   3.542   2.466   6.793 -0.5149  0.5053 -0.6194
   15SAPS   H5X 1954   3.531   2.369   6.739 -2.0876  1.3496 -1.9410
   15SAPS   H5Y 1955   3.439   2.497   6.824 -0.0206  1.9556 -0.3397
   15SAPS   C36 1956   3.628   2.460   6.917 -0.1817  0.4117 -0.5416
   15SAPS   H6X 1957   3.732   2.454   6.879 -0.4214 -2.7005 -1.0066
   15SAPS   H6Y 1958   3.602   2.376   6.986  1.3927  0.5120  0.2243
   15SAPS   C37 1959   3.634   2.589   7.000 -0.1250  0.0585 -0.0544
   15SAPS   H7X 1960   3.534   2.635   7.018  0.3862  1.1176  0.1629
   15SAPS   H7Y 1961   3.690   2.665   6.942 -1.5165  1.0069 -0.2129
   15SAPS   C38 1962   3.684   2.567   7.146 -0.0028  0.0410  1.2059
   15SAPS   H8X 1963   3.778   2.512   7.127  0.5802  1.4275 -0.1949
   15SAPS   H8Y 1964   3.606   2.519   7.209  1.0802 -0.6411  2.0482
   15SAPS   C39 1965   3.724   2.697   7.216  0.3924 -0.1789  0.6036
   15SAPS   H9X 1966   3.631   2.759   7.216  0.5418  0.2022  3.4176
   15SAPS   H9Y 1967   3.786   2.765   7.154 -3.2015  1.8852 -1.0759
   15SAPS  C310 1968   3.764   2.684   7.359 -0.5854 -0.2166 -0.4100
   15SAPS  H10X 1969   3.852   2.617   7.370 -0.1943  0.4192  0.5386
   15SAPS  H10Y 1970   3.682   2.634   7.415 -1.5355 -0.6555 -2.1267
   15SAPS  C311 1971   3.800   2.824   7.420 -0.2003 -0.1528  0.0377
   15SAPS  H11X 1972   3.754   2.903   7.356  0.2640  0.5142  0.5036
   15SAPS  H11Y 1973   3.910   2.831   7.402 -0.2914  0.7627 -0.2436
   15SAPS  C312 1974   3.769   2.850   7.564  0.1357 -0.1200 -0.2493
   15SAPS  H12X 1975   3.659   2.856   7.573  0.1915  0.9185 -0.2005
   15SAPS  H12Y 1976   3.810   2.951   7.584  1.0661 -0.1388 -1.9088
   15SAPS  C313 1977   3.820   2.753   7.663  0.1242  0.1452 -0.0629
   15SAPS  H13X 1978   3.929   2.740   7.645  0.1918 -0.7154  0.8775
   15SAPS  H13Y 1979   3.782   2.649   7.673 -0.1277  0.2138 -0.3059
   15SAPS  C314 1980   3.807   2.808   7.811 -0.5219 -1.1084 -0.2600
   15SAPS  H14X 1981   3.700   2.836   7.824  0.0381  2.1078 -1.4939
   15SAPS  H14Y 1982   3.859   2.906   7.818 -1.6236 -0.6231  2.7651
   15SAPS  C315 1983   3.865   2.733   7.932  0.8812 -0.8950 -0.1676
   15SAPS  H15X 1984   3.852   2.801   8.018  1.4801 -0.8070 -0.1453
   15SAPS  H15Y 1985   3.975   2.721   7.919  1.3873  1.5835  1.2544
   15SAPS  C316 1986   3.815   2.588   7.951  0.3800  0.9050  0.2105
   15SAPS  H16X 1987   3.820   2.532   7.855 -0.6113  0.8908  0.1609
   15SAPS  H16Y 1988   3.705   2.583   7.965  0.2711 -0.5141 -0.9032
   15SAPS  C317 1989   3.873   2.505   8.065  0.2982  0.7823 -0.4025
   15SAPS  H17X 1990   3.870   2.569   8.156 -1.6842 -1.3779  1.1573
   15SAPS  H17Y 1991   3.979   2.483   8.042  0.4024  2.2595 -1.4831
   15SAPS  C318 1992   3.798   2.378   8.090  0.1297 -0.4436 -0.2630
   15SAPS  H18X 1993   3.857   2.310   8.156 -0.0198  0.5679  0.9464
   15SAPS  H18Y 1994   3.804   2.318   7.996  1.9314 -0.2124 -0.3244
   15SAPS  H18Z 1995   3.695   2.392   8.128 -0.7220 -1.9317 -1.8576
   16SAPS     N 1996   5.476   4.804   6.187 -0.1204  0.9262  0.1367
   16SAPS   HN1 1997   5.514   4.853   6.104  1.3467  2.4535  1.6400
   16SAPS   HN2 1998   5.436   4.883   6.240  0.9312  1.3140  0.3702
   16SAPS   HN3 1999   5.546   4.760   6.250  0.2585  2.8934  1.1493
   16SAPS   C12 2000   5.374   4.703   6.158  0.1450  0.0382  0.6565
   16SAPS  H12A 2001   5.308   4.726   6.076 -1.5223 -1.0272  1.6493
   16SAPS   C13 2002   5.418   4.556   6.130 -0.3441 -0.5019  0.9311
   16SAPS  O13A 2003   5.545   4.535   6.128  0.4456  0.1225  0.0852
   16SAPS  O13B 2004   5.328   4.469   6.110  1.0707  0.2934  0.4629
   16SAPS   C11 2005   5.294   4.706   6.293 -0.8398 -0.1935  0.7693
   16SAPS  H11A 2006   5.364   4.667   6.370  1.0185 -1.0160 -1.2143
   16SAPS  H11B 2007   5.210   4.637   6.272  0.4246 -1.6975  0.4994
   16SAPS     P 2008   5.117   4.863   6.417 -0.5422 -0.5390  0.6449
   16SAPS   O13 2009   5.102   5.009   6.411 -0.0754 -0.2243  0.6168
   16SAPS   O14 2010   5.003   4.776   6.390 -0.2479  0.1274  0.3965
   16SAPS   O12 2011   5.237   4.840   6.317  0.1015  0.5293 -0.2163
   16SAPS   O11 2012   5.179   4.822   6.556  0.4498  0.9338  0.3273
   16SAPS    C1 2013   5.294   4.887   6.614 -0.0872 -0.0446 -0.1153
   16SAPS    HA 2014   5.377   4.816   6.633 -0.3670  0.1221  1.9607
   16SAPS    HB 2015   5.346   4.953   6.540  0.3189 -0.2524 -0.0176
   16SAPS    C2 2016   5.262   4.959   6.750  0.5119 -0.6411 -0.0221
   16SAPS    HS 2017   5.280   4.887   6.834 -0.0315 -1.4564 -0.5861
   16SAPS   O21 2018   5.130   5.022   6.754  0.3547 -0.0437  0.0145
   16SAPS   C21 2019   5.038   4.937   6.799 -0.0223  0.2462 -0.0139
   16SAPS   O22 2020   5.047   4.817   6.799 -0.4346  0.8050 -0.1534
   16SAPS   C22 2021   4.920   5.017   6.852  0.5946  0.3546 -0.7732
   16SAPS   H2R 2022   4.957   5.087   6.931 -1.2441 -0.1219  0.5621
   16SAPS   H2S 2023   4.879   5.076   6.767 -0.7750 -0.8700 -0.9868
   16SAPS    C3 2024   5.372   5.069   6.782  0.5473  0.3733 -0.4777
   16SAPS    HX 2025   5.384   5.138   6.696  0.9206  0.0204 -0.7068
   16SAPS    HY 2026   5.467   5.012   6.788 -1.0993 -2.4188  0.6434
   16SAPS   O31 2027   5.344   5.151   6.900  0.2325 -0.2347 -0.1919
   16SAPS   C31 2028   5.364   5.088   7.013 -0.4570  0.7906 -0.2708
   16SAPS   O32 2029   5.417   4.975   7.028 -0.2072  0.0434  0.4387
   16SAPS   C32 2030   5.306   5.179   7.123  0.3556  0.1679 -0.0922
   16SAPS   H2X 2031   5.220   5.236   7.080  0.0401 -0.5331 -0.4031
   16SAPS   H2Y 2032   5.379   5.259   7.149 -0.2537  0.9182 -0.6446
   16SAPS   C23 2033   4.809   4.925   6.903  0.1711 -0.0590  0.0523
   16SAPS   H3R 2034   4.846   4.853   6.979  2.4695 -1.0977 -1.9193
   16SAPS   H3S 2035   4.771   4.860   6.821 -0.0241 -1.1418  0.9655
   16SAPS   C24 2036   4.697   5.012   6.976 -0.3451  0.5437  0.3915
   16SAPS   H4R 2037   4.596   4.967   6.973  0.7738 -2.0800 -1.5942
   16SAPS   H4S 2038   4.674   5.094   6.903  0.5355 -0.4672 -1.0747
   16SAPS   C25 2039   4.733   5.071   7.116 -0.4262 -0.5473 -0.0347
   16SAPS   H5R 2040   4.791   5.164   7.101 -0.6590 -0.5903 -1.3764
   16SAPS   C26 2041   4.704   5.026   7.238  0.4140  0.3271  0.1572
   16SAPS   H6R 2042   4.744   5.074   7.329 -0.3591  1.2575  0.0244
   16SAPS   C27 2043   4.620   4.904   7.267  0.7087  0.2961  0.2850
   16SAPS   H7R 2044   4.661   4.854   7.358 -0.2429 -1.3381 -0.1382
   16SAPS   H7S 2045   4.628   4.832   7.183 -3.2381 -1.4373  1.1532
   16SAPS   C28 2046   4.481   4.927   7.280  0.0285 -0.2394 -0.4532
   16SAPS   H8R 2047   4.427   4.915   7.185 -2.3356  1.5261  0.5431
   16SAPS   C29 2048   4.405   4.957   7.392 -0.0179 -0.1678  0.0430
   16SAPS   H9R 2049   4.296   4.967   7.386  0.1266  0.3208 -3.5307
   16SAPS  C210 2050   4.458   4.986   7.531  0.4190 -0.6182  0.0514
   16SAPS  H10R 2051   4.569   4.976   7.536  0.5976  0.6971 -0.8108
   16SAPS  H10S 2052   4.423   4.902   7.593 -0.7351  0.9890  1.6775
   16SAPS  C211 2053   4.424   5.117   7.599  0.2405 -0.2550 -0.8986
   16SAPS  H11R 2054   4.373   5.194   7.539  0.9307  0.3728 -0.7017
   16SAPS  C212 2055   4.405   5.137   7.733  0.4010 -0.4010  0.5979
   16SAPS  H12R 2056   4.380   5.242   7.755 -1.4665 -0.8200  0.6000
   16SAPS  C213 2057   4.428   5.049   7.847 -0.2521  0.3851 -0.1371
   16SAPS  H13R 2058   4.513   4.983   7.818  1.0711  1.8848  0.1567
   16SAPS  H13S 2059   4.341   4.981   7.859  0.0166  0.2043  0.8779
   16SAPS  C214 2060   4.469   5.103   7.975 -0.1038 -0.1335 -0.9947
   16SAPS  H14R 2061   4.579   5.103   7.983  0.0510 -0.4186 -2.6492
   16SAPS  C215 2062   4.402   5.146   8.084 -0.6744  0.2236 -0.1215
   16SAPS  H15R 2063   4.455   5.218   8.148 -0.8607  1.8479 -1.6940
   16SAPS  C216 2064   4.254   5.144   8.103  0.2748 -0.2997 -0.3781
   16SAPS  H16R 2065   4.221   5.038   8.109 -0.2487 -0.1555 -0.6044
   16SAPS  H16S 2066   4.206   5.186   8.012 -0.1706 -1.6341 -0.7904
   16SAPS  C217 2067   4.222   5.232   8.225  0.2135 -0.0209  0.2867
   16SAPS  H17R 2068   4.114   5.258   8.236  0.2788 -0.1079  1.1604
   16SAPS  H17S 2069   4.277   5.328   8.208 -1.4079  0.7637 -0.8479
   16SAPS  C218 2070   4.257   5.174   8.360 -0.3512  0.1356 -0.7872
   16SAPS  H18R 2071   4.363   5.143   8.350 -0.1655  0.6111 -0.3793
   16SAPS  H18S 2072   4.192   5.087   8.383 -0.8028  1.0556  1.7882
   16SAPS  C219 2073   4.257   5.281   8.476  0.1161 -0.3024 -0.1513
   16SAPS  H19R 2074   4.161   5.336   8.473  0.4948  0.3323 -0.9282
   16SAPS  H19S 2075   4.332   5.355   8.441  0.0186 -0.6285 -1.0682
   16SAPS  C220 2076   4.288   5.235   8.618 -0.1766  0.2409 -0.4301
   16SAPS  H20R 2077   4.307   5.320   8.687 -1.6510  0.1825  0.0832
   16SAPS  H20S 2078   4.369   5.160   8.624 -1.5783 -1.2705  0.2543
   16SAPS  H20T 2079   4.205   5.167   8.645  1.9107 -1.5112  2.1478
   16SAPS   C33 2080   5.268   5.102   7.253 -0.1316 -0.1315 -0.4389
   16SAPS   H3X 2081   5.350   5.038   7.293  0.6817  0.9874 -0.2766
   16SAPS   H3Y 2082   5.189   5.031   7.221  0.5671 -0.3084 -1.8569
   16SAPS   C34 2083   5.231   5.196   7.367 -0.6339 -0.4059  0.8387
   16SAPS   H4X 2084   5.143   5.261   7.347  0.2856  0.2705 -1.3038
   16SAPS   H4Y 2085   5.318   5.265   7.371  0.0109 -1.1987  0.5820
   16SAPS   C35 2086   5.211   5.131   7.501  0.0727  0.4837 -0.1478
   16SAPS   H5X 2087   5.294   5.059   7.515  0.7559  0.7995 -2.1853
   16SAPS   H5Y 2088   5.118   5.070   7.494  0.6817 -0.3855 -0.7249
   16SAPS   C36 2089   5.223   5.237   7.620 -0.4913 -0.0098  0.0622
   16SAPS   H6X 2090   5.156   5.325   7.609  0.3033  0.5156 -0.7498
   16SAPS   H6Y 2091   5.325   5.280   7.621  0.6201 -2.4498 -0.7063
   16SAPS   C37 2092   5.191   5.176   7.757  0.2774 -0.3319  0.3289
   16SAPS   H7X 2093   5.250   5.239   7.827 -0.7775  1.1637 -0.0610
   16SAPS   H7Y 2094   5.219   5.070   7.769 -0.5514 -0.7434 -1.1284
   16SAPS   C38 2095   5.041   5.195   7.801  1.0088  0.0314  0.4111
   16SAPS   H8X 2096   4.968   5.139   7.738  2.0390  0.9769 -1.7183
   16SAPS   H8Y 2097   5.019   5.302   7.784 -0.4364 -0.3870 -0.6184
   16SAPS   C39 2098   5.026   5.154   7.949  0.4991 -0.2946  0.2381
   16SAPS   H9X 2099   5.087   5.230   8.003  1.0295 -1.4399  1.2800
   16SAPS   H9Y 2100   5.079   5.060   7.972 -0.9313 -1.2780 -0.3841
   16SAPS  C310 2101   4.881   5.168   7.996  0.0504 -0.0425 -0.0250
   16SAPS  H10X 2102   4.816   5.095   7.942 -0.1193  0.5480 -0.6407
   16SAPS  H10Y 2103   4.834   5.268   7.984  3.0512  1.4124 -0.3958
   16SAPS  C311 2104   4.888   5.150   8.147  1.0899  0.7975 -0.2445
   16SAPS  H11X 2105   4.944   5.239   8.182 -0.3801  1.8678 -0.4928
   16SAPS  H11Y 2106   4.940   5.058   8.180  0.8645  1.5789  2.5627
   16SAPS  C312 2107   4.744   5.147   8.201 -0.1208 -0.1388 -0.4459
   16SAPS  H12X 2108   4.697   5.063   8.144 -0.3059  0.3940 -1.0912
   16SAPS  H12Y 2109   4.695   5.239   8.163  1.5521  0.7938 -0.4221
   16SAPS  C313 2110   4.730   5.137   8.352  0.2539 -0.0893 -0.5044
   16SAPS  H13X 2111   4.770   5.041   8.392 -0.5444  0.4240  1.6928
   16SAPS  H13Y 2112   4.622   5.139   8.375  0.5183 -1.0093  0.9174
   16SAPS  C314 2113   4.798   5.253   8.437  0.4545  0.0112 -0.4096
   16SAPS  H14X 2114   4.742   5.347   8.418  1.0252 -0.1301 -3.2191
   16SAPS  H14Y 2115   4.904   5.269   8.407  0.6886  2.9475  1.6011
   16SAPS  C315 2116   4.817   5.216   8.586 -0.0129  0.0661  0.0122
   16SAPS  H15X 2117   4.885   5.291   8.630 -1.7049 -0.1862  3.4152
   16SAPS  H15Y 2118   4.859   5.113   8.594 -1.5120 -0.6688 -0.9619
   16SAPS  C316 2119   4.678   5.214   8.653 -0.1440  0.4225 -0.5596
   16SAPS  H16X 2120   4.618   5.140   8.595  1.3452 -0.6093 -0.8455
   16SAPS  H16Y 2121   4.630   5.313   8.642 -0.3864  0.5823  1.5163
   16SAPS  C317 2122   4.676   5.177   8.803 -0.0993 -0.4279  0.8071
   16SAPS  H17X 2123   4.569   5.170   8.833 -0.2406  0.3844  0.5047
   16SAPS  H17Y 2124   4.733   5.249   8.865  1.0745 -0.6578  0.0346
   16SAPS  C318 2125   4.746   5.046   8.835 -0.4636 -0.0112 -0.0681
   16SAPS  H18X 2126   4.700   4.958   8.785 -0.5889 -0.0886  0.1778
   16SAPS  H18Y 2127   4.727   5.021   8.942 -0.6952 -1.2600 -0.3870
   16SAPS  H18Z 2128   4.855   5.049   8.813  0.2234  0.1732  2.8441
   17SAPC     N 2129   2.100   0.431  10.508 -0.0647  0.3498  0.2888
   17SAPC   C12 2130   2.226   0.514  10.543  0.6162  0.6006 -0.4480
   17SAPC  H12A 2131   2.221   0.543  10.647  2.3032 -3.0271  0.8133
   17SAPC  H12B 2132   2.231   0.602  10.480  0.5470 -0.5206 -2.0847
   17SAPC   C13 2133   1.973   0.503  10.504 -0.1093 -0.5862  0.0927
   17SAPC  H13A 2134   1.939   0.548  10.596 -0.9515 -1.1605  0.0710
   17SAPC  H13B 2135   1.982   0.582  10.431 -0.5734 -0.1762  0.4748
   17SAPC  H13C 2136   1.893   0.440  10.470 -0.9597 -0.0830  1.1147
   17SAPC   C14 2137   2.111   0.374  10.371 -0.1145  0.3030  0.1414
   17SAPC  H14A 2138   2.206   0.327  10.347 -0.8706  0.4495 -3.6713
   17SAPC  H14B 2139   2.040   0.297  10.346 -0.7025  1.3112 -1.4322
   17SAPC  H14C 2140   2.099   0.458  10.304  1.2437  0.7494  0.4205
   17SAPC   C15 2141   2.091   0.311  10.604  0.5931 -0.1311  0.0424
   17SAPC  H15A 2142   2.021   0.243  10.558 -0.6645  0.9548  0.2968
   17SAPC  H15B 2143   2.186   0.259  10.609 -0.6004 -2.8591 -2.6683
   17SAPC  H15C 2144   2.062   0.346  10.702  2.6732  0.1295  0.6219
   17SAPC   C11 2145   2.363   0.442  10.527  0.6314 -0.1117 -0.7796
   17SAPC  H11A 2146   2.353   0.347  10.583 -0.4846  0.8741  0.8038
   17SAPC  H11B 2147   2.439   0.499  10.584 -0.3684  1.4248 -0.8992
   17SAPC     P 2148   2.430   0.559  10.302  0.6121  0.2679  0.3329
   17SAPC   O13 2149   2.555   0.626  10.346 -0.2626  0.0546  0.3548
   17SAPC   O14 2150   2.430   0.513  10.166 -0.5884  0.1487  0.1519
   17SAPC   O12 2151   2.398   0.426  10.393  0.6472  0.2909 -0.0255
   17SAPC   O11 2152   2.301   0.661  10.316  0.0581  0.1586 -0.3355
   17SAPC    C1 2153   2.198   0.664  10.207  0.1093 -0.7054  0.7638
   17SAPC    HA 2154   2.208   0.576  10.140 -1.7169  0.6666 -1.4363
   17SAPC    HB 2155   2.095   0.663  10.249  0.4738  2.0243  1.9634
   17SAPC    C2 2156   2.214   0.791  10.119  0.4700  0.2778 -0.1041
   17SAPC    HS 2157   2.130   0.801  10.046  1.0596  1.9331 -0.6027
   17SAPC   O21 2158   2.338   0.794  10.050 -0.4395  0.1038 -0.3853
   17SAPC   C21 2159   2.344   0.737   9.932 -0.3240 -0.2730  0.4048
   17SAPC   O22 2160   2.247   0.686   9.875  0.2769  0.1462 -0.3750
   17SAPC   C22 2161   2.479   0.744   9.873 -0.1767 -0.0434  0.3679
   17SAPC   H2R 2162   2.519   0.848   9.882 -0.3093  0.2966 -2.1859
   17SAPC   H2S 2163   2.539   0.685   9.946  0.0680 -1.4960 -0.9536
   17SAPC    C3 2164   2.215   0.922  10.201  0.2282  0.3092 -0.0069
   17SAPC    HX 2165   2.303   0.925  10.270 -0.4467 -1.0804  0.9750
   17SAPC    HY 2166   2.123   0.912  10.262  0.6212 -2.4229  0.2838
   17SAPC   O31 2167   2.199   1.035  10.112  0.3105 -0.4026 -0.0666
   17SAPC   C31 2168   2.308   1.111  10.097 -0.7731  0.1056 -0.3849
   17SAPC   O32 2169   2.421   1.097  10.144  0.1837  0.2244 -0.6147
   17SAPC   C32 2170   2.266   1.226  10.012 -0.2767 -0.6909  0.9052
   17SAPC   H2X 2171   2.255   1.314  10.079 -0.5199 -0.0185  0.0017
   17SAPC   H2Y 2172   2.166   1.211   9.966 -0.7335 -0.6054  1.8393
   17SAPC   C23 2173   2.489   0.704   9.724 -0.3083  0.7463  0.5339
   17SAPC   H3R 2174   2.462   0.602   9.692  0.3474  1.2742 -1.9147
   17SAPC   H3S 2175   2.597   0.701   9.697 -0.5807 -1.9886 -0.5660
   17SAPC   C24 2176   2.419   0.807   9.629 -0.1654 -0.1224 -0.3262
   17SAPC   H4R 2177   2.482   0.837   9.543 -1.1279  2.2038 -0.3019
   17SAPC   H4S 2178   2.401   0.905   9.678  1.1871  0.6511 -1.3331
   17SAPC   C25 2179   2.291   0.745   9.569 -0.0019  1.0678 -0.0732
   17SAPC   H5R 2180   2.215   0.726   9.646 -1.2003  1.0876 -1.2122
   17SAPC   C26 2181   2.257   0.709   9.447  0.3697 -0.0814 -0.1133
   17SAPC   H6R 2182   2.172   0.640   9.441 -0.4119  0.9748 -1.8514
   17SAPC   C27 2183   2.345   0.726   9.322  0.5728 -0.6054  0.8889
   17SAPC   H7R 2184   2.377   0.833   9.320  0.3193 -0.5407 -0.2481
   17SAPC   H7S 2185   2.283   0.713   9.231 -0.5174  1.5610  1.2395
   17SAPC   C28 2186   2.469   0.640   9.316 -0.1160  0.2926  0.7756
   17SAPC   H8R 2187   2.493   0.592   9.412  1.0667  0.2185  0.4665
   17SAPC   C29 2188   2.541   0.627   9.202  0.1885 -0.0326  0.0411
   17SAPC   H9R 2189   2.624   0.556   9.208  1.0229  0.9993  1.0610
   17SAPC  C210 2190   2.530   0.689   9.066 -0.8815 -0.9051 -0.0481
   17SAPC  H10R 2191   2.634   0.707   9.032 -0.5263 -2.0791  0.3561
   17SAPC  H10S 2192   2.481   0.789   9.073  0.7648  0.1801 -2.6382
   17SAPC  C211 2193   2.447   0.609   8.969 -0.6823 -0.4013 -0.0585
   17SAPC  H11R 2194   2.358   0.565   9.017 -0.3733 -0.5977  0.3449
   17SAPC  C212 2195   2.468   0.581   8.838 -0.5244  0.0167  0.0029
   17SAPC  H12R 2196   2.389   0.528   8.783  0.5956 -0.9913 -0.7000
   17SAPC  C213 2197   2.587   0.639   8.765  0.6686 -0.1802 -0.7635
   17SAPC  H13R 2198   2.675   0.596   8.818 -0.7302 -0.8652  1.1504
   17SAPC  H13S 2199   2.587   0.749   8.779 -0.0952  0.1587 -3.0475
   17SAPC  C214 2200   2.607   0.609   8.622  0.0039  0.1791  0.3038
   17SAPC  H14R 2201   2.607   0.695   8.553 -0.0557  0.2416  0.3825
   17SAPC  C215 2202   2.620   0.484   8.568 -0.8733 -0.6001  0.0699
   17SAPC  H15R 2203   2.623   0.467   8.460  0.0420 -2.3274  0.3275
   17SAPC  C216 2204   2.624   0.349   8.637 -0.1514 -0.2253 -0.1901
   17SAPC  H16R 2205   2.598   0.361   8.744  0.3092 -1.0503  0.0266
   17SAPC  H16S 2206   2.732   0.320   8.640  0.6658  2.5885  0.3827
   17SAPC  C217 2207   2.529   0.250   8.564 -0.8120 -0.0247  0.3467
   17SAPC  H17R 2208   2.563   0.230   8.460 -0.1219  2.7064 -0.0372
   17SAPC  H17S 2209   2.424   0.279   8.544 -1.0051 -1.9080 -1.7791
   17SAPC  C218 2210   2.527   0.119   8.641  0.0286 -1.0373 -0.0426
   17SAPC  H18R 2211   2.629   0.077   8.629 -0.3551 -1.7897 -0.7128
   17SAPC  H18S 2212   2.468   0.048   8.580  1.1254 -0.3786 -1.9746
   17SAPC  C219 2213   2.470   0.114   8.788 -0.2735 -0.2035 -0.1945
   17SAPC  H19R 2214   2.535   0.163   8.864 -0.1600  0.3726 -0.6469
   17SAPC  H19S 2215   2.466   0.007   8.816 -1.1629 -0.3275 -0.7762
   17SAPC  C220 2216   2.331   0.170   8.813  0.0560 -0.5129 -0.1672
   17SAPC  H20R 2217   2.287   0.129   8.907  1.4121  2.0284  1.6902
   17SAPC  H20S 2218   2.270   0.137   8.726 -3.2906 -0.7523  2.0610
   17SAPC  H20T 2219   2.331   0.281   8.812 -0.1226 -0.4939 -2.2212
   17SAPC   C33 2220   2.375   1.275   9.908 -0.2848  0.5056 -0.1527
   17SAPC   H3X 2221   2.464   1.328   9.949  0.3192  0.1234 -0.9267
   17SAPC   H3Y 2222   2.321   1.348   9.844 -1.8871  0.1163  0.7096
   17SAPC   C34 2223   2.440   1.170   9.817  0.6786  0.4985 -0.1844
   17SAPC   H4X 2224   2.367   1.134   9.741  1.2955 -0.8240 -0.1724
   17SAPC   H4Y 2225   2.473   1.082   9.876 -0.7862  0.9195  1.3353
   17SAPC   C35 2226   2.558   1.228   9.738  0.2253  0.1876  0.0154
   17SAPC   H5X 2227   2.636   1.248   9.814  2.4282  0.1591 -2.1002
   17SAPC   H5Y 2228   2.534   1.329   9.699  0.7895  1.1988  2.1903
   17SAPC   C36 2229   2.606   1.131   9.628 -0.4277  0.2212 -0.4006
   17SAPC   H6X 2230   2.593   1.026   9.663 -0.4905 -0.2628 -1.8017
   17SAPC   H6Y 2231   2.713   1.144   9.600 -0.8942  1.5188 -1.6690
   17SAPC   C37 2232   2.517   1.141   9.497 -0.4369  0.3673 -0.2354
   17SAPC   H7X 2233   2.512   1.249   9.468  3.5280  0.5103 -1.0366
   17SAPC   H7Y 2234   2.414   1.109   9.523  0.8050 -0.7542  4.1019
   17SAPC   C38 2235   2.587   1.068   9.376 -0.4094 -0.7039 -0.3661
   17SAPC   H8X 2236   2.608   0.963   9.404 -0.7288 -0.3508  1.3745
   17SAPC   H8Y 2237   2.690   1.108   9.369 -1.0325  1.6533  2.0676
   17SAPC   C39 2238   2.515   1.093   9.244  0.2571 -0.5271 -0.3804
   17SAPC   H9X 2239   2.469   1.193   9.255 -2.0176 -1.2443 -2.4008
   17SAPC   H9Y 2240   2.430   1.021   9.236 -2.1827  2.0137  0.8789
   17SAPC  C310 2241   2.610   1.100   9.122  0.8998 -0.2906 -0.4931
   17SAPC  H10X 2242   2.685   1.018   9.131  0.4334 -0.5380  1.5854
   17SAPC  H10Y 2243   2.659   1.200   9.123  0.0488  0.1295 -0.4325
   17SAPC  C311 2244   2.538   1.095   8.983 -0.1389 -0.5023 -0.8286
   17SAPC  H11X 2245   2.461   1.175   8.985 -1.2306 -1.4840  2.6158
   17SAPC  H11Y 2246   2.483   0.999   8.982 -0.9089 -0.2764  3.1978
   17SAPC  C312 2247   2.622   1.107   8.852 -0.4174  0.1413 -0.1000
   17SAPC  H12X 2248   2.686   1.018   8.864 -1.0184 -0.2115  0.6219
   17SAPC  H12Y 2249   2.684   1.199   8.853 -1.8990  1.2157 -1.3788
   17SAPC  C313 2250   2.546   1.084   8.723  0.0649  0.3588 -0.2088
   17SAPC  H13X 2251   2.466   1.150   8.682 -0.5327 -0.5065 -0.4761
   17SAPC  H13Y 2252   2.513   0.978   8.728  1.7950 -0.2610 -1.1681
   17SAPC  C314 2253   2.641   1.074   8.603  0.3511  0.1853  0.1807
   17SAPC  H14X 2254   2.724   1.010   8.639  1.5388  0.4127 -1.9919
   17SAPC  H14Y 2255   2.691   1.172   8.586 -1.4837  1.0099 -0.7286
   17SAPC  C315 2256   2.585   0.999   8.483 -0.4722 -1.2333  0.5564
   17SAPC  H15X 2257   2.492   1.054   8.458  0.6261  0.1189 -0.7335
   17SAPC  H15Y 2258   2.564   0.893   8.510 -0.0448 -1.1424  1.3036
   17SAPC  C316 2259   2.674   0.995   8.364 -0.4406  0.0796  1.0760
   17SAPC  H16X 2260   2.665   1.094   8.316 -0.9667 -0.8971 -0.9490
   17SAPC  H16Y 2261   2.633   0.915   8.299  1.5030 -1.7818  2.0174
   17SAPC  C317 2262   2.825   0.970   8.395  0.4221 -0.3953  0.7686
   17SAPC  H17X 2263   2.849   0.864   8.416 -1.4213 -0.6330  1.8388
   17SAPC  H17Y 2264   2.866   1.033   8.477  1.8230  0.0703 -0.2334
   17SAPC  C318 2265   2.905   1.005   8.272 -0.4051 -0.1629  0.9540
   17SAPC  H18X 2266   2.898   1.112   8.241  1.8587 -0.2623 -0.0869
   17SAPC  H18Y 2267   3.013   0.980   8.283 -0.1979  0.3435  0.1366
   17SAPC  H18Z 2268   2.856   0.954   8.187  1.6566  1.2598 -1.1999
   18SAPC     N 2269   2.894   1.771  10.942  0.0478 -0.0009 -0.1281
   18SAPC   C12 2270   2.892   1.789  10.795 -0.0931 -0.1813 -0.2259
   18SAPC  H12A 2271   2.994   1.805  10.763  0.1515  1.4496  1.2262
   18SAPC  H12B 2272   2.857   1.890  10.783 -1.0343 -0.3477  0.9878
   18SAPC   C13 2273   2.943   1.900  11.003  0.6766 -0.9575  0.3295
   18SAPC  H13A 2274   3.028   1.935  10.946  0.0383 -1.3435 -0.8879
   18SAPC  H13B 2275   2.874   1.982  10.991  0.3614 -1.0980  1.1135
   18SAPC  H13C 2276   2.960   1.893  11.110 -0.4763  0.9007  0.6727
   18SAPC   C14 2277   2.755   1.746  10.997  0.1897  0.0869  0.7078
   18SAPC  H14A 2278   2.705   1.654  10.969 -0.8603  1.2954 -1.6864
   18SAPC  H14B 2279   2.767   1.741  11.104 -0.6868  1.5410  0.9009
   18SAPC  H14C 2280   2.689   1.825  10.964 -0.2744 -0.3834  0.5070
   18SAPC   C15 2281   2.987   1.660  10.973 -0.5843 -0.0106 -0.3613
   18SAPC  H15A 2282   3.090   1.677  10.943 -0.2232 -1.1427  0.2062
   18SAPC  H15B 2283   2.998   1.643  11.079 -3.1866 -1.7970 -0.2970
   18SAPC  H15C 2284   2.948   1.569  10.931 -0.6323  0.9230 -2.4731
   18SAPC   C11 2285   2.811   1.694  10.701  0.5727 -0.6537 -0.1462
   18SAPC  H11A 2286   2.801   1.741  10.601  0.2446 -0.8481 -0.2071
   18SAPC  H11B 2287   2.715   1.688  10.757  2.3770 -1.5946  3.1007
   18SAPC     P 2288   2.820   1.433  10.670  0.0026 -0.2400 -0.2098
   18SAPC   O13 2289   2.934   1.338  10.638  0.6280 -0.3994 -0.1119
   18SAPC   O14 2290   2.733   1.395  10.788 -0.1404 -0.1430  0.8410
   18SAPC   O12 2291   2.873   1.572  10.689 -0.4616  0.4258  0.3557
   18SAPC   O11 2292   2.716   1.436  10.544  0.2587  0.1726  0.0911
   18SAPC    C1 2293   2.740   1.526  10.427 -0.4107  1.1195  0.1147
   18SAPC    HA 2294   2.665   1.606  10.407 -2.4174 -0.3082  1.5347
   18SAPC    HB 2295   2.844   1.562  10.441 -0.8555  1.8613  1.8736
   18SAPC    C2 2296   2.756   1.430  10.301  0.2334 -0.8699  0.3181
   18SAPC    HS 2297   2.804   1.338  10.340  1.3587 -0.4290 -0.0080
   18SAPC   O21 2298   2.861   1.491  10.213 -0.1774 -0.3340 -0.6785
   18SAPC   C21 2299   2.908   1.406  10.126 -0.6478  0.0430  0.0653
   18SAPC   O22 2300   2.888   1.284  10.117  0.8634 -0.6100 -0.1624
   18SAPC   C22 2301   2.988   1.478  10.012  0.0911  0.6815 -0.8816
   18SAPC   H2R 2302   2.900   1.536   9.977 -1.2658 -1.1618 -0.7176
   18SAPC   H2S 2303   3.066   1.536  10.065  2.1939 -3.1600  0.6547
   18SAPC    C3 2304   2.628   1.388  10.224  0.6173 -0.3271 -0.6187
   18SAPC    HX 2305   2.564   1.350  10.307  0.4987 -0.0187 -0.5698
   18SAPC    HY 2306   2.646   1.307  10.150 -0.5923 -1.9318  0.7564
   18SAPC   O31 2307   2.557   1.507  10.182  0.3289  0.0593 -0.3528
   18SAPC   C31 2308   2.591   1.545  10.061  1.0246  0.2944 -0.3273
   18SAPC   O32 2309   2.670   1.495   9.985  0.7235 -0.3033  0.1420
   18SAPC   C32 2310   2.500   1.662  10.027 -0.1191 -0.5385  0.2602
   18SAPC   H2X 2311   2.544   1.745  10.086  1.9311 -0.4311 -1.3066
   18SAPC   H2Y 2312   2.394   1.639  10.051 -0.3491  0.3899  0.1740
   18SAPC   C23 2313   3.045   1.388   9.904 -0.3367 -0.4428  0.1646
   18SAPC   H3R 2314   2.960   1.332   9.858  0.9348 -1.0291 -1.5708
   18SAPC   H3S 2315   3.116   1.316   9.949  0.7396 -0.3724 -1.3382
   18SAPC   C24 2316   3.116   1.466   9.795  0.0990  0.0482 -0.4778
   18SAPC   H4R 2317   3.210   1.505   9.842  0.0993 -0.1201 -0.3403
   18SAPC   H4S 2318   3.057   1.556   9.767 -1.0789 -0.1534  1.1898
   18SAPC   C25 2319   3.138   1.376   9.676  0.1870 -0.2403 -0.8387
   18SAPC   H5R 2320   3.211   1.294   9.680 -0.8214 -1.3484 -3.1208
   18SAPC   C26 2321   3.090   1.403   9.555  0.0361 -0.1962 -0.1869
   18SAPC   H6R 2322   3.095   1.328   9.474 -0.9490 -0.7124  0.2083
   18SAPC   C27 2323   3.002   1.521   9.520  0.3429  0.0578  0.1530
   18SAPC   H7R 2324   2.995   1.540   9.411  0.8803  0.5854  0.2066
   18SAPC   H7S 2325   3.046   1.612   9.566 -0.7926 -0.3572  2.1337
   18SAPC   C28 2326   2.858   1.509   9.565 -0.9024 -0.0610  0.0861
   18SAPC   H8R 2327   2.840   1.494   9.672 -3.6736 -1.1217 -0.4558
   18SAPC   C29 2328   2.750   1.475   9.491 -0.3951  0.2992 -0.2017
   18SAPC   H9R 2329   2.660   1.444   9.546  0.2467 -2.8758 -0.7414
   18SAPC  C210 2330   2.730   1.448   9.340  0.1011 -0.0340 -0.3906
   18SAPC  H10R 2331   2.639   1.386   9.326 -0.1653 -0.2820  2.0366
   18SAPC  H10S 2332   2.821   1.392   9.309  0.8596  0.9807 -0.0701
   18SAPC  C211 2333   2.714   1.577   9.268  0.3744  0.1885 -0.1110
   18SAPC  H11R 2334   2.679   1.670   9.317  1.5001  0.4392  0.2382
   18SAPC  C212 2335   2.725   1.588   9.134 -0.1584  0.1645  0.5289
   18SAPC  H12R 2336   2.717   1.687   9.088  1.0098  1.0009  2.0574
   18SAPC  C213 2337   2.765   1.483   9.031  0.6006 -0.1017  0.3787
   18SAPC  H13R 2338   2.749   1.539   8.937  0.3100 -0.1613  0.3939
   18SAPC  H13S 2339   2.701   1.392   9.036 -0.7770  0.8743  0.8660
   18SAPC  C214 2340   2.905   1.429   9.013  0.6443  0.0975 -0.7205
   18SAPC  H14R 2341   2.904   1.320   9.015 -1.6938  0.0471 -1.5312
   18SAPC  C215 2342   3.023   1.491   9.016  1.1705 -0.1860  0.5048
   18SAPC  H15R 2343   3.112   1.427   9.007  1.2028 -0.2480  1.2466
   18SAPC  C216 2344   3.063   1.632   9.018 -0.1558  0.1332  0.2720
   18SAPC  H16R 2345   3.106   1.658   9.117 -3.9265 -1.7856  2.6574
   18SAPC  H16S 2346   2.971   1.692   8.999 -0.0360 -0.0160 -0.8507
   18SAPC  C217 2347   3.174   1.653   8.911 -0.1688 -0.3028 -0.2886
   18SAPC  H17R 2348   3.263   1.586   8.919  0.4013  0.6235  1.9726
   18SAPC  H17S 2349   3.210   1.757   8.924 -1.3895  0.3505 -1.9158
   18SAPC  C218 2350   3.134   1.627   8.760  0.3062  0.0551  0.0694
   18SAPC  H18R 2351   3.126   1.518   8.742  2.2050 -0.3876  1.6290
   18SAPC  H18S 2352   3.223   1.661   8.702  0.4611  0.5260  0.5663
   18SAPC  C219 2353   3.002   1.696   8.713 -0.4667 -0.0914  0.3352
   18SAPC  H19R 2354   2.992   1.798   8.755 -0.5148 -0.3756  1.0248
   18SAPC  H19S 2355   2.917   1.640   8.758 -0.2675 -0.8516 -0.2079
   18SAPC  C220 2356   2.978   1.700   8.558 -0.2712  0.0616 -0.2315
   18SAPC  H20R 2357   3.080   1.715   8.518  0.8483 -2.0515  1.5617
   18SAPC  H20S 2358   2.916   1.787   8.531  1.7698  1.3205 -1.0412
   18SAPC  H20T 2359   2.954   1.607   8.502  1.6981 -1.5495  1.4349
   18SAPC   C33 2360   2.495   1.705   9.880  0.0250 -0.1625 -0.5621
   18SAPC   H3X 2361   2.596   1.728   9.840  0.8789  0.1208  1.6251
   18SAPC   H3Y 2362   2.438   1.799   9.867 -0.1733 -0.5071 -2.5198
   18SAPC   C34 2363   2.426   1.600   9.788  0.4384  0.0494  1.0725
   18SAPC   H4X 2364   2.328   1.577   9.836 -0.2481 -1.2701 -0.8549
   18SAPC   H4Y 2365   2.496   1.514   9.794  0.0083 -0.3348  0.6376
   18SAPC   C35 2366   2.399   1.652   9.647  0.1066 -0.1079 -0.3333
   18SAPC   H5X 2367   2.489   1.712   9.620 -1.3465  2.5756  0.4470
   18SAPC   H5Y 2368   2.314   1.722   9.654  0.9136  0.7592  1.6455
   18SAPC   C36 2369   2.365   1.539   9.552  0.0354  0.6571  0.2006
   18SAPC   H6X 2370   2.274   1.485   9.588  1.0958  0.2427  2.3912
   18SAPC   H6Y 2371   2.458   1.478   9.547 -0.2977 -0.2808  3.3650
   18SAPC   C37 2372   2.334   1.597   9.409  0.4940 -0.2198 -0.6570
   18SAPC   H7X 2373   2.414   1.661   9.367 -0.2941  1.6675  0.5900
   18SAPC   H7Y 2374   2.243   1.661   9.416  1.1226  0.6916 -0.6488
   18SAPC   C38 2375   2.300   1.483   9.313 -0.5593 -0.0790 -0.3068
   18SAPC   H8X 2376   2.227   1.414   9.360  0.7288  0.5480  2.9341
   18SAPC   H8Y 2377   2.391   1.420   9.311 -0.1612  0.4300  0.6653
   18SAPC   C39 2378   2.254   1.529   9.180  0.3579  0.0082  0.0820
   18SAPC   H9X 2379   2.315   1.607   9.131 -1.2407 -0.5642 -3.0470
   18SAPC   H9Y 2380   2.157   1.583   9.193  0.8777  1.6097 -2.1584
   18SAPC  C310 2381   2.229   1.414   9.076 -0.0966  0.2444  0.3980
   18SAPC  H10X 2382   2.154   1.346   9.122 -0.3306 -0.9088 -1.5526
   18SAPC  H10Y 2383   2.326   1.366   9.051 -0.0740  0.8459 -0.7257
   18SAPC  C311 2384   2.182   1.475   8.950  0.5035 -0.6869 -0.1256
   18SAPC  H11X 2385   2.267   1.543   8.930  2.1765 -1.7477  2.7069
   18SAPC  H11Y 2386   2.095   1.544   8.961 -1.2054 -2.4493 -1.8715
   18SAPC  C312 2387   2.151   1.371   8.852 -0.2004  0.1011 -0.6494
   18SAPC  H12X 2388   2.079   1.295   8.891 -0.1214  0.0725 -0.5574
   18SAPC  H12Y 2389   2.235   1.308   8.814 -0.6892 -0.2212 -1.2085
   18SAPC  C313 2390   2.090   1.431   8.725 -0.2193 -0.5121  0.7934
   18SAPC  H13X 2391   2.168   1.504   8.693  0.3796 -1.3430  0.3102
   18SAPC  H13Y 2392   1.999   1.485   8.757  1.1403  1.8980  0.8453
   18SAPC  C314 2393   2.047   1.321   8.631 -0.2511 -0.0498 -0.9384
   18SAPC  H14X 2394   1.974   1.366   8.561 -0.4023  1.3783  0.0916
   18SAPC  H14Y 2395   1.987   1.250   8.692  1.1441  0.6855  1.4166
   18SAPC  C315 2396   2.158   1.241   8.557  0.5483  0.4644  0.1730
   18SAPC  H15X 2397   2.231   1.200   8.630  2.3947  1.1228 -1.2214
   18SAPC  H15Y 2398   2.218   1.313   8.497  1.2677  1.3275  1.8608
   18SAPC  C316 2399   2.105   1.128   8.463 -0.3823  0.0494 -0.4018
   18SAPC  H16X 2400   2.036   1.169   8.387 -1.8037  0.1871  0.9252
   18SAPC  H16Y 2401   2.047   1.051   8.519 -1.2315  0.1041 -1.2001
   18SAPC  C317 2402   2.225   1.055   8.411 -0.8323  0.1268  0.3268
   18SAPC  H17X 2403   2.288   1.021   8.496  1.7419  1.4129 -0.9429
   18SAPC  H17Y 2404   2.291   1.129   8.360  0.6560 -1.5817 -0.3448
   18SAPC  C318 2405   2.183   0.942   8.323  0.0071 -0.0355  0.2872
   18SAPC  H18X 2406   2.126   0.981   8.236  1.6589  0.0786 -0.7862
   18SAPC  H18Y 2407   2.119   0.869   8.377  0.7070 -0.2381  0.8433
   18SAPC  H18Z 2408   2.263   0.881   8.276 -1.4078  0.0747 -2.5255
   19SAPC     N 2409   3.595   2.956  10.913 -0.1041  0.1927  0.4474
   19SAPC   C12 2410   3.631   2.955  10.761  0.5142  1.4486  0.8350
   19SAPC  H12A 2411   3.621   2.855  10.723 -1.6074  1.4344  1.3285
   19SAPC  H12B 2412   3.738   2.974  10.757  0.8619 -0.5243 -0.6500
   19SAPC   C13 2413   3.613   3.097  10.958 -0.6911  0.2775  0.3042
   19SAPC  H13A 2414   3.537   3.158  10.911  0.3030  0.6581 -0.8608
   19SAPC  H13B 2415   3.616   3.118  11.064  2.3220  0.0859  0.3321
   19SAPC  H13C 2416   3.693   3.152  10.911 -0.6847  0.9484  1.0825
   19SAPC   C14 2417   3.458   2.907  10.926  0.4902  0.1192  0.4017
   19SAPC  H14A 2418   3.417   2.915  11.026 -0.4899 -0.0533  0.0255
   19SAPC  H14B 2419   3.395   2.969  10.865 -1.1327  1.1131  2.9048
   19SAPC  H14C 2420   3.441   2.808  10.887 -0.0889  0.2796  0.2309
   19SAPC   C15 2421   3.691   2.871  10.991  0.1537 -0.6248  0.4070
   19SAPC  H15A 2422   3.663   2.867  11.095  2.2793 -1.4731  1.0065
   19SAPC  H15B 2423   3.684   2.769  10.958 -0.5300 -0.2390 -0.6832
   19SAPC  H15C 2424   3.796   2.899  10.984  0.0027  0.0867  0.8681
   19SAPC   C11 2425   3.544   3.041  10.660  0.0244  0.0060  0.7409
   19SAPC  H11A 2426   3.442   3.001  10.676 -1.0940  2.4769  0.1306
   19SAPC  H11B 2427   3.575   3.006  10.558  1.5271  1.6182  0.5937
   19SAPC     P 2428   3.475   3.300  10.649  0.7032  0.4627 -0.1207
   19SAPC   O13 2429   3.365   3.305  10.750  0.0886  0.2934  0.2467
   19SAPC   O14 2430   3.556   3.420  10.648 -1.3156 -0.2137  0.5570
   19SAPC   O12 2431   3.573   3.180  10.676  0.3660 -0.2309 -0.1372
   19SAPC   O11 2432   3.404   3.260  10.517  0.3738 -0.3448  0.6145
   19SAPC    C1 2433   3.470   3.264  10.390  0.0408  0.2372 -0.2785
   19SAPC    HA 2434   3.572   3.222  10.399  0.6803  1.8777  0.4077
   19SAPC    HB 2435   3.415   3.203  10.315  0.6376  0.2674 -0.7472
   19SAPC    C2 2436   3.477   3.403  10.331  0.1568  0.0317  0.2351
   19SAPC    HS 2437   3.503   3.475  10.412  2.3110 -2.2193  1.6894
   19SAPC   O21 2438   3.345   3.445  10.281 -0.3248  0.4523  0.2825
   19SAPC   C21 2439   3.333   3.571  10.251 -0.4420  0.0969  0.1505
   19SAPC   O22 2440   3.414   3.663  10.269  0.5916  0.1532  0.3163
   19SAPC   C22 2441   3.205   3.585  10.161 -0.6094  1.1053 -1.0247
   19SAPC   H2R 2442   3.168   3.489  10.119 -2.1518  0.9357  0.6265
   19SAPC   H2S 2443   3.128   3.627  10.228 -0.1394  0.6921 -0.2102
   19SAPC    C3 2444   3.592   3.399  10.230 -0.0937 -0.1931  0.4334
   19SAPC    HX 2445   3.689   3.389  10.282  0.5753 -0.1516 -0.7532
   19SAPC    HY 2446   3.605   3.498  10.181  2.4832 -0.8191 -0.2749
   19SAPC   O31 2447   3.582   3.298  10.128  0.1866 -0.1177 -0.0497
   19SAPC   C31 2448   3.703   3.277  10.064  0.4387 -0.2579  0.7790
   19SAPC   O32 2449   3.800   3.350  10.084  0.0708 -0.0039 -0.0104
   19SAPC   C32 2450   3.697   3.153   9.968  0.8170 -0.1735 -0.1657
   19SAPC   H2X 2451   3.591   3.124   9.951  0.1577  0.9238  1.7583
   19SAPC   H2Y 2452   3.754   3.067  10.008  1.4011  0.8626  1.3442
   19SAPC   C23 2453   3.232   3.676  10.033  0.0242  0.0724  0.5296
   19SAPC   H3R 2454   3.300   3.761  10.056  0.3364  1.0255 -3.1909
   19SAPC   H3S 2455   3.135   3.722  10.003  0.5759 -0.0222 -1.5692
   19SAPC   C24 2456   3.271   3.602   9.906  0.7814  0.4749  0.8324
   19SAPC   H4R 2457   3.243   3.667   9.821 -3.3376 -0.6223  1.1278
   19SAPC   H4S 2458   3.210   3.509   9.906 -0.8135  1.4825  0.8429
   19SAPC   C25 2459   3.417   3.562   9.892 -0.4461 -0.0933 -0.5040
   19SAPC   H5R 2460   3.459   3.494   9.968  0.4050 -1.1949 -1.9098
   19SAPC   C26 2461   3.502   3.615   9.803  0.0592 -0.3410  0.1499
   19SAPC   H6R 2462   3.607   3.581   9.794  1.2894  3.4068 -1.6284
   19SAPC   C27 2463   3.469   3.711   9.687  0.0511  0.0880  0.0428
   19SAPC   H7R 2464   3.402   3.795   9.717 -1.3558 -0.7215 -0.7206
   19SAPC   H7S 2465   3.407   3.658   9.612  0.6520  0.5188 -0.7784
   19SAPC   C28 2466   3.594   3.767   9.622 -0.0290 -0.1477  0.6198
   19SAPC   H8R 2467   3.685   3.776   9.683  0.6565 -0.1023 -0.3756
   19SAPC   C29 2468   3.611   3.798   9.487  0.2264  0.4866  0.0789
   19SAPC   H9R 2469   3.708   3.827   9.444 -0.4143  1.8620 -0.5255
   19SAPC  C210 2470   3.499   3.779   9.390 -0.4788  0.6454 -0.1188
   19SAPC  H10R 2471   3.395   3.783   9.429 -1.1503 -2.3920 -1.3055
   19SAPC  H10S 2472   3.497   3.676   9.347 -1.5894  0.8409 -0.5712
   19SAPC  C211 2473   3.520   3.876   9.274 -0.0157  0.5020 -0.1621
   19SAPC  H11R 2474   3.465   3.970   9.285 -0.3416  0.3863 -0.7387
   19SAPC  C212 2475   3.583   3.862   9.155 -0.1618 -0.4620  0.1459
   19SAPC  H12R 2476   3.587   3.957   9.100 -0.0599 -1.5863 -1.8645
   19SAPC  C213 2477   3.653   3.735   9.113  0.3087  0.1105 -0.3076
   19SAPC  H13R 2478   3.576   3.658   9.090  2.1218 -1.7677 -0.3689
   19SAPC  H13S 2479   3.719   3.698   9.193  1.3748  0.3460 -1.0571
   19SAPC  C214 2480   3.738   3.745   8.988  0.4886 -0.0607 -0.1058
   19SAPC  H14R 2481   3.846   3.729   8.996  0.2386 -0.8944  2.2011
   19SAPC  C215 2482   3.690   3.752   8.861 -0.1130 -0.6787  0.0607
   19SAPC  H15R 2483   3.770   3.779   8.790  1.8004  1.1543  2.6691
   19SAPC  C216 2484   3.546   3.757   8.812  0.0822  0.4371  0.5206
   19SAPC  H16R 2485   3.471   3.747   8.893  1.3575 -1.3876  1.5527
   19SAPC  H16S 2486   3.541   3.672   8.741  0.9514  0.1752  0.7586
   19SAPC  C217 2487   3.498   3.886   8.736  0.4717 -0.0494 -0.4409
   19SAPC  H17R 2488   3.389   3.891   8.717  0.6594 -0.9824 -1.9101
   19SAPC  H17S 2489   3.549   3.892   8.638 -0.6951  1.4055 -0.9887
   19SAPC  C218 2490   3.532   4.017   8.816  0.2880  0.1576  0.2796
   19SAPC  H18R 2491   3.642   4.021   8.836  1.2578  0.4283 -3.9916
   19SAPC  H18S 2492   3.487   4.004   8.916  1.1653  0.8860  0.7845
   19SAPC  C219 2493   3.490   4.154   8.745 -0.8347  0.4705 -0.0482
   19SAPC  H19R 2494   3.500   4.219   8.834 -0.7889 -1.1713  1.1892
   19SAPC  H19S 2495   3.383   4.136   8.722 -0.3399 -2.1692 -0.6233
   19SAPC  C220 2496   3.577   4.195   8.621 -0.4020 -0.1282  0.8853
   19SAPC  H20R 2497   3.529   4.139   8.538 -2.9386  0.5540  1.7790
   19SAPC  H20S 2498   3.682   4.160   8.626 -0.0572  0.5311 -1.0017
   19SAPC  H20T 2499   3.571   4.305   8.604  1.3089 -0.0089  0.9390
   19SAPC   C33 2500   3.752   3.185   9.829  0.0081  0.0606 -0.8369
   19SAPC   H3X 2501   3.729   3.095   9.769 -0.4555 -0.3913 -0.0016
   19SAPC   H3Y 2502   3.863   3.197   9.826 -0.0082  0.3752 -0.3347
   19SAPC   C34 2503   3.681   3.299   9.764 -0.2396 -0.0358 -0.2250
   19SAPC   H4X 2504   3.708   3.400   9.802  1.7859  0.5528 -2.9040
   19SAPC   H4Y 2505   3.571   3.284   9.765 -0.2047 -0.6470  2.6737
   19SAPC   C35 2506   3.707   3.289   9.613  0.2685  0.2475  0.6924
   19SAPC   H5X 2507   3.688   3.180   9.598 -2.3904  0.8443 -1.0087
   19SAPC   H5Y 2508   3.814   3.309   9.589  0.4996 -2.3608 -0.8372
   19SAPC   C36 2509   3.612   3.373   9.528 -0.6184  0.0716  0.0449
   19SAPC   H6X 2510   3.619   3.482   9.549 -2.6720  0.7518 -2.3858
   19SAPC   H6Y 2511   3.507   3.346   9.553 -0.3486 -0.4663  0.6420
   19SAPC   C37 2512   3.637   3.346   9.379 -0.2190  0.7520  0.3526
   19SAPC   H7X 2513   3.566   3.413   9.326 -1.2414 -0.2210  0.4590
   19SAPC   H7Y 2514   3.601   3.244   9.352  1.1960 -0.6898  3.4192
   19SAPC   C38 2515   3.777   3.376   9.327 -0.4332 -0.1401  0.3224
   19SAPC   H8X 2516   3.848   3.321   9.393 -2.3502 -2.6332  0.4848
   19SAPC   H8Y 2517   3.797   3.485   9.332 -0.3816  0.0915 -2.8430
   19SAPC   C39 2518   3.792   3.329   9.180 -0.5027 -1.7296  0.7438
   19SAPC   H9X 2519   3.717   3.380   9.116 -1.0421 -1.1670  1.7945
   19SAPC   H9Y 2520   3.767   3.223   9.162 -0.2232 -2.1077  2.4159
   19SAPC  C310 2521   3.936   3.350   9.114 -0.0989 -0.2358 -0.2230
   19SAPC  H10X 2522   4.004   3.281   9.169 -1.1225 -0.8842  0.2673
   19SAPC  H10Y 2523   3.968   3.446   9.159  0.2725 -1.3467  2.0316
   19SAPC  C311 2524   3.926   3.344   8.964  0.3742  0.3417  1.0693
   19SAPC  H11X 2525   3.840   3.403   8.926 -0.4207 -1.3886  0.0601
   19SAPC  H11Y 2526   3.892   3.240   8.942 -0.5785  0.5480  1.5238
   19SAPC  C312 2527   4.061   3.376   8.889 -0.0840  0.1422  0.1517
   19SAPC  H12X 2528   4.146   3.312   8.922 -0.2186 -0.5173 -0.7450
   19SAPC  H12Y 2529   4.079   3.484   8.911 -0.8626  0.1384  0.8186
   19SAPC  C313 2530   4.043   3.366   8.741  0.2445 -0.1136 -0.1733
   19SAPC  H13X 2531   3.952   3.423   8.713  0.1778 -1.0701 -2.0593
   19SAPC  H13Y 2532   4.028   3.258   8.719 -0.7148  0.0172 -0.1996
   19SAPC  C314 2533   4.144   3.426   8.643 -0.1931 -0.0204 -0.1018
   19SAPC  H14X 2534   4.237   3.366   8.655 -0.6251 -0.4404  1.3034
   19SAPC  H14Y 2535   4.166   3.532   8.670 -0.8808  0.1039 -0.0327
   19SAPC  C315 2536   4.087   3.433   8.495  0.0525  0.0352 -0.6058
   19SAPC  H15X 2537   3.991   3.488   8.486 -0.6063 -0.7800  1.0218
   19SAPC  H15Y 2538   4.069   3.328   8.463 -0.6806 -0.5542  1.5558
   19SAPC  C316 2539   4.196   3.492   8.411 -0.2156  0.8697 -0.1122
   19SAPC  H16X 2540   4.272   3.558   8.460 -0.4919  1.8486 -0.9721
   19SAPC  H16Y 2541   4.160   3.543   8.320 -2.4957 -1.6754 -0.7471
   19SAPC  C317 2542   4.288   3.391   8.335  0.5165 -0.3217 -0.0395
   19SAPC  H17X 2543   4.230   3.319   8.272  0.1953 -0.1616  0.0713
   19SAPC  H17Y 2544   4.335   3.327   8.413  2.9258 -0.2721 -1.3509
   19SAPC  C318 2545   4.399   3.460   8.247 -0.5867 -0.0983  0.5225
   19SAPC  H18X 2546   4.455   3.386   8.187 -0.1807 -1.1233  2.0932
   19SAPC  H18Y 2547   4.468   3.518   8.311  0.0599 -0.0157 -0.2340
   19SAPC  H18Z 2548   4.356   3.539   8.181  1.1197  0.2463 -0.2284
   20SAPC     N 2549   3.182   5.629  10.762 -0.7165 -0.5034  0.3100
   20SAPC   C12 2550   3.091   5.646  10.640  0.1550 -0.2068 -0.0569
   20SAPC  H12A 2551   3.002   5.689  10.685  0.7110  0.2070  0.6634
   20SAPC  H12B 2552   3.081   5.545  10.605  0.3150 -0.4735  0.6562
   20SAPC   C13 2553   3.218   5.756  10.828  0.4183 -0.3020 -0.2252
   20SAPC  H13A 2554   3.141   5.773  10.902 -0.7619  4.1939 -2.1445
   20SAPC  H13B 2555   3.314   5.744  10.878  0.2277  1.6111  0.7041
   20SAPC  H13C 2556   3.210   5.838  10.758 -1.6350 -0.7644 -0.5756
   20SAPC   C14 2557   3.111   5.544  10.863 -0.2778  0.1465 -0.6752
   20SAPC  H14A 2558   3.175   5.536  10.950 -0.5665 -2.2171 -0.6222
   20SAPC  H14B 2559   3.021   5.595  10.896  0.1675  1.2115 -1.0588
   20SAPC  H14C 2560   3.075   5.445  10.839 -2.7181  0.7971 -0.0354
   20SAPC   C15 2561   3.304   5.558  10.719 -0.4289  0.2380  0.4746
   20SAPC  H15A 2562   3.289   5.482  10.644 -4.3111  1.7379 -0.5132
   20SAPC  H15B 2563   3.377   5.622  10.672 -0.0115 -1.5730 -1.5029
   20SAPC  H15C 2564   3.348   5.519  10.810 -0.6358 -2.4225 -0.5011
   20SAPC   C11 2565   3.140   5.740  10.525 -0.3033  0.5112 -0.2868
   20SAPC  H11A 2566   3.083   5.713  10.434  2.1220  1.8170 -2.3446
   20SAPC  H11B 2567   3.248   5.714  10.513  0.3380  1.2070  3.0895
   20SAPC     P 2568   2.999   5.958  10.595 -0.0323  0.2710 -0.5247
   20SAPC   O13 2569   2.907   5.866  10.661 -0.0728  0.2386 -0.4332
   20SAPC   O14 2570   3.030   6.091  10.662 -0.2859  0.2112 -0.1128
   20SAPC   O12 2571   3.141   5.878  10.562  0.1455  0.2030 -0.1907
   20SAPC   O11 2572   2.946   5.986  10.452 -0.1130 -0.3354 -0.4461
   20SAPC    C1 2573   3.004   6.077  10.366  0.4835  0.4733  0.0694
   20SAPC    HA 2574   2.939   6.168  10.369 -0.9940 -0.5690  0.8870
   20SAPC    HB 2575   3.112   6.096  10.385  1.0590  1.1806 -3.2990
   20SAPC    C2 2576   2.999   6.025  10.217 -0.2554  0.1137  0.4021
   20SAPC    HS 2577   2.897   5.980  10.205 -0.4619  0.5268  0.5991
   20SAPC   O21 2578   3.109   5.929  10.219  0.2431 -0.3969 -0.1783
   20SAPC   C21 2579   3.107   5.838  10.127 -0.0808 -0.8465  0.7319
   20SAPC   O22 2580   3.025   5.836  10.034  0.5604  0.6995 -0.6382
   20SAPC   C22 2581   3.229   5.745  10.142 -0.1375 -0.4989  0.5659
   20SAPC   H2R 2582   3.323   5.804  10.155  0.8195 -1.9760  0.6171
   20SAPC   H2S 2583   3.218   5.693  10.239  2.6487  2.5757  2.7411
   20SAPC    C3 2584   3.029   6.139  10.125 -0.7113  0.6456 -0.6302
   20SAPC    HX 2585   3.056   6.085  10.032  0.3987 -2.1494  1.1787
   20SAPC    HY 2586   3.120   6.196  10.151  0.6203 -2.3263  1.8101
   20SAPC   O31 2587   2.920   6.238  10.106  0.1780  0.4231 -0.3484
   20SAPC   C31 2588   2.937   6.313   9.992  0.1829 -0.4165 -0.6861
   20SAPC   O32 2589   3.025   6.296   9.916 -0.8811  0.2110  0.6987
   20SAPC   C32 2590   2.827   6.423   9.981  0.5199 -0.1233  1.1981
   20SAPC   H2X 2591   2.838   6.516  10.041  1.3513 -0.6223  1.8663
   20SAPC   H2Y 2592   2.740   6.359  10.007  0.5972 -2.0316 -2.6151
   20SAPC   C23 2593   3.255   5.677  10.008 -0.3453  0.7215 -0.7889
   20SAPC   H3R 2594   3.281   5.752   9.929 -1.0803  1.0925 -0.6841
   20SAPC   H3S 2595   3.159   5.632   9.975 -0.3810 -0.0524  0.3585
   20SAPC   C24 2596   3.351   5.564  10.010 -0.0433  0.9661 -0.7327
   20SAPC   H4R 2597   3.307   5.472  10.054  1.6349 -0.8235 -2.6147
   20SAPC   H4S 2598   3.447   5.591  10.058 -0.8426  0.3369  1.3228
   20SAPC   C25 2599   3.385   5.535   9.867  0.9364  1.1803 -0.0572
   20SAPC   H5R 2600   3.486   5.560   9.832  2.3557 -1.1414  2.1016
   20SAPC   C26 2601   3.321   5.455   9.780 -0.1323  0.0066  0.1677
   20SAPC   H6R 2602   3.374   5.438   9.685 -3.4351  1.8657 -2.1756
   20SAPC   C27 2603   3.187   5.388   9.806  0.2401 -0.0953 -0.7589
   20SAPC   H7R 2604   3.115   5.419   9.727  0.1077  0.6546 -0.3429
   20SAPC   H7S 2605   3.144   5.427   9.900 -0.5833  2.2128 -2.0110
   20SAPC   C28 2606   3.187   5.237   9.812 -0.3213 -0.5177  0.0971
   20SAPC   H8R 2607   3.239   5.189   9.897  0.3457 -0.2942 -0.1768
   20SAPC   C29 2608   3.140   5.143   9.722  0.1770 -0.0472 -0.2348
   20SAPC   H9R 2609   3.156   5.040   9.758  3.8027  1.2872  2.7205
   20SAPC  C210 2610   3.063   5.156   9.592  0.1155 -0.0271  0.0884
   20SAPC  H10R 2611   3.078   5.068   9.526  0.1505  0.4064 -0.4975
   20SAPC  H10S 2612   3.102   5.245   9.537 -2.1615  1.3639  0.6030
   20SAPC  C211 2613   2.918   5.181   9.625  0.9049  0.4336  0.1016
   20SAPC  H11R 2614   2.905   5.277   9.677  1.1300  0.7469 -0.4156
   20SAPC  C212 2615   2.813   5.093   9.619  0.4065  0.7250  0.7567
   20SAPC  H12R 2616   2.714   5.124   9.656  0.3858  2.6462 -0.7537
   20SAPC  C213 2617   2.828   4.948   9.575  0.5504  0.1657 -0.1444
   20SAPC  H13R 2618   2.754   4.887   9.632  2.4188 -1.8031  0.3375
   20SAPC  H13S 2619   2.927   4.903   9.602 -1.5093 -5.0758 -0.1233
   20SAPC  C214 2620   2.815   4.919   9.423  0.7381  0.0191 -0.0119
   20SAPC  H14R 2621   2.836   5.001   9.354 -0.0103  1.2734  1.2057
   20SAPC  C215 2622   2.801   4.797   9.380  0.1367 -0.5470  0.2638
   20SAPC  H15R 2623   2.788   4.791   9.270  1.2110  0.4535  0.0634
   20SAPC  C216 2624   2.790   4.666   9.451 -0.4689 -0.4554  0.2148
   20SAPC  H16R 2625   2.682   4.644   9.464 -1.2792  2.2729 -1.0723
   20SAPC  H16S 2626   2.845   4.664   9.547  0.7848 -1.9753 -0.4858
   20SAPC  C217 2627   2.840   4.546   9.361 -0.1387  0.0504  0.2296
   20SAPC  H17R 2628   2.946   4.562   9.332 -0.2525 -1.2785 -1.0771
   20SAPC  H17S 2629   2.784   4.541   9.265 -0.2607 -0.4350  0.3232
   20SAPC  C218 2630   2.839   4.412   9.431 -0.4147 -0.1454  0.0553
   20SAPC  H18R 2631   2.739   4.378   9.465 -1.5099  3.0152  0.3165
   20SAPC  H18S 2632   2.902   4.423   9.522  0.7561  0.4662 -0.7882
   20SAPC  C219 2633   2.890   4.303   9.331 -0.3316  0.5554  0.2340
   20SAPC  H19R 2634   2.818   4.309   9.247 -0.0846  1.3046  0.0709
   20SAPC  H19S 2635   2.870   4.210   9.390 -2.3161  0.2048 -0.9224
   20SAPC  C220 2636   3.032   4.310   9.279 -0.5157  0.1295 -0.0037
   20SAPC  H20R 2637   3.057   4.221   9.218 -1.2378  0.2056 -0.4167
   20SAPC  H20S 2638   3.109   4.313   9.360  1.1189  1.0664 -1.5108
   20SAPC  H20T 2639   3.050   4.399   9.215 -0.7209  1.1828  1.3396
   20SAPC   C33 2640   2.811   6.470   9.833 -0.2239 -0.4437 -0.6023
   20SAPC   H3X 2641   2.906   6.517   9.799  0.6471  0.0671  2.2693
   20SAPC   H3Y 2642   2.732   6.549   9.830  1.4916  1.3178 -1.0918
   20SAPC   C34 2643   2.759   6.352   9.740 -0.0331 -0.2872  0.8587
   20SAPC   H4X 2644   2.660   6.315   9.774 -0.2444 -0.9815 -0.4356
   20SAPC   H4Y 2645   2.821   6.262   9.758  1.2408  0.6332  1.2242
   20SAPC   C35 2646   2.757   6.386   9.590 -0.3030 -0.0221 -0.6139
   20SAPC   H5X 2647   2.853   6.438   9.565 -1.3248  3.1271  1.3594
   20SAPC   H5Y 2648   2.689   6.471   9.568  0.5079  0.9045  0.3102
   20SAPC   C36 2649   2.726   6.254   9.519  0.0175  0.1002  0.0238
   20SAPC   H6X 2650   2.624   6.223   9.548 -0.4482  1.3698 -0.1774
   20SAPC   H6Y 2651   2.799   6.176   9.550 -0.6857 -0.5694  0.0193
   20SAPC   C37 2652   2.725   6.267   9.371  0.0826 -0.1540 -0.5266
   20SAPC   H7X 2653   2.649   6.339   9.337 -0.4597 -0.1490  0.6342
   20SAPC   H7Y 2654   2.691   6.173   9.323 -0.5387 -0.4090  0.3923
   20SAPC   C38 2655   2.863   6.307   9.303  0.3787  0.7958 -0.0120
   20SAPC   H8X 2656   2.935   6.225   9.321 -0.3340 -0.0093 -0.7387
   20SAPC   H8Y 2657   2.902   6.409   9.327 -0.5370  1.3618 -0.8279
   20SAPC   C39 2658   2.847   6.319   9.150  0.3571 -0.6338  0.7452
   20SAPC   H9X 2659   2.770   6.393   9.117  0.1622 -1.0999  0.1343
   20SAPC   H9Y 2660   2.811   6.226   9.102 -1.4405  0.5288 -0.2812
   20SAPC  C310 2661   2.988   6.347   9.096  0.1579 -0.3549 -0.3275
   20SAPC  H10X 2662   3.050   6.256   9.113 -0.4758 -0.6610  0.3693
   20SAPC  H10Y 2663   3.031   6.440   9.138 -2.0039  0.7517 -0.3868
   20SAPC  C311 2664   2.995   6.368   8.945  0.1122 -0.0500  0.1835
   20SAPC  H11X 2665   2.913   6.440   8.924  2.6980  2.6562 -1.4072
   20SAPC  H11Y 2666   2.971   6.269   8.903  0.1988 -0.0578  0.1535
   20SAPC  C312 2667   3.126   6.432   8.892 -0.7854  0.1888 -0.1311
   20SAPC  H12X 2668   3.201   6.351   8.902 -1.0609 -0.6158 -3.4323
   20SAPC  H12Y 2669   3.161   6.514   8.958 -0.2686 -0.5394  0.5025
   20SAPC  C313 2670   3.123   6.478   8.743  0.0640 -0.4613  0.0219
   20SAPC  H13X 2671   3.031   6.540   8.739  0.8074  0.7432  0.8295
   20SAPC  H13Y 2672   3.102   6.397   8.670  3.7327 -0.5423 -1.1498
   20SAPC  C314 2673   3.252   6.555   8.700  1.3713  0.5709 -0.0367
   20SAPC  H14X 2674   3.320   6.485   8.646 -0.5699 -0.4406 -1.3016
   20SAPC  H14Y 2675   3.297   6.608   8.786  1.5090 -0.4698  0.5543
   20SAPC  C315 2676   3.221   6.673   8.607 -0.5019  0.1460  0.2385
   20SAPC  H15X 2677   3.318   6.728   8.608  1.6893 -3.1659 -2.3923
   20SAPC  H15Y 2678   3.131   6.728   8.639  0.2557  2.1652 -0.9187
   20SAPC  C316 2679   3.191   6.638   8.461  1.0292 -0.2390  0.1293
   20SAPC  H16X 2680   3.119   6.554   8.457 -0.1749  0.6795  1.4761
   20SAPC  H16Y 2681   3.284   6.598   8.416 -0.2172 -1.2584 -1.6650
   20SAPC  C317 2682   3.142   6.751   8.378  0.3264 -0.5099 -0.0502
   20SAPC  H17X 2683   3.049   6.787   8.426  1.2335  2.8915 -0.5902
   20SAPC  H17Y 2684   3.117   6.722   8.273 -1.3960  1.6721 -0.3113
   20SAPC  C318 2685   3.221   6.880   8.372 -0.3340 -0.6120 -0.5971
   20SAPC  H18X 2686   3.193   6.958   8.446 -0.2749 -1.4433  0.3095
   20SAPC  H18Y 2687   3.209   6.927   8.272  1.2274 -1.0448 -1.0084
   20SAPC  H18Z 2688   3.330   6.861   8.379 -0.6085 -1.8019  1.1276
   21SAPC     N 2689   1.772   2.935  11.082  0.1199  0.3179 -0.4313
   21SAPC   C12 2690   1.750   2.908  10.936  0.2278  0.1547  0.1769
   21SAPC  H12A 2691   1.672   2.975  10.904 -0.1372  0.4671  1.6279
   21SAPC  H12B 2692   1.717   2.807  10.920  4.0284 -1.5597  1.7878
   21SAPC   C13 2693   1.805   3.076  11.110 -0.3948 -0.4049  0.3091
   21SAPC  H13A 2694   1.903   3.100  11.070 -1.4905  0.2780 -2.1775
   21SAPC  H13B 2695   1.735   3.141  11.059 -0.6255 -1.2581 -0.4947
   21SAPC  H13C 2696   1.800   3.111  11.212  1.9607  0.5823  0.1510
   21SAPC   C14 2697   1.646   2.902  11.160 -0.0766 -1.0099  0.4531
   21SAPC  H14A 2698   1.654   2.943  11.259 -0.2318 -3.6198  1.6439
   21SAPC  H14B 2699   1.563   2.940  11.102  1.1484  0.7863 -0.1935
   21SAPC  H14C 2700   1.635   2.795  11.170  4.2660 -1.6925 -0.2288
   21SAPC   C15 2701   1.877   2.847  11.141  0.7880 -0.1092  0.4715
   21SAPC  H15A 2702   1.844   2.744  11.146  0.6502 -0.1703 -1.0501
   21SAPC  H15B 2703   1.971   2.856  11.089  0.6766  0.5706  0.3798
   21SAPC  H15C 2704   1.907   2.878  11.240  0.4962 -1.1303  0.9015
   21SAPC   C11 2705   1.865   2.916  10.833  0.5087  0.9116  0.4478
   21SAPC  H11A 2706   1.841   2.893  10.727  2.6230 -0.5419  0.2156
   21SAPC  H11B 2707   1.937   2.837  10.863  1.3766  1.3887 -0.3083
   21SAPC     P 2708   1.878   3.170  10.760  0.3744 -0.3425  0.2919
   21SAPC   O13 2709   1.744   3.213  10.804  0.4193  0.0817 -0.0920
   21SAPC   O14 2710   1.993   3.264  10.773 -0.1558  0.0835 -0.2124
   21SAPC   O12 2711   1.929   3.044  10.837 -0.1848 -0.4207 -0.0141
   21SAPC   O11 2712   1.876   3.121  10.607  0.9002 -0.6759  0.4106
   21SAPC    C1 2713   1.938   3.190  10.495  0.6915  0.3845 -0.0569
   21SAPC    HA 2714   2.045   3.203  10.522  0.2916  1.5723  1.0709
   21SAPC    HB 2715   1.925   3.122  10.409 -0.6881 -2.2998  2.1058
   21SAPC    C2 2716   1.872   3.331  10.464 -0.1757 -0.3037 -0.8637
   21SAPC    HS 2717   1.856   3.388  10.559 -0.0224 -1.3796 -0.1759
   21SAPC   O21 2718   1.732   3.292  10.420  0.2517  0.2462 -0.0296
   21SAPC   C21 2719   1.635   3.388  10.436  0.0271  0.5834 -0.1327
   21SAPC   O22 2720   1.665   3.500  10.477  0.3107  0.0447 -0.1582
   21SAPC   C22 2721   1.491   3.328  10.404  0.6150 -0.5770 -0.4098
   21SAPC   H2R 2722   1.509   3.229  10.357  3.5624 -1.0684  1.5030
   21SAPC   H2S 2723   1.444   3.315  10.504 -1.1943 -1.0073 -1.2754
   21SAPC    C3 2724   1.943   3.419  10.357 -0.2187  0.3167 -0.6673
   21SAPC    HX 2725   2.044   3.448  10.393  0.2692 -1.0244 -0.9184
   21SAPC    HY 2726   1.897   3.520  10.352  2.1509  1.4988 -0.0054
   21SAPC   O31 2727   1.934   3.354  10.229 -0.3698  0.2135 -0.2381
   21SAPC   C31 2728   2.054   3.364  10.158  0.5639  0.0611  0.2069
   21SAPC   O32 2729   2.157   3.414  10.197  0.1515 -0.1731 -0.3209
   21SAPC   C32 2730   2.020   3.290  10.021 -0.3940 -0.2536 -0.5561
   21SAPC   H2X 2731   1.937   3.352   9.982 -0.4181  0.0555 -0.0243
   21SAPC   H2Y 2732   1.991   3.187  10.053 -0.8609 -0.0698 -0.3759
   21SAPC   C23 2733   1.408   3.422  10.317  0.4597  1.5130  0.3192
   21SAPC   H3R 2734   1.399   3.516  10.376  1.0458 -0.9536  4.8501
   21SAPC   H3S 2735   1.305   3.382  10.303  1.7239 -1.7700 -0.4730
   21SAPC   C24 2736   1.473   3.428  10.176  0.2384  0.0610 -0.7533
   21SAPC   H4R 2737   1.388   3.440  10.105 -1.8599  0.8999  1.7762
   21SAPC   H4S 2738   1.509   3.324  10.164 -1.4322 -1.1987  3.5036
   21SAPC   C25 2739   1.577   3.535  10.156  0.5985 -0.2749 -0.2948
   21SAPC   H5R 2740   1.601   3.601  10.241  2.3153 -1.1132 -0.0875
   21SAPC   C26 2741   1.650   3.553  10.043 -0.0732 -0.7335  0.5685
   21SAPC   H6R 2742   1.718   3.639  10.043 -0.7351 -0.1908 -0.7337
   21SAPC   C27 2743   1.637   3.482   9.906 -0.7965 -0.7434  0.3778
   21SAPC   H7R 2744   1.603   3.377   9.910  2.9569 -2.0827  0.5467
   21SAPC   H7S 2745   1.737   3.463   9.861 -0.7429 -2.3358  1.1309
   21SAPC   C28 2746   1.548   3.552   9.812  0.5486 -0.0417 -0.4680
   21SAPC   H8R 2747   1.455   3.583   9.861  1.9895  1.1376  1.6837
   21SAPC   C29 2748   1.563   3.570   9.676 -0.7340  0.2225 -0.4565
   21SAPC   H9R 2749   1.491   3.622   9.611 -1.2969 -1.7887 -1.5316
   21SAPC  C210 2750   1.687   3.505   9.606 -0.3762 -0.2466  0.2101
   21SAPC  H10R 2751   1.669   3.395   9.599  1.1228 -0.4154 -2.4689
   21SAPC  H10S 2752   1.780   3.509   9.666 -0.9121  0.2671  1.0229
   21SAPC  C211 2753   1.711   3.558   9.466  0.6637 -0.1468 -0.2094
   21SAPC  H11R 2754   1.719   3.667   9.473 -3.0231  0.1883  0.9021
   21SAPC  C212 2755   1.710   3.492   9.349 -0.4086 -0.5714 -0.4332
   21SAPC  H12R 2756   1.725   3.546   9.254  0.1665  1.9811  1.0243
   21SAPC  C213 2757   1.685   3.350   9.323 -0.0811  0.2304  0.0926
   21SAPC  H13R 2758   1.677   3.286   9.413  2.4719 -0.3972 -0.0268
   21SAPC  H13S 2759   1.774   3.311   9.268 -0.6342 -1.0409  0.0763
   21SAPC  C214 2760   1.557   3.348   9.244  0.0171 -0.3362 -0.2622
   21SAPC  H14R 2761   1.460   3.376   9.286 -0.1307 -1.7679  0.4322
   21SAPC  C215 2762   1.545   3.301   9.115  0.2792 -0.5933 -0.7753
   21SAPC  H15R 2763   1.448   3.300   9.063 -0.9525 -0.2003  1.3724
   21SAPC  C216 2764   1.661   3.240   9.035  0.0121  0.4629  0.2489
   21SAPC  H16R 2765   1.625   3.161   8.966  0.2983  2.2667 -2.1028
   21SAPC  H16S 2766   1.731   3.202   9.113 -0.3271  0.5432  0.5960
   21SAPC  C217 2767   1.738   3.347   8.950 -0.1058 -0.0129  0.6200
   21SAPC  H17R 2768   1.820   3.292   8.899  1.2940  0.0926  2.6507
   21SAPC  H17S 2769   1.784   3.418   9.022  1.4049 -0.5139  0.1799
   21SAPC  C218 2770   1.651   3.414   8.847  0.5715 -0.4257  0.2551
   21SAPC  H18R 2771   1.712   3.494   8.800  1.1448 -1.6560 -1.1975
   21SAPC  H18S 2772   1.563   3.454   8.901  0.5281  0.5980 -0.5374
   21SAPC  C219 2773   1.581   3.333   8.732 -0.4966  0.6567  0.1817
   21SAPC  H19R 2774   1.508   3.399   8.681  0.3976  0.6240 -1.1986
   21SAPC  H19S 2775   1.531   3.244   8.775  1.1752 -0.8998 -0.9473
   21SAPC  C220 2776   1.679   3.287   8.617 -0.0759 -0.0379  0.0747
   21SAPC  H20R 2777   1.634   3.209   8.552  0.9496 -1.9515  1.5580
   21SAPC  H20S 2778   1.763   3.226   8.657 -1.6578 -0.1378  3.5416
   21SAPC  H20T 2779   1.716   3.375   8.560  1.1945 -1.6909 -1.7910
   21SAPC   C33 2780   2.141   3.290   9.920 -0.4465  0.3938  0.0471
   21SAPC   H3X 2781   2.223   3.227   9.961  0.8676  0.8068 -1.8232
   21SAPC   H3Y 2782   2.183   3.393   9.913  0.2986  0.0436 -0.9357
   21SAPC   C34 2783   2.106   3.250   9.778  1.3197  0.6221 -0.4188
   21SAPC   H4X 2784   2.010   3.196   9.770  2.1466 -0.9089 -0.4920
   21SAPC   H4Y 2785   2.181   3.179   9.734  1.1630  0.8304 -1.0391
   21SAPC   C35 2786   2.089   3.376   9.692 -0.1146  0.1323  0.2107
   21SAPC   H5X 2787   2.183   3.436   9.688 -0.6283  0.9178 -0.3899
   21SAPC   H5Y 2788   2.016   3.446   9.738  0.2828  0.5293  0.2557
   21SAPC   C36 2789   2.040   3.352   9.543 -0.0112  0.3805 -0.0075
   21SAPC   H6X 2790   2.040   3.446   9.485 -2.1002  2.1095  2.5370
   21SAPC   H6Y 2791   1.933   3.322   9.539  0.4267 -1.2316 -0.9133
   21SAPC   C37 2792   2.124   3.234   9.487 -0.0051 -0.8802  0.0968
   21SAPC   H7X 2793   2.085   3.141   9.535  0.5034 -1.1214  0.0562
   21SAPC   H7Y 2794   2.226   3.269   9.514  0.5937 -0.0412 -2.9006
   21SAPC   C38 2795   2.134   3.216   9.338 -0.0105  0.0118  0.6319
   21SAPC   H8X 2796   2.230   3.160   9.330  0.1014  0.2836  0.0184
   21SAPC   H8Y 2797   2.144   3.310   9.280 -1.4075  0.1154  0.5151
   21SAPC   C39 2798   2.040   3.124   9.272 -0.1561  0.0349 -0.1556
   21SAPC   H9X 2799   1.942   3.174   9.285  0.5342  1.3190  0.3079
   21SAPC   H9Y 2800   2.048   3.030   9.330 -0.3323  2.2247  3.7652
   21SAPC  C310 2801   2.085   3.087   9.132 -0.3489 -0.2828 -0.6596
   21SAPC  H10X 2802   2.181   3.031   9.135 -0.2865 -0.1358  1.3725
   21SAPC  H10Y 2803   2.106   3.180   9.075  1.6960 -0.2167  0.1415
   21SAPC  C311 2804   1.977   3.001   9.058  0.2929  0.1321 -0.8660
   21SAPC  H11X 2805   1.884   3.062   9.048  0.9637  1.1206 -1.2976
   21SAPC  H11Y 2806   1.964   2.918   9.130 -2.1965  1.3337  0.1997
   21SAPC  C312 2807   2.011   2.944   8.923 -0.9384  0.1089  0.3857
   21SAPC  H12X 2808   1.924   2.907   8.866 -0.5033  0.0950 -0.2855
   21SAPC  H12Y 2809   2.096   2.873   8.938  2.4555  3.4297 -1.3474
   21SAPC  C313 2810   2.094   3.043   8.833  0.3395 -0.1685  0.1542
   21SAPC  H13X 2811   2.185   3.073   8.889  0.4602  1.1518 -0.7214
   21SAPC  H13Y 2812   2.035   3.134   8.807  1.4154 -0.2471 -2.9857
   21SAPC  C314 2813   2.140   2.985   8.701 -0.7160 -0.0696 -0.0613
   21SAPC  H14X 2814   2.057   2.935   8.648 -2.4960  2.2247  0.3467
   21SAPC  H14Y 2815   2.210   2.900   8.713 -0.7609  0.1250  2.0228
   21SAPC  C315 2816   2.202   3.087   8.603 -0.2217 -0.2693 -0.3020
   21SAPC  H15X 2817   2.122   3.163   8.586 -2.1294 -1.7456  1.5028
   21SAPC  H15Y 2818   2.232   3.030   8.513  3.1340  1.7130 -0.6307
   21SAPC  C316 2819   2.330   3.144   8.657  0.7266 -0.1029 -0.2783
   21SAPC  H16X 2820   2.390   3.057   8.691  1.0582  0.4644  0.6196
   21SAPC  H16Y 2821   2.303   3.208   8.744  1.7125 -0.5456  0.3651
   21SAPC  C317 2822   2.416   3.224   8.553 -0.0022  0.0234  0.3949
   21SAPC  H17X 2823   2.486   3.293   8.605 -0.5412  0.3942  0.6506
   21SAPC  H17Y 2824   2.352   3.290   8.490  2.0414  1.2650 -0.4725
   21SAPC  C318 2825   2.490   3.133   8.453  0.4634 -0.2851  0.5155
   21SAPC  H18X 2826   2.540   3.202   8.381 -1.6090 -0.7732 -1.5524
   21SAPC  H18Y 2827   2.420   3.074   8.390  0.2793 -0.1423  0.5858
   21SAPC  H18Z 2828   2.564   3.064   8.498  0.9678 -0.8215 -1.0732
   22SAPC     N 2829   1.782   1.780  10.790  0.3950 -0.0361 -0.2984
   22SAPC   C12 2830   1.796   1.913  10.869 -0.1687  0.0979 -0.7280
   22SAPC  H12A 2831   1.897   1.948  10.855 -0.1362  1.1991  1.8596
   22SAPC  H12B 2832   1.789   1.902  10.976 -1.1716 -1.2283 -0.9035
   22SAPC   C13 2833   1.900   1.693  10.838 -0.1740  0.1229  0.2554
   22SAPC  H13A 2834   1.992   1.730  10.796  0.4329 -0.8954  0.6351
   22SAPC  H13B 2835   1.907   1.687  10.945  1.5141  3.7249  0.4734
   22SAPC  H13C 2836   1.898   1.590  10.806 -1.4145 -0.4029  1.9040
   22SAPC   C14 2837   1.651   1.717  10.820  0.2391 -0.0944  0.5461
   22SAPC  H14A 2838   1.570   1.772  10.775  0.8913  1.7192  1.4821
   22SAPC  H14B 2839   1.649   1.616  10.781 -1.5492 -0.2924  1.1096
   22SAPC  H14C 2840   1.625   1.728  10.924  1.8959 -0.3111  1.0267
   22SAPC   C15 2841   1.786   1.806  10.646 -0.1719 -0.3171 -0.0882
   22SAPC  H15A 2842   1.863   1.876  10.615  0.3103 -0.4600  0.7431
   22SAPC  H15B 2843   1.793   1.710  10.597 -1.5693 -1.5380  1.9207
   22SAPC  H15C 2844   1.693   1.843  10.606  0.4534  2.1820  0.5931
   22SAPC   C11 2845   1.694   2.027  10.837  0.2239  0.0121  0.3418
   22SAPC  H11A 2846   1.597   1.992  10.876 -0.7180  1.5567 -0.5324
   22SAPC  H11B 2847   1.682   2.043  10.727 -0.8286 -1.1766  0.2584
   22SAPC     P 2848   1.867   2.231  10.861 -0.0151  0.1726 -0.1497
   22SAPC   O13 2849   1.848   2.367  10.917 -0.3974  0.4767  0.1414
   22SAPC   O14 2850   1.979   2.145  10.890 -0.3840 -0.3751 -0.8596
   22SAPC   O12 2851   1.737   2.146  10.902 -0.1772 -0.2350 -0.0535
   22SAPC   O11 2852   1.837   2.248  10.709  0.4170 -0.0087 -1.1237
   22SAPC    C1 2853   1.898   2.178  10.606 -0.2200  0.1627  0.1870
   22SAPC    HA 2854   1.988   2.233  10.572 -0.3807  0.4616  0.2402
   22SAPC    HB 2855   1.925   2.073  10.626  0.0934  0.3465  0.7314
   22SAPC    C2 2856   1.807   2.180  10.482 -0.7955 -0.3791 -0.1215
   22SAPC    HS 2857   1.754   2.082  10.473  0.1535 -0.8208 -1.0566
   22SAPC   O21 2858   1.886   2.196  10.357 -0.3781  0.2814  0.4210
   22SAPC   C21 2859   1.965   2.088  10.320  0.4409 -0.6673  0.2101
   22SAPC   O22 2860   1.976   1.993  10.385 -0.6433  0.5183  0.0982
   22SAPC   C22 2861   2.066   2.114  10.212  0.4118 -0.5458 -0.2299
   22SAPC   H2R 2862   2.114   2.209  10.244  0.3077 -0.3988 -0.5101
   22SAPC   H2S 2863   2.136   2.028  10.209  1.4371  0.2824 -3.1222
   22SAPC    C3 2864   1.695   2.291  10.488 -0.3510 -0.8547  0.1277
   22SAPC    HX 2865   1.742   2.389  10.513 -0.4234 -1.0587  1.1027
   22SAPC    HY 2866   1.623   2.253  10.564  0.9903  1.7996  2.9388
   22SAPC   O31 2867   1.616   2.295  10.368 -0.3617 -0.3712  0.2135
   22SAPC   C31 2868   1.583   2.413  10.318 -0.8416 -0.4279 -1.0317
   22SAPC   O32 2869   1.601   2.523  10.372 -0.1887 -0.2212  0.1411
   22SAPC   C32 2870   1.522   2.387  10.175 -0.7421  0.3309  0.1169
   22SAPC   H2X 2871   1.422   2.342  10.191 -1.0392  0.6459 -0.8439
   22SAPC   H2Y 2872   1.584   2.309  10.127 -1.5311 -0.7957  0.8850
   22SAPC   C23 2873   2.005   2.141  10.068  0.4882  0.0015  0.1526
   22SAPC   H3R 2874   2.097   2.166  10.010  0.4607 -1.5098 -0.5930
   22SAPC   H3S 2875   1.950   2.237  10.070  4.1301  2.3432 -1.3386
   22SAPC   C24 2876   1.927   2.031   9.991  0.1665  0.2165  0.3657
   22SAPC   H4R 2877   1.913   2.078   9.892  0.3511  0.9899  0.7044
   22SAPC   H4S 2878   1.824   2.017  10.030 -2.5774  1.3271 -5.5212
   22SAPC   C25 2879   2.011   1.906   9.989  0.0957  0.2331 -0.0960
   22SAPC   H5R 2880   2.023   1.864  10.090  0.4286  0.8540  0.1243
   22SAPC   C26 2881   2.062   1.837   9.879 -0.3867 -0.4666 -0.2439
   22SAPC   H6R 2882   2.114   1.746   9.913 -3.4452 -1.7212  1.5090
   22SAPC   C27 2883   2.051   1.875   9.730  0.0617  0.1421  0.0969
   22SAPC   H7R 2884   1.946   1.881   9.696 -0.3124 -1.0558  0.9631
   22SAPC   H7S 2885   2.082   1.790   9.667 -1.2136 -0.4585  0.2520
   22SAPC   C28 2886   2.129   1.999   9.687 -0.4612  0.7046 -0.3128
   22SAPC   H8R 2887   2.167   2.055   9.773  3.7923  0.4983 -1.8385
   22SAPC   C29 2888   2.167   2.037   9.561 -0.2872  0.3994 -0.1943
   22SAPC   H9R 2889   2.228   2.129   9.555  1.5191 -0.6962  0.7943
   22SAPC  C210 2890   2.133   1.977   9.425  0.0755 -0.3837 -0.1653
   22SAPC  H10R 2891   2.090   1.876   9.441  0.0135 -0.2286  0.7084
   22SAPC  H10S 2892   2.230   1.954   9.376  0.7328  0.0858  0.8817
   22SAPC  C211 2893   2.062   2.065   9.329  1.0666 -0.2189  0.8852
   22SAPC  H11R 2894   2.005   2.151   9.365  2.0945  1.2778 -0.8782
   22SAPC  C212 2895   2.050   2.035   9.190 -0.6064  0.0319 -0.2671
   22SAPC  H12R 2896   1.990   2.096   9.121  0.2771 -0.1617 -1.2392
   22SAPC  C213 2897   2.112   1.906   9.127 -0.2026  0.9402  0.4771
   22SAPC  H13R 2898   2.031   1.864   9.064  2.3258 -2.7112 -0.6931
   22SAPC  H13S 2899   2.106   1.823   9.200 -0.8667  1.4027  0.9690
   22SAPC  C214 2900   2.245   1.899   9.061  0.0867 -1.1982  0.1415
   22SAPC  H14R 2901   2.326   1.880   9.133  0.5079 -0.5054 -0.1386
   22SAPC  C215 2902   2.275   1.912   8.931 -0.0943  0.1807 -0.4463
   22SAPC  H15R 2903   2.379   1.910   8.896  0.8598  3.6126  1.6317
   22SAPC  C216 2904   2.167   1.939   8.828 -0.1967  0.5668 -0.3213
   22SAPC  H16R 2905   2.213   2.014   8.760  0.9579 -0.1766 -0.3964
   22SAPC  H16S 2906   2.079   1.982   8.880  0.8856  0.0788  2.0663
   22SAPC  C217 2907   2.128   1.804   8.763 -1.0486 -0.0320 -0.2001
   22SAPC  H17R 2908   2.066   1.747   8.835  1.1127 -1.2807  0.7738
   22SAPC  H17S 2909   2.210   1.739   8.724 -1.4851  0.5539 -2.2416
   22SAPC  C218 2910   2.050   1.834   8.629  0.1569 -0.5203 -0.1824
   22SAPC  H18R 2911   2.123   1.859   8.549 -0.9986  0.8511 -0.8491
   22SAPC  H18S 2912   1.973   1.914   8.634 -0.1315 -0.7039 -1.2668
   22SAPC  C219 2913   1.954   1.720   8.583 -0.1855  0.7355 -0.4802
   22SAPC  H19R 2914   1.890   1.689   8.668  1.4563 -0.1215  0.4863
   22SAPC  H19S 2915   2.027   1.643   8.552 -1.9065 -0.8892 -0.6923
   22SAPC  C220 2916   1.869   1.774   8.466 -0.0492 -0.0898  0.1931
   22SAPC  H20R 2917   1.940   1.829   8.399  1.6395 -0.6409  1.4522
   22SAPC  H20S 2918   1.792   1.849   8.495  0.5194  1.0781 -1.1857
   22SAPC  H20T 2919   1.815   1.698   8.406 -0.1574  0.1829 -0.0565
   22SAPC   C33 2920   1.522   2.516  10.092  0.0334 -1.2988 -0.6475
   22SAPC   H3X 2921   1.618   2.568  10.072  0.6199 -1.6873  0.9604
   22SAPC   H3Y 2922   1.457   2.586  10.149  0.7431  0.3428 -1.8081
   22SAPC   C34 2923   1.449   2.493   9.958  0.2283 -0.1926  0.4762
   22SAPC   H4X 2924   1.341   2.491   9.986  0.1767 -0.1148  0.2826
   22SAPC   H4Y 2925   1.462   2.393   9.910  2.7613  0.8346 -1.1376
   22SAPC   C35 2926   1.475   2.605   9.853 -0.0328 -0.4828  0.2715
   22SAPC   H5X 2927   1.460   2.705   9.900 -1.1113 -0.7956  0.6364
   22SAPC   H5Y 2928   1.401   2.593   9.771 -1.8911 -0.3711  1.8486
   22SAPC   C36 2929   1.608   2.612   9.788 -0.3579  0.4834  0.5887
   22SAPC   H6X 2930   1.684   2.631   9.866 -0.5374 -1.3302  1.2476
   22SAPC   H6Y 2931   1.624   2.689   9.710  0.2715  0.6346  0.8551
   22SAPC   C37 2932   1.658   2.479   9.724 -0.1222  1.0768 -0.4283
   22SAPC   H7X 2933   1.586   2.452   9.645 -0.6164 -0.5667  0.5390
   22SAPC   H7Y 2934   1.635   2.399   9.797  0.5258  0.3892 -0.9651
   22SAPC   C38 2935   1.804   2.465   9.686 -0.4719  0.6769 -0.0423
   22SAPC   H8X 2936   1.849   2.408   9.770  0.4616 -0.6052 -1.3635
   22SAPC   H8Y 2937   1.868   2.556   9.690  0.1188  0.2558  0.3152
   22SAPC   C39 2938   1.824   2.392   9.555  0.0861  0.5225 -1.0500
   22SAPC   H9X 2939   1.761   2.301   9.550 -0.5748  0.9997 -1.5768
   22SAPC   H9Y 2940   1.928   2.354   9.553  0.0102  0.0552  1.2248
   22SAPC  C310 2941   1.799   2.470   9.427  0.4056 -0.3891  0.6703
   22SAPC  H10X 2942   1.823   2.576   9.450 -3.5311  0.6745  0.7718
   22SAPC  H10Y 2943   1.692   2.475   9.395  0.7604 -0.5561 -0.5799
   22SAPC  C311 2944   1.886   2.422   9.304  0.2510 -0.0478  0.0770
   22SAPC  H11X 2945   1.824   2.352   9.245 -0.3330  1.4077 -1.0867
   22SAPC  H11Y 2946   1.985   2.377   9.330  0.1897  0.3521  1.0521
   22SAPC  C312 2947   1.904   2.534   9.208 -0.1358 -0.2371 -0.3663
   22SAPC  H12X 2948   1.999   2.588   9.230 -0.3998  0.0562  0.0721
   22SAPC  H12Y 2949   1.815   2.599   9.218  1.1044  1.5084 -0.0703
   22SAPC  C313 2950   1.917   2.480   9.064 -0.5528  0.4158  0.0090
   22SAPC  H13X 2951   1.832   2.415   9.035 -0.1151  0.6272 -1.9348
   22SAPC  H13Y 2952   1.999   2.406   9.051 -1.1366  0.0393 -2.0471
   22SAPC  C314 2953   1.933   2.592   8.961 -0.0498 -0.3846 -0.7444
   22SAPC  H14X 2954   2.019   2.650   9.001  1.0789 -0.3752 -3.0173
   22SAPC  H14Y 2955   1.837   2.647   8.958  0.0244 -0.2893 -1.5621
   22SAPC  C315 2956   1.977   2.535   8.828 -0.2164 -0.3426  0.2278
   22SAPC  H15X 2957   1.907   2.455   8.799 -0.3587 -0.0806 -0.1538
   22SAPC  H15Y 2958   2.080   2.494   8.839  0.5750  1.9712  2.6160
   22SAPC  C316 2959   1.982   2.639   8.716  0.5053 -0.3843  0.0315
   22SAPC  H16X 2960   2.063   2.713   8.733  0.6941 -0.4266 -0.6404
   22SAPC  H16Y 2961   1.882   2.688   8.710  0.8373  0.2918 -0.1507
   22SAPC  C317 2962   2.016   2.568   8.586 -0.2943 -0.4688  0.1092
   22SAPC  H17X 2963   1.949   2.479   8.586 -2.1424  0.8456 -0.8534
   22SAPC  H17Y 2964   2.124   2.541   8.588 -0.0284  0.5222 -0.3165
   22SAPC  C318 2965   1.974   2.662   8.470  0.8634  0.4421  0.4240
   22SAPC  H18X 2966   1.862   2.662   8.471  0.8480  0.5945  2.2778
   22SAPC  H18Y 2967   2.012   2.616   8.377  1.2421 -0.7135  1.1353
   22SAPC  H18Z 2968   2.031   2.755   8.492  4.9164 -1.3209 -1.6708
   23SAPC     N 2969   4.436   3.326  11.007  0.1293  0.0632  0.7894
   23SAPC   C12 2970   4.447   3.359  10.860  0.1476 -0.7395 -0.0462
   23SAPC  H12A 2971   4.512   3.285  10.817  0.5827 -1.1530  1.2693
   23SAPC  H12B 2972   4.501   3.452  10.849  0.6438 -1.1954 -1.7409
   23SAPC   C13 2973   4.567   3.324  11.070 -0.2367  0.0346  0.0795
   23SAPC  H13A 2974   4.616   3.419  11.051  0.5798 -0.8158 -2.4572
   23SAPC  H13B 2975   4.566   3.313  11.178 -0.5570  1.4981  0.2503
   23SAPC  H13C 2976   4.631   3.246  11.032  1.1130  1.2003 -0.1398
   23SAPC   C14 2977   4.345   3.416  11.074  0.3788 -1.0054  0.1257
   23SAPC  H14A 2978   4.348   3.392  11.179 -0.0372 -1.0281  0.1348
   23SAPC  H14B 2979   4.379   3.518  11.062  3.1164 -1.6085  1.8949
   23SAPC  H14C 2980   4.242   3.400  11.046  0.3877 -1.0388  0.1130
   23SAPC   C15 2981   4.385   3.184  11.017  0.1001 -0.4802  0.4315
   23SAPC  H15A 2982   4.295   3.169  10.959  0.3599  1.7470 -0.6658
   23SAPC  H15B 2983   4.447   3.108  10.972 -1.6418 -2.0053  0.4663
   23SAPC  H15C 2984   4.368   3.159  11.121 -1.7467 -1.5339 -0.0675
   23SAPC   C11 2985   4.319   3.367  10.778  0.5055 -0.5548 -0.0541
   23SAPC  H11A 2986   4.343   3.418  10.682 -0.3683  2.3629  1.1453
   23SAPC  H11B 2987   4.248   3.435  10.830 -0.5452  0.8336 -3.0522
   23SAPC     P 2988   4.315   3.133  10.665  0.1965 -0.2078 -0.2786
   23SAPC   O13 2989   4.442   3.087  10.725  0.1853 -0.2645  0.3661
   23SAPC   O14 2990   4.202   3.040  10.664  0.1128  0.8446  0.0451
   23SAPC   O12 2991   4.254   3.241  10.760 -0.1957  0.6828 -0.4211
   23SAPC   O11 2992   4.338   3.195  10.522  0.0250  0.2454  0.5562
   23SAPC    C1 2993   4.224   3.218  10.436  0.2710  0.4114  0.3889
   23SAPC    HA 2994   4.138   3.151  10.459 -0.0024 -0.0646 -1.8010
   23SAPC    HB 2995   4.169   3.312  10.458 -0.9903 -0.0547 -0.6548
   23SAPC    C2 2996   4.252   3.223  10.284  0.7721 -0.1244 -0.4053
   23SAPC    HS 2997   4.168   3.277  10.236  2.6617  0.1947 -3.6875
   23SAPC   O21 2998   4.264   3.098  10.221  0.1431  0.3310  0.3307
   23SAPC   C21 2999   4.177   3.004  10.236  0.9765  0.5359 -0.0572
   23SAPC   O22 3000   4.070   3.014  10.292 -0.5286  0.0711  0.1301
   23SAPC   C22 3001   4.216   2.879  10.161  0.5846 -0.2652 -0.1419
   23SAPC   H2R 3002   4.313   2.844  10.203  0.8256 -1.0631 -1.3249
   23SAPC   H2S 3003   4.141   2.803  10.190 -0.6539  0.5477 -1.0860
   23SAPC    C3 3004   4.375   3.300  10.259 -0.6451 -0.9351  0.0461
   23SAPC    HX 3005   4.461   3.233  10.280 -0.8974 -1.7441 -1.3521
   23SAPC    HY 3006   4.372   3.391  10.322 -1.6972 -0.8434 -0.1228
   23SAPC   O31 3007   4.375   3.338  10.114 -0.5768  0.1625  0.7299
   23SAPC   C31 3008   4.493   3.369  10.074  0.0226 -0.0136  0.3323
   23SAPC   O32 3009   4.597   3.372  10.144  0.1203 -0.0025 -0.5172
   23SAPC   C32 3010   4.478   3.424   9.933 -1.2455 -0.0290  0.3250
   23SAPC   H2X 3011   4.477   3.534   9.943 -0.0751 -0.0366  0.7520
   23SAPC   H2Y 3012   4.378   3.402   9.891 -1.7194  1.6822  0.5005
   23SAPC   C23 3013   4.219   2.891  10.004 -0.5575  0.8547  0.3957
   23SAPC   H3R 3014   4.266   2.799   9.964  0.5281  1.9106 -0.8766
   23SAPC   H3S 3015   4.283   2.980   9.987 -0.8884  1.5494  2.5311
   23SAPC   C24 3016   4.088   2.925   9.949  0.0736  0.8602  0.1636
   23SAPC   H4R 3017   4.062   3.022   9.996 -0.1029  0.4663  0.8964
   23SAPC   H4S 3018   3.999   2.867   9.981 -0.9487  1.4385 -1.4764
   23SAPC   C25 3019   4.087   2.899   9.802 -0.0470  0.0300  0.2028
   23SAPC   H5R 3020   4.081   2.797   9.760 -0.1368  0.2212 -0.2579
   23SAPC   C26 3021   4.103   2.995   9.716 -0.1391  0.6464 -0.4112
   23SAPC   H6R 3022   4.094   2.964   9.610 -1.1477 -0.7208  0.0595
   23SAPC   C27 3023   4.138   3.140   9.739 -0.0459  0.5799 -0.2587
   23SAPC   H7R 3024   4.150   3.163   9.847 -1.1643  1.0783 -0.2287
   23SAPC   H7S 3025   4.052   3.200   9.701  0.1191  0.5255 -0.7199
   23SAPC   C28 3026   4.252   3.200   9.661  0.5273 -0.0174 -0.6084
   23SAPC   H8R 3027   4.340   3.218   9.725 -1.1467 -0.0191  1.8475
   23SAPC   C29 3028   4.262   3.223   9.533  0.0292  0.4660  0.0315
   23SAPC   H9R 3029   4.350   3.276   9.493 -1.4044  3.4914  0.5829
   23SAPC  C210 3030   4.158   3.205   9.420 -0.5235  0.4439  0.2782
   23SAPC  H10R 3031   4.157   3.298   9.359  3.0206 -0.2865 -1.1132
   23SAPC  H10S 3032   4.058   3.204   9.470  0.8540 -1.7630  3.3230
   23SAPC  C211 3033   4.163   3.078   9.336 -0.0256  0.4189 -0.5883
   23SAPC  H11R 3034   4.123   2.983   9.376  1.4571 -0.4354 -1.0318
   23SAPC  C212 3035   4.210   3.068   9.214  0.1070 -0.3139  0.1510
   23SAPC  H12R 3036   4.202   2.971   9.163 -2.0477  0.5881 -1.3737
   23SAPC  C213 3037   4.271   3.180   9.134 -0.4831 -0.0736  0.2529
   23SAPC  H13R 3038   4.212   3.269   9.166  1.6193  1.0384  1.2511
   23SAPC  H13S 3039   4.276   3.159   9.026  2.3998 -0.1425  0.3339
   23SAPC  C214 3040   4.416   3.210   9.162  0.4567 -0.1413  0.2511
   23SAPC  H14R 3041   4.449   3.190   9.265  1.3897 -0.7155 -0.1540
   23SAPC  C215 3042   4.511   3.265   9.081  0.3996  0.2045 -0.5445
   23SAPC  H15R 3043   4.608   3.282   9.131  0.2722 -2.9149  0.9907
   23SAPC  C216 3044   4.515   3.314   8.938 -0.3574 -0.6287 -0.1792
   23SAPC  H16R 3045   4.413   3.312   8.894 -0.5772 -0.2839  0.3037
   23SAPC  H16S 3046   4.577   3.247   8.875  0.8139 -0.2545  0.5341
   23SAPC  C217 3047   4.570   3.457   8.932  0.5755  0.4871 -0.0054
   23SAPC  H17R 3048   4.663   3.465   8.993 -0.2816 -0.1076  1.4402
   23SAPC  H17S 3049   4.494   3.526   8.974 -0.6355 -0.4305 -0.6513
   23SAPC  C218 3050   4.598   3.495   8.781 -0.4256 -0.4197 -0.5310
   23SAPC  H18R 3051   4.616   3.604   8.772 -0.0445 -0.1708  2.3225
   23SAPC  H18S 3052   4.510   3.463   8.722 -0.5154 -1.7299  0.2871
   23SAPC  C219 3053   4.728   3.426   8.730 -0.8895 -0.7126  0.1387
   23SAPC  H19R 3054   4.735   3.319   8.757 -0.1366 -0.4700  0.9580
   23SAPC  H19S 3055   4.812   3.472   8.787  0.1691 -1.6419 -0.6405
   23SAPC  C220 3056   4.753   3.425   8.580  0.0042  0.4719 -0.2100
   23SAPC  H20R 3057   4.777   3.523   8.534  2.4329  0.0687  0.0910
   23SAPC  H20S 3058   4.672   3.368   8.529 -2.0701  1.1483  2.1225
   23SAPC  H20T 3059   4.839   3.365   8.544 -0.8908 -1.5638  0.8645
   23SAPC   C33 3060   4.589   3.393   9.829  0.0801  0.5075  0.2060
   23SAPC   H3X 3061   4.598   3.282   9.828 -0.6938  0.4372 -0.1773
   23SAPC   H3Y 3062   4.681   3.438   9.870 -0.0597  1.7175 -0.7565
   23SAPC   C34 3063   4.557   3.455   9.695 -0.2341  0.5099 -0.3452
   23SAPC   H4X 3064   4.575   3.565   9.705  1.9129  0.1447  0.1575
   23SAPC   H4Y 3065   4.450   3.437   9.669 -0.2672 -0.2561  0.3088
   23SAPC   C35 3066   4.648   3.396   9.586  0.5473 -1.1072  0.1242
   23SAPC   H5X 3067   4.620   3.292   9.557  2.8483 -1.7315 -0.0953
   23SAPC   H5Y 3068   4.747   3.395   9.637  0.7666  0.8883 -0.1861
   23SAPC   C36 3069   4.661   3.486   9.462  0.4925 -0.5516 -0.2053
   23SAPC   H6X 3070   4.665   3.595   9.479 -2.4672 -0.8983  4.7419
   23SAPC   H6Y 3071   4.567   3.474   9.405  0.7790 -1.4548 -0.5103
   23SAPC   C37 3072   4.787   3.447   9.376 -0.1134 -0.5537  0.0645
   23SAPC   H7X 3073   4.778   3.345   9.333 -0.5599 -0.3745 -0.2701
   23SAPC   H7Y 3074   4.885   3.451   9.429 -0.6356  1.2537  0.9783
   23SAPC   C38 3075   4.814   3.538   9.257 -0.5315 -0.2781  0.1327
   23SAPC   H8X 3076   4.822   3.645   9.287  1.6334 -0.3051 -0.1893
   23SAPC   H8Y 3077   4.722   3.534   9.195  0.1333 -0.4051 -0.8794
   23SAPC   C39 3078   4.929   3.488   9.169 -0.2461  0.2320  0.9874
   23SAPC   H9X 3079   4.905   3.384   9.139 -1.6684  1.0605 -0.9263
   23SAPC   H9Y 3080   5.024   3.479   9.226  1.1054 -0.9511 -1.3208
   23SAPC  C310 3081   4.953   3.565   9.038 -0.3249  0.4353 -0.6916
   23SAPC  H10X 3082   4.999   3.659   9.076  2.1236 -1.4020  1.2533
   23SAPC  H10Y 3083   4.864   3.589   8.977  1.0739  0.9022 -2.6169
   23SAPC  C311 3084   5.053   3.496   8.947  0.9538  0.8761  0.1781
   23SAPC  H11X 3085   4.997   3.406   8.913  0.5301  0.7491  1.1698
   23SAPC  H11Y 3086   5.143   3.458   8.999  1.0621  0.6451 -0.1719
   23SAPC  C312 3087   5.071   3.591   8.817  0.5387 -0.7182 -0.7651
   23SAPC  H12X 3088   4.983   3.656   8.800  0.0944 -1.4556 -1.3504
   23SAPC  H12Y 3089   5.078   3.533   8.723 -1.2132  0.3350 -1.5877
   23SAPC  C313 3090   5.196   3.672   8.832 -0.1455 -0.4550  0.0363
   23SAPC  H13X 3091   5.279   3.612   8.790 -0.1734 -0.4877  0.0260
   23SAPC  H13Y 3092   5.218   3.674   8.941 -1.2622  1.1123  0.2687
   23SAPC  C314 3093   5.192   3.819   8.790 -0.7588  0.6958 -0.4304
   23SAPC  H14X 3094   5.281   3.868   8.835 -1.2048 -1.6924  3.5062
   23SAPC  H14Y 3095   5.106   3.871   8.836 -1.6129  0.1637 -1.3648
   23SAPC  C315 3096   5.183   3.848   8.643 -0.4085 -0.3131  0.1691
   23SAPC  H15X 3097   5.086   3.821   8.597 -0.0600  1.7360 -1.9976
   23SAPC  H15Y 3098   5.272   3.816   8.585 -0.8110  1.3481 -1.4773
   23SAPC  C316 3099   5.212   4.002   8.627 -0.4585  0.3471 -0.8633
   23SAPC  H16X 3100   5.133   4.068   8.669 -1.5366 -1.5817  0.2377
   23SAPC  H16Y 3101   5.217   4.031   8.520  2.0648  2.4763 -0.3001
   23SAPC  C317 3102   5.344   4.071   8.685  0.2431  0.6612 -0.2530
   23SAPC  H17X 3103   5.425   3.998   8.707  3.4397  3.7457 -0.9922
   23SAPC  H17Y 3104   5.315   4.117   8.782  3.1404  2.5061 -0.1623
   23SAPC  C318 3105   5.400   4.170   8.587 -0.5222 -0.0885  0.3309
   23SAPC  H18X 3106   5.335   4.255   8.557  0.2635  0.0548 -1.1111
   23SAPC  H18Y 3107   5.416   4.117   8.490 -0.4904  0.4822  0.0118
   23SAPC  H18Z 3108   5.497   4.214   8.619 -0.8988  1.4901 -0.5867
   24SAPC     N 3109   6.584   1.561  10.802 -0.0271 -0.4240  0.8937
   24SAPC   C12 3110   6.476   1.593  10.902 -0.0788 -0.1690  0.3523
   24SAPC  H12A 3111   6.522   1.642  10.986 -2.6419  0.1270  1.6750
   24SAPC  H12B 3112   6.437   1.494  10.923 -0.2551 -0.0880  0.4112
   24SAPC   C13 3113   6.647   1.689  10.755  0.2242  0.4019  0.0564
   24SAPC  H13A 3114   6.721   1.677  10.678 -0.0427 -0.5803 -0.0609
   24SAPC  H13B 3115   6.571   1.764  10.738  1.4648  1.9826  1.1629
   24SAPC  H13C 3116   6.696   1.727  10.844  0.6059 -1.2178  0.5892
   24SAPC   C14 3117   6.688   1.468  10.854  0.2705  0.0661 -0.7967
   24SAPC  H14A 3118   6.649   1.368  10.868 -1.2810  0.7763  0.1109
   24SAPC  H14B 3119   6.770   1.460  10.783  0.0972 -1.2959 -0.8645
   24SAPC  H14C 3120   6.730   1.505  10.946 -1.4885  0.5140 -0.1517
   24SAPC   C15 3121   6.528   1.515  10.678  0.7249 -0.3268 -0.3094
   24SAPC  H15A 3122   6.496   1.413  10.691  1.4139 -0.6688 -1.2550
   24SAPC  H15B 3123   6.447   1.578  10.643  0.9881 -0.2872 -0.8521
   24SAPC  H15C 3124   6.603   1.526  10.602  2.3940  3.3340  1.5887
   24SAPC   C11 3125   6.360   1.684  10.862  0.2596  0.0686  0.1201
   24SAPC  H11A 3126   6.274   1.672  10.931  1.1007  0.5855  1.3035
   24SAPC  H11B 3127   6.320   1.649  10.765  0.0301 -1.4851  0.7412
   24SAPC     P 3128   6.352   1.935  10.942  0.0524 -0.0020 -0.2542
   24SAPC   O13 3129   6.205   1.906  10.967 -0.0623 -0.4042  0.4639
   24SAPC   O14 3130   6.441   1.956  11.056  0.2847  0.0404  1.1948
   24SAPC   O12 3131   6.409   1.821  10.848  0.1220 -0.2066  0.4041
   24SAPC   O11 3132   6.368   2.057  10.845  0.2640  0.9792  0.0378
   24SAPC    C1 3133   6.491   2.126  10.814 -0.2411 -0.0399  0.6332
   24SAPC    HA 3134   6.487   2.229  10.855  2.3474  0.2763  0.2082
   24SAPC    HB 3135   6.579   2.071  10.853  2.0440  2.9478 -0.0086
   24SAPC    C2 3136   6.506   2.139  10.661 -0.2159 -0.0850  0.2279
   24SAPC    HS 3137   6.421   2.199  10.620 -2.0158 -1.7773  1.2832
   24SAPC   O21 3138   6.503   2.002  10.616 -0.2301 -0.1735  0.1997
   24SAPC   C21 3139   6.439   1.978  10.497  0.6740 -0.1274 -0.0981
   24SAPC   O22 3140   6.375   2.064  10.435 -0.2395 -0.1003 -0.0373
   24SAPC   C22 3141   6.464   1.834  10.469 -0.1870 -0.0439  0.5780
   24SAPC   H2R 3142   6.569   1.819  10.436 -1.2934 -1.2470 -2.8301
   24SAPC   H2S 3143   6.441   1.786  10.566  1.6469  1.0083  1.5998
   24SAPC    C3 3144   6.635   2.224  10.631 -0.4090 -0.3038 -0.5429
   24SAPC    HX 3145   6.720   2.175  10.683 -1.4511 -1.0720  0.4897
   24SAPC    HY 3146   6.610   2.328  10.663 -0.0914  0.0156 -1.3225
   24SAPC   O31 3147   6.649   2.246  10.490 -0.8309 -0.2546 -0.2096
   24SAPC   C31 3148   6.729   2.155  10.425 -0.0898  0.3185  0.1438
   24SAPC   O32 3149   6.798   2.067  10.476 -0.0091  0.3169 -0.1105
   24SAPC   C32 3150   6.735   2.188  10.279  0.2635  0.2385  0.5392
   24SAPC   H2X 3151   6.783   2.288  10.271  2.4119 -0.7752 -0.2720
   24SAPC   H2Y 3152   6.630   2.199  10.244  0.7407  3.7776 -0.1742
   24SAPC   C23 3153   6.373   1.770  10.357  0.2711  0.0172  0.2594
   24SAPC   H3R 3154   6.270   1.811  10.366 -0.9685 -2.8198 -0.0211
   24SAPC   H3S 3155   6.362   1.662  10.380 -0.4723  0.1237  0.4345
   24SAPC   C24 3156   6.427   1.780  10.215 -0.4552  0.8645  0.5367
   24SAPC   H4R 3157   6.378   1.699  10.158 -1.1528  2.2458 -0.8930
   24SAPC   H4S 3158   6.529   1.739  10.231 -0.5599  0.2925 -0.2093
   24SAPC   C25 3159   6.427   1.915  10.141  0.1676 -0.1043 -0.5392
   24SAPC   H5R 3160   6.424   2.003  10.207 -0.9437  0.3935 -1.2262
   24SAPC   C26 3161   6.442   1.933  10.005 -0.5700  0.0306 -0.3361
   24SAPC   H6R 3162   6.432   2.035   9.967 -0.2783 -0.3880 -1.5605
   24SAPC   C27 3163   6.439   1.826   9.897 -0.5757  0.0737  0.4201
   24SAPC   H7R 3164   6.359   1.847   9.824 -1.2220 -0.6485  0.8992
   24SAPC   H7S 3165   6.407   1.725   9.931  0.4081 -0.8131 -1.1647
   24SAPC   C28 3166   6.569   1.802   9.829 -0.1144 -0.1034 -0.1265
   24SAPC   H8R 3167   6.654   1.832   9.892  1.9004 -2.1516 -1.6800
   24SAPC   C29 3168   6.592   1.731   9.709  0.4197  0.1538 -0.0583
   24SAPC   H9R 3169   6.693   1.725   9.666  0.6758  0.2408  0.5234
   24SAPC  C210 3170   6.487   1.668   9.630  0.2299 -0.1796 -0.4251
   24SAPC  H10R 3171   6.403   1.639   9.697  0.2400  0.4014 -0.1571
   24SAPC  H10S 3172   6.534   1.578   9.584 -0.4963  0.4436 -2.4897
   24SAPC  C211 3173   6.435   1.746   9.506  0.4571 -0.1009 -0.6626
   24SAPC  H11R 3174   6.362   1.822   9.539  0.8073  0.4438 -1.1241
   24SAPC  C212 3175   6.470   1.747   9.374  0.5732  1.1951 -0.3882
   24SAPC  H12R 3176   6.405   1.808   9.310 -1.1939  0.1969  0.3801
   24SAPC  C213 3177   6.573   1.650   9.317 -0.0851 -0.1786 -0.2893
   24SAPC  H13R 3178   6.518   1.588   9.242 -0.6746  0.6977 -0.5993
   24SAPC  H13S 3179   6.621   1.580   9.388 -3.4675 -2.5407 -0.0876
   24SAPC  C214 3180   6.680   1.731   9.239 -0.1326 -0.3075  0.1699
   24SAPC  H14R 3181   6.717   1.821   9.290 -0.6606 -0.9902  1.8406
   24SAPC  C215 3182   6.717   1.712   9.111  0.2365  0.5852  0.0055
   24SAPC  H15R 3183   6.782   1.786   9.062 -2.8737  1.5097 -3.1582
   24SAPC  C216 3184   6.651   1.616   9.017  0.4281  0.2672  0.2478
   24SAPC  H16R 3185   6.590   1.535   9.062  0.9079 -0.3994 -0.2870
   24SAPC  H16S 3186   6.728   1.550   8.972 -0.1527 -0.0244 -0.3357
   24SAPC  C217 3187   6.581   1.672   8.894  0.8624 -0.4600  1.0923
   24SAPC  H17R 3188   6.484   1.711   8.934  1.4164 -0.3405  2.3658
   24SAPC  H17S 3189   6.566   1.581   8.832  0.9042 -0.0771  0.5146
   24SAPC  C218 3190   6.661   1.785   8.834 -1.3028 -0.0019 -0.0612
   24SAPC  H18R 3191   6.761   1.737   8.826 -2.0262 -1.2134 -3.1779
   24SAPC  H18S 3192   6.652   1.878   8.893  0.8045 -1.1313  2.2321
   24SAPC  C219 3193   6.610   1.803   8.691 -0.0351  0.0744  0.3458
   24SAPC  H19R 3194   6.499   1.805   8.698  0.0803  0.9521  3.5385
   24SAPC  H19S 3195   6.636   1.712   8.634 -0.3799 -0.6246  1.2838
   24SAPC  C220 3196   6.678   1.924   8.627 -1.1404  0.5977 -0.7634
   24SAPC  H20R 3197   6.788   1.915   8.630 -1.2372 -0.4910  2.0044
   24SAPC  H20S 3198   6.654   2.017   8.682 -0.9036  0.1390  0.1213
   24SAPC  H20T 3199   6.646   1.932   8.521  0.5743  1.7782 -1.2369
   24SAPC   C33 3200   6.819   2.094  10.197 -0.1734  0.3834 -0.4827
   24SAPC   H3X 3201   6.764   1.998  10.183 -0.3421  0.1520  1.4994
   24SAPC   H3Y 3202   6.916   2.073  10.247  0.6000 -0.3518 -2.2157
   24SAPC   C34 3203   6.852   2.141  10.052 -0.2933  0.5791 -0.6769
   24SAPC   H4X 3204   6.906   2.238  10.049  0.3672  0.2422  0.1051
   24SAPC   H4Y 3205   6.755   2.172  10.007 -1.0068 -2.6150 -1.6054
   24SAPC   C35 3206   6.921   2.038   9.969  0.0164  0.3145 -0.1922
   24SAPC   H5X 3207   6.858   1.947   9.977 -0.3657  0.7177  2.0631
   24SAPC   H5Y 3208   7.013   2.002  10.021 -1.1372 -1.3971  0.7909
   24SAPC   C36 3209   6.937   2.069   9.829  0.6093 -0.5312 -0.3834
   24SAPC   H6X 3210   7.015   2.148   9.824  0.8177 -0.5308  1.8936
   24SAPC   H6Y 3211   6.837   2.108   9.801 -0.8500 -3.9429 -0.4718
   24SAPC   C37 3212   6.966   1.952   9.737 -0.3235 -0.6717 -1.1125
   24SAPC   H7X 3213   6.870   1.896   9.738 -0.6274 -0.1642  0.1643
   24SAPC   H7Y 3214   7.046   1.895   9.790  1.2611  1.0797 -1.5330
   24SAPC   C38 3215   7.005   2.001   9.601  0.0914  0.0831 -0.1826
   24SAPC   H8X 3216   7.054   1.912   9.555 -1.1704 -1.4812  1.3554
   24SAPC   H8Y 3217   7.081   2.082   9.606  0.0923  0.1766 -1.3246
   24SAPC   C39 3218   6.893   2.058   9.516  0.3541  0.1194 -0.0811
   24SAPC   H9X 3219   6.859   2.155   9.557 -1.2794  0.1204 -1.3555
   24SAPC   H9Y 3220   6.812   1.982   9.508  1.5691 -1.3616  0.9068
   24SAPC  C310 3221   6.942   2.095   9.372  0.0240  0.0627  0.3490
   24SAPC  H10X 3222   7.018   2.176   9.380  1.1167 -0.8787 -0.2007
   24SAPC  H10Y 3223   6.847   2.145   9.343 -1.7016 -1.0203  3.5935
   24SAPC  C311 3224   6.981   1.971   9.290 -1.0602  0.1688  0.4389
   24SAPC  H11X 3225   6.920   1.881   9.313 -0.1695 -0.4360  0.5179
   24SAPC  H11Y 3226   7.089   1.952   9.311 -1.0633 -1.2220 -0.6955
   24SAPC  C312 3227   6.980   1.994   9.138  0.6906 -0.2044 -0.4444
   24SAPC  H12X 3228   7.042   2.085   9.118  0.2166 -0.2682 -2.4898
   24SAPC  H12Y 3229   6.878   2.015   9.099  1.0588  0.1705 -1.2267
   24SAPC  C313 3230   7.047   1.883   9.067 -1.3222  0.0100  0.2679
   24SAPC  H13X 3231   6.989   1.795   9.101  0.8012 -2.2806 -1.6674
   24SAPC  H13Y 3232   7.153   1.877   9.100 -1.4827 -1.2354  0.6271
   24SAPC  C314 3233   7.051   1.885   8.915 -0.9294  0.2092 -0.0885
   24SAPC  H14X 3234   6.945   1.886   8.883 -1.0104 -1.3004  0.0198
   24SAPC  H14Y 3235   7.080   1.784   8.877 -2.9713 -0.1378 -0.8606
   24SAPC  C315 3236   7.149   1.994   8.848  1.1059 -0.6248 -0.2334
   24SAPC  H15X 3237   7.227   2.023   8.922  0.4393  1.3068 -0.2521
   24SAPC  H15Y 3238   7.094   2.089   8.835  2.8991  0.1779 -2.6492
   24SAPC  C316 3239   7.206   1.949   8.714  0.1589  0.0486 -0.9966
   24SAPC  H16X 3240   7.270   1.859   8.721  1.1059  0.7200 -0.7551
   24SAPC  H16Y 3241   7.281   2.027   8.688  1.3980 -0.8421 -0.2498
   24SAPC  C317 3242   7.111   1.937   8.597 -0.2711  0.0181 -0.9700
   24SAPC  H17X 3243   7.027   1.872   8.629  2.3873 -2.6802  1.0008
   24SAPC  H17Y 3244   7.159   1.882   8.513 -2.3084 -1.7804 -1.0530
   24SAPC  C318 3245   7.062   2.069   8.551  0.6596 -0.0450  0.0359
   24SAPC  H18X 3246   7.038   2.142   8.632 -0.0765 -0.0736 -0.1528
   24SAPC  H18Y 3247   6.974   2.056   8.485 -0.5415 -0.1728  1.6009
   24SAPC  H18Z 3248   7.140   2.116   8.487  0.3135 -1.1689 -1.2467
   25SAPC     N 3249   3.783   6.544   5.790 -0.1662 -0.0447  0.3239
   25SAPC   C12 3250   3.830   6.685   5.761 -0.2994 -0.2730  0.8129
   25SAPC  H12A 3251   3.795   6.716   5.663  2.1928  0.0841 -0.0440
   25SAPC  H12B 3252   3.936   6.693   5.781 -0.0313 -1.4241 -0.0503
   25SAPC   C13 3253   3.637   6.539   5.759 -0.2940  0.4581 -0.8911
   25SAPC  H13A 3254   3.601   6.438   5.769 -1.9911  1.1761  1.3519
   25SAPC  H13B 3255   3.589   6.598   5.837  1.7509 -1.1563  1.7656
   25SAPC  H13C 3256   3.612   6.570   5.659 -1.2416  1.3523 -0.4071
   25SAPC   C14 3257   3.851   6.456   5.692 -0.7660 -1.0603  0.0561
   25SAPC  H14A 3258   3.824   6.496   5.595  0.7444 -0.7484 -0.2623
   25SAPC  H14B 3259   3.958   6.452   5.709 -0.6219  1.2168 -0.0208
   25SAPC  H14C 3260   3.820   6.353   5.705 -3.4501 -0.2781  0.4476
   25SAPC   C15 3261   3.818   6.495   5.923  0.1310 -0.0640  0.4186
   25SAPC  H15A 3262   3.918   6.454   5.925  0.3241  0.2883 -0.8856
   25SAPC  H15B 3263   3.819   6.577   5.993 -0.5716  0.6519 -0.3748
   25SAPC  H15C 3264   3.756   6.412   5.951  0.9478  0.1271  3.0740
   25SAPC   C11 3265   3.764   6.795   5.850  0.2990 -0.8384 -0.1345
   25SAPC  H11A 3266   3.657   6.787   5.820  0.3557 -3.4216  0.2095
   25SAPC  H11B 3267   3.800   6.895   5.816  1.8334 -1.4636 -0.4252
   25SAPC     P 3268   3.946   6.813   6.033 -0.0854  0.1462  0.2190
   25SAPC   O13 3269   4.005   6.692   6.088 -0.1636 -0.1490 -0.3844
   25SAPC   O14 3270   4.021   6.868   5.920  0.3707 -0.4397  0.0137
   25SAPC   O12 3271   3.795   6.789   5.987 -0.6734  0.4042 -0.5490
   25SAPC   O11 3272   3.937   6.919   6.142  0.0305  0.4229  0.1099
   25SAPC    C1 3273   3.820   6.994   6.178 -0.5061  0.1164 -0.6606
   25SAPC    HA 3274   3.757   7.026   6.092 -0.7021 -0.6285 -0.7944
   25SAPC    HB 3275   3.758   6.928   6.241  1.9433 -0.7085  1.0164
   25SAPC    C2 3276   3.864   7.111   6.265  0.4364  0.0330 -0.2408
   25SAPC    HS 3277   3.949   7.157   6.211 -0.2524  0.8879 -0.6169
   25SAPC   O21 3278   3.912   7.062   6.389  0.5373 -0.2109  0.4128
   25SAPC   C21 3279   3.961   7.141   6.482 -0.0273  0.5244  0.4650
   25SAPC   O22 3280   3.998   7.253   6.470  0.0199 -0.1660 -0.4518
   25SAPC   C22 3281   3.961   7.070   6.622  0.5386  0.1643 -0.1179
   25SAPC   H2R 3282   4.048   7.001   6.619 -1.4698 -2.5407 -0.2186
   25SAPC   H2S 3283   3.972   7.148   6.700 -0.9736 -0.3584  0.6771
   25SAPC    C3 3284   3.750   7.219   6.282 -0.2795 -0.1790 -0.0367
   25SAPC    HX 3285   3.750   7.249   6.175  0.4739 -3.8762 -1.2235
   25SAPC    HY 3286   3.784   7.301   6.347 -2.0927 -0.1363  0.9246
   25SAPC   O31 3287   3.624   7.162   6.323  0.2263  0.1503 -0.0136
   25SAPC   C31 3288   3.522   7.241   6.298  0.5197 -0.6925  0.2837
   25SAPC   O32 3289   3.522   7.352   6.246 -0.2301 -0.1305 -0.3097
   25SAPC   C32 3290   3.394   7.163   6.329 -0.2990  0.1312 -0.0488
   25SAPC   H2X 3291   3.435   7.080   6.390  0.3689  0.4795 -0.0106
   25SAPC   H2Y 3292   3.346   7.122   6.238 -2.3019  1.3675  0.3718
   25SAPC   C23 3293   3.826   6.998   6.661  0.6129  0.4538  0.2202
   25SAPC   H3R 3294   3.840   6.930   6.748  0.6537  1.3207  0.9046
   25SAPC   H3S 3295   3.797   6.938   6.572 -3.3213 -0.0213  1.6213
   25SAPC   C24 3296   3.707   7.088   6.684  0.1958 -0.7658  0.8493
   25SAPC   H4R 3297   3.704   7.164   6.603  0.4548 -1.5471  0.0935
   25SAPC   H4S 3298   3.726   7.145   6.778  1.6907  1.9734 -0.9684
   25SAPC   C25 3299   3.583   7.000   6.678 -0.0896 -0.0929 -0.5694
   25SAPC   H5R 3300   3.548   6.968   6.578  0.6514 -0.7352 -0.6321
   25SAPC   C26 3301   3.515   6.952   6.783 -0.0829 -0.3746 -0.1958
   25SAPC   H6R 3302   3.418   6.906   6.759 -0.4478 -0.8894  2.0622
   25SAPC   C27 3303   3.536   6.977   6.929 -0.4046  0.1621 -0.5702
   25SAPC   H7R 3304   3.435   7.004   6.965 -0.1578 -0.9231  1.0669
   25SAPC   H7S 3305   3.598   7.068   6.946 -1.0696  0.5306 -0.0601
   25SAPC   C28 3306   3.609   6.868   6.994  0.2144 -0.5552  0.0005
   25SAPC   H8R 3307   3.703   6.846   6.941 -0.1000  1.7007 -1.6064
   25SAPC   C29 3308   3.573   6.805   7.110  0.6241 -0.1843 -1.1264
   25SAPC   H9R 3309   3.636   6.723   7.149  0.8000 -0.0470 -1.1221
   25SAPC  C210 3310   3.442   6.827   7.181 -0.0033 -0.4966  0.0147
   25SAPC  H10R 3311   3.364   6.761   7.135  0.2792  0.5353 -2.0731
   25SAPC  H10S 3312   3.401   6.928   7.159 -0.8866 -0.6673  0.7875
   25SAPC  C211 3313   3.442   6.809   7.332 -0.3172  0.1842 -0.3485
   25SAPC  H11R 3314   3.412   6.707   7.361  3.8508 -0.8681  0.8682
   25SAPC  C212 3315   3.483   6.899   7.426  1.0014 -0.0598  0.0339
   25SAPC  H12R 3316   3.495   6.870   7.532 -1.1338 -0.3035  0.2613
   25SAPC  C213 3317   3.520   7.039   7.401  0.0993  0.4591  0.0988
   25SAPC  H13R 3318   3.489   7.097   7.490 -0.6744  0.7052 -0.3232
   25SAPC  H13S 3319   3.448   7.081   7.327 -0.0280 -2.3095 -1.4950
   25SAPC  C214 3320   3.667   7.060   7.360 -0.2822 -0.6656 -0.9368
   25SAPC  H14R 3321   3.692   6.980   7.289  0.7747 -2.5142  1.3665
   25SAPC  C215 3322   3.760   7.149   7.399  0.0863  0.1779  0.6074
   25SAPC  H15R 3323   3.856   7.149   7.345 -0.7271  0.2907 -0.8689
   25SAPC  C216 3324   3.746   7.265   7.495  0.3795 -0.8134 -0.1087
   25SAPC  H16R 3325   3.656   7.245   7.557 -1.7572  0.8528 -2.5075
   25SAPC  H16S 3326   3.735   7.366   7.450 -1.4548  0.6677  3.2269
   25SAPC  C217 3327   3.868   7.267   7.582  0.5399  0.8003  0.1148
   25SAPC  H17R 3328   3.850   7.352   7.652  1.8130  2.3262 -1.3011
   25SAPC  H17S 3329   3.964   7.294   7.533  0.9102  3.0729  1.8977
   25SAPC  C218 3330   3.891   7.139   7.660 -0.6969  0.6641 -0.6268
   25SAPC  H18R 3331   3.923   7.074   7.575 -2.3206  1.8672 -2.2514
   25SAPC  H18S 3332   3.793   7.093   7.687 -0.5830 -0.1483 -1.5112
   25SAPC  C219 3333   3.996   7.163   7.765 -0.1930 -0.0697 -0.0899
   25SAPC  H19R 3334   3.966   7.235   7.844  0.8757 -0.6377  0.8750
   25SAPC  H19S 3335   4.081   7.213   7.714 -0.8921  0.0123 -1.2158
   25SAPC  C220 3336   4.039   7.032   7.836  0.3726 -0.2141 -0.7916
   25SAPC  H20R 3337   3.958   6.997   7.903  0.6803 -0.5388 -0.5847
   25SAPC  H20S 3338   4.131   7.060   7.892  0.2795 -0.1279 -0.6831
   25SAPC  H20T 3339   4.066   6.955   7.760  1.8745 -2.9480  2.2721
   25SAPC   C33 3340   3.279   7.236   6.406 -0.1640  0.3824  0.1692
   25SAPC   H3X 3341   3.179   7.192   6.386 -0.2459 -0.0753  1.4792
   25SAPC   H3Y 3342   3.266   7.343   6.381 -0.8135  0.2058 -0.2750
   25SAPC   C34 3343   3.308   7.217   6.552  0.0802  0.0904 -0.8433
   25SAPC   H4X 3344   3.410   7.258   6.568 -0.6319  2.1341 -1.2218
   25SAPC   H4Y 3345   3.315   7.107   6.565 -1.9729 -0.3566 -2.7684
   25SAPC   C35 3346   3.207   7.268   6.652 -0.7134  0.4420 -0.3120
   25SAPC   H5X 3347   3.126   7.191   6.656  0.3883 -0.7426 -0.2574
   25SAPC   H5Y 3348   3.177   7.369   6.618  0.3648  1.0123  0.3811
   25SAPC   C36 3349   3.275   7.259   6.795 -0.2788 -0.5458 -0.1382
   25SAPC   H6X 3350   3.335   7.166   6.795  2.6134  1.1723  1.8271
   25SAPC   H6Y 3351   3.192   7.246   6.868 -1.0643  1.5332 -0.5826
   25SAPC   C37 3352   3.350   7.387   6.834 -0.7409 -0.4260  0.0588
   25SAPC   H7X 3353   3.280   7.473   6.846  0.0426 -0.1260  3.1810
   25SAPC   H7Y 3354   3.429   7.404   6.758 -0.3864 -1.3161  0.2135
   25SAPC   C38 3355   3.425   7.374   6.966  0.3241 -0.0480  0.1517
   25SAPC   H8X 3356   3.495   7.459   6.980 -1.6680  1.7253 -0.1250
   25SAPC   H8Y 3357   3.489   7.283   6.962 -1.3107 -1.2182 -0.1228
   25SAPC   C39 3358   3.339   7.361   7.087 -0.1611 -0.0639 -0.4874
   25SAPC   H9X 3359   3.281   7.267   7.081  0.3815 -0.6089  1.8660
   25SAPC   H9Y 3360   3.268   7.444   7.107  0.5524  0.3950  0.2128
   25SAPC  C310 3361   3.419   7.366   7.220  0.4916 -0.3687 -0.1202
   25SAPC  H10X 3362   3.486   7.455   7.230  1.4696 -0.9911 -0.9860
   25SAPC  H10Y 3363   3.484   7.276   7.217  0.8911 -0.1078  0.4656
   25SAPC  C311 3364   3.333   7.356   7.346 -0.4008 -0.0824  0.2448
   25SAPC  H11X 3365   3.394   7.293   7.414  1.7221  0.8700 -0.6868
   25SAPC  H11Y 3366   3.236   7.302   7.336 -0.5586 -0.7416  3.8901
   25SAPC  C312 3367   3.328   7.485   7.429 -0.4231 -0.2528  0.3029
   25SAPC  H12X 3368   3.234   7.479   7.487  0.1394 -2.4421  1.0999
   25SAPC  H12Y 3369   3.316   7.572   7.362 -1.7670 -0.6921 -0.0401
   25SAPC  C313 3370   3.449   7.508   7.519 -0.5923 -0.5429 -0.5744
   25SAPC  H13X 3371   3.531   7.520   7.446 -1.6828  0.4485 -1.6922
   25SAPC  H13Y 3372   3.463   7.421   7.588 -2.1849 -0.0014  0.5181
   25SAPC  C314 3373   3.443   7.644   7.598  0.6199  0.2988 -0.5830
   25SAPC  H14X 3374   3.354   7.643   7.665  1.1875  1.4917  0.2166
   25SAPC  H14Y 3375   3.423   7.733   7.535  0.0800  0.1808 -0.5881
   25SAPC  C315 3376   3.563   7.679   7.678  0.0112  0.3071 -0.6080
   25SAPC  H15X 3377   3.646   7.701   7.608 -0.2407 -1.7246 -1.6304
   25SAPC  H15Y 3378   3.609   7.590   7.726  1.6049  1.3730 -0.0721
   25SAPC  C316 3379   3.543   7.802   7.767  0.9596  0.5856 -0.2783
   25SAPC  H16X 3380   3.459   7.778   7.836 -0.2280  2.6076 -0.9152
   25SAPC  H16Y 3381   3.491   7.887   7.716  0.5061  1.0441  0.8943
   25SAPC  C317 3382   3.673   7.844   7.838 -0.5634  0.2576 -0.4401
   25SAPC  H17X 3383   3.667   7.951   7.866 -1.7239 -0.1343  0.9478
   25SAPC  H17Y 3384   3.759   7.838   7.769 -0.5204 -1.6116 -0.2890
   25SAPC  C318 3385   3.706   7.769   7.964 -0.0612 -0.0685 -0.0277
   25SAPC  H18X 3386   3.730   7.661   7.961 -0.4390 -0.2081  1.2911
   25SAPC  H18Y 3387   3.626   7.785   8.040 -1.2787  2.6921 -1.7166
   25SAPC  H18Z 3388   3.789   7.819   8.018 -0.5166 -0.2179  0.8277
   26SAPC     N 3389   0.095   1.837   6.298 -0.1723 -0.1516  0.3850
   26SAPC   C12 3390   0.164   1.960   6.345  0.4113  0.0472 -0.3536
   26SAPC  H12A 3391   0.236   1.933   6.421 -3.7555 -2.7764  3.0635
   26SAPC  H12B 3392   0.096   2.016   6.408 -0.0403 -2.4104  1.4818
   26SAPC   C13 3393   0.032   1.757   6.412 -0.2317  0.0178  0.1108
   26SAPC  H13A 3394  -0.045   1.810   6.466 -1.0987 -1.3488  0.2502
   26SAPC  H13B 3395  -0.021   1.679   6.360  0.4672 -1.0156  0.8978
   26SAPC  H13C 3396   0.110   1.729   6.482  1.9074  2.9655 -0.9055
   26SAPC   C14 3397  -0.015   1.884   6.198 -0.0634  0.1567  0.3437
   26SAPC  H14A 3398  -0.081   1.949   6.253  0.0006  1.5291 -1.1209
   26SAPC  H14B 3399   0.024   1.944   6.117 -3.0887  0.1667 -1.2313
   26SAPC  H14C 3400  -0.072   1.805   6.153 -1.2805 -0.2076  2.4016
   26SAPC   C15 3401   0.183   1.745   6.220 -0.6421  0.1668 -0.1853
   26SAPC  H15A 3402   0.232   1.803   6.144  0.1088 -0.8794 -0.5238
   26SAPC  H15B 3403   0.255   1.698   6.285 -1.2662 -1.2652 -0.5020
   26SAPC  H15C 3404   0.129   1.662   6.179 -0.1409 -0.0796 -0.3526
   26SAPC   C11 3405   0.222   2.051   6.230 -0.4042 -0.0279 -0.3948
   26SAPC  H11A 3406   0.289   1.997   6.160  0.5334  0.8894 -0.2442
   26SAPC  H11B 3407   0.297   2.116   6.281  1.5782 -3.2065  1.0784
   26SAPC     P 3408   0.085   2.258   6.212 -0.2725  0.0788  0.5216
   26SAPC   O13 3409   0.207   2.346   6.187  0.3122  0.3467  0.4294
   26SAPC   O14 3410  -0.043   2.307   6.153  0.7247  0.3594  0.3402
   26SAPC   O12 3411   0.121   2.121   6.151  0.6740 -0.0355 -0.5373
   26SAPC   O11 3412   0.067   2.221   6.364  0.5911 -0.1809 -0.0937
   26SAPC    C1 3413  -0.061   2.203   6.415  1.4047  0.0366 -0.1005
   26SAPC    HA 3414  -0.125   2.153   6.339  1.5062  2.4883 -1.9097
   26SAPC    HB 3415  -0.063   2.130   6.500 -1.9203 -1.4423 -1.2748
   26SAPC    C2 3416  -0.128   2.337   6.475 -0.2737  0.4460 -0.1804
   26SAPC    HS 3417  -0.134   2.405   6.387 -2.8601 -1.1236 -1.3076
   26SAPC   O21 3418  -0.043   2.395   6.575  0.4782  0.3046  0.2439
   26SAPC   C21 3419  -0.068   2.522   6.591 -0.8233 -0.0180 -0.6949
   26SAPC   O22 3420  -0.148   2.594   6.541 -0.4262 -0.3498  0.1336
   26SAPC   C22 3421   0.020   2.560   6.717 -0.3468  0.6928  0.1324
   26SAPC   H2R 3422   0.099   2.483   6.731 -0.4411  0.7485  0.9951
   26SAPC   H2S 3423   0.060   2.660   6.690 -0.6318  0.8973  0.4707
   26SAPC    C3 3424  -0.275   2.313   6.524 -0.3205  0.0429 -0.0960
   26SAPC    HX 3425  -0.327   2.282   6.430 -1.3347 -1.4093  0.9012
   26SAPC    HY 3426  -0.330   2.402   6.560  1.6795  1.1785  0.2862
   26SAPC   O31 3427  -0.270   2.223   6.639  0.1618 -0.2069 -0.2275
   26SAPC   C31 3428  -0.357   2.123   6.631 -0.4161 -0.0797  0.5542
   26SAPC   O32 3429  -0.423   2.101   6.533 -0.3474  0.1132  0.6426
   26SAPC   C32 3430  -0.384   2.068   6.769 -0.3597 -0.1913  0.2209
   26SAPC   H2X 3431  -0.309   2.109   6.840  0.9207 -0.5709 -0.8617
   26SAPC   H2Y 3432  -0.353   1.961   6.765  1.1886  0.1465  1.9638
   26SAPC   C23 3433  -0.070   2.582   6.837  0.0549 -0.0776  0.4832
   26SAPC   H3R 3434  -0.146   2.657   6.805 -0.0660 -0.4038 -0.0163
   26SAPC   H3S 3435  -0.014   2.625   6.923  1.8462 -1.8204  0.2603
   26SAPC   C24 3436  -0.138   2.457   6.886 -0.1280  0.4641 -0.0278
   26SAPC   H4R 3437  -0.177   2.403   6.796  1.2337  1.8728 -1.5250
   26SAPC   H4S 3438  -0.226   2.483   6.948 -2.1350 -3.2055 -0.9988
   26SAPC   C25 3439  -0.049   2.361   6.964  0.9445 -0.1673  0.1037
   26SAPC   H5R 3440   0.006   2.293   6.897  1.9873 -0.1552  0.9210
   26SAPC   C26 3441  -0.049   2.354   7.099  0.7662 -0.1446  0.3223
   26SAPC   H6R 3442  -0.004   2.269   7.152  0.1633 -1.0461 -0.5527
   26SAPC   C27 3443  -0.135   2.430   7.195 -0.2158 -0.4013  0.2576
   26SAPC   H7R 3444  -0.199   2.493   7.130 -0.8262 -2.3305 -1.0795
   26SAPC   H7S 3445  -0.077   2.502   7.258  0.5871  2.7916 -3.6864
   26SAPC   C28 3446  -0.218   2.337   7.279 -0.6579  0.3904 -0.6513
   26SAPC   H8R 3447  -0.315   2.318   7.230 -0.2267 -1.5024 -0.8572
   26SAPC   C29 3448  -0.197   2.282   7.405  1.2116 -0.2885 -0.3200
   26SAPC   H9R 3449  -0.277   2.223   7.452  1.3276  1.9614  3.0862
   26SAPC  C210 3450  -0.074   2.300   7.486  0.0370  0.4160 -0.3974
   26SAPC  H10R 3451  -0.022   2.385   7.437  0.2283 -0.6288 -2.1176
   26SAPC  H10S 3452  -0.010   2.209   7.474 -0.8114 -0.3317  0.5637
   26SAPC  C211 3453  -0.098   2.327   7.635 -0.2473 -0.2195 -0.0552
   26SAPC  H11R 3454  -0.178   2.400   7.655  0.7343  0.6254  0.8945
   26SAPC  C212 3455  -0.026   2.288   7.743  0.4633 -0.3192 -0.1858
   26SAPC  H12R 3456  -0.057   2.321   7.842 -1.2621  0.4828 -0.9628
   26SAPC  C213 3457   0.102   2.201   7.738  0.4161 -0.3593 -0.5438
   26SAPC  H13R 3458   0.120   2.173   7.632 -0.2686 -1.3761 -0.4020
   26SAPC  H13S 3459   0.085   2.102   7.784 -0.4320 -0.3076 -0.7397
   26SAPC  C214 3460   0.217   2.269   7.810 -0.2343 -0.0549 -0.7673
   26SAPC  H14R 3461   0.194   2.282   7.917  1.2924  0.1748 -0.4505
   26SAPC  C215 3462   0.334   2.314   7.753  0.5084  0.4986  0.1537
   26SAPC  H15R 3463   0.406   2.356   7.825  1.6991 -2.1972  0.6793
   26SAPC  C216 3464   0.372   2.290   7.608 -0.2908 -0.2209 -0.2016
   26SAPC  H16R 3465   0.371   2.183   7.581 -0.1138 -0.2001 -0.2938
   26SAPC  H16S 3466   0.481   2.312   7.617 -0.6292  2.6851 -1.6821
   26SAPC  C217 3467   0.317   2.391   7.511  0.2391 -1.1257  0.1486
   26SAPC  H17R 3468   0.348   2.490   7.550 -0.0467 -1.6554  1.7681
   26SAPC  H17S 3469   0.206   2.391   7.510  0.2334 -0.7012 -0.9044
   26SAPC  C218 3470   0.358   2.364   7.368 -0.0275  0.5274 -0.3360
   26SAPC  H18R 3471   0.329   2.259   7.346 -0.6566  0.2559  1.5483
   26SAPC  H18S 3472   0.469   2.363   7.367  0.0087 -0.8212  0.7767
   26SAPC  C219 3473   0.302   2.452   7.259  0.0206  0.3959 -0.1465
   26SAPC  H19R 3474   0.327   2.560   7.268  0.7824  0.3155 -1.0941
   26SAPC  H19S 3475   0.192   2.439   7.268  0.0373  0.9373  0.9913
   26SAPC  C220 3476   0.349   2.413   7.111  0.1563 -0.3517 -0.1439
   26SAPC  H20R 3477   0.446   2.461   7.090 -0.1497 -0.6148 -2.3561
   26SAPC  H20S 3478   0.275   2.457   7.041 -0.0173  0.8379  0.7514
   26SAPC  H20T 3479   0.354   2.304   7.091  2.8223 -0.4496  0.6856
   26SAPC   C33 3480  -0.530   2.068   6.810  0.3266  0.3030 -0.2340
   26SAPC   H3X 3481  -0.593   2.042   6.723  0.9705 -1.0946 -0.3037
   26SAPC   H3Y 3482  -0.564   2.164   6.855 -0.8518 -1.0445  1.9704
   26SAPC   C34 3483  -0.561   1.981   6.933  0.1447  0.3709  0.2643
   26SAPC   H4X 3484  -0.541   1.872   6.924 -1.9787  0.0629 -1.7617
   26SAPC   H4Y 3485  -0.668   2.002   6.954 -0.0912  0.4641 -0.9780
   26SAPC   C35 3486  -0.481   2.029   7.054 -0.3448  0.1853  0.1689
   26SAPC   H5X 3487  -0.518   2.129   7.088  0.1611  0.7941 -1.0238
   26SAPC   H5Y 3488  -0.375   2.037   7.022 -1.1793  0.2837 -2.8964
   26SAPC   C36 3489  -0.501   1.936   7.175 -0.0243 -0.0662 -0.3365
   26SAPC   H6X 3490  -0.494   1.830   7.143  4.2387 -0.5419  1.4926
   26SAPC   H6Y 3491  -0.603   1.958   7.213  0.2740 -0.0767  0.4932
   26SAPC   C37 3492  -0.388   1.953   7.280  0.2638 -0.8379 -0.3703
   26SAPC   H7X 3493  -0.371   2.059   7.307 -2.1748 -0.7554  1.0801
   26SAPC   H7Y 3494  -0.288   1.923   7.240  0.6407 -0.0523 -0.0273
   26SAPC   C38 3495  -0.418   1.865   7.405  0.0849 -0.4622  1.4103
   26SAPC   H8X 3496  -0.439   1.762   7.367 -0.6257 -0.0886  0.7605
   26SAPC   H8Y 3497  -0.509   1.903   7.456  0.7342  2.6404  0.4829
   26SAPC   C39 3498  -0.304   1.877   7.510  0.5865 -0.6586  0.3609
   26SAPC   H9X 3499  -0.260   1.979   7.507  2.4408 -1.4508 -0.7453
   26SAPC   H9Y 3500  -0.217   1.810   7.496 -0.2730 -1.9051  0.8136
   26SAPC  C310 3501  -0.356   1.844   7.655 -0.1395  0.4083 -0.1626
   26SAPC  H10X 3502  -0.430   1.764   7.633  1.0121 -0.3746 -1.4071
   26SAPC  H10Y 3503  -0.410   1.933   7.694 -0.8100 -0.7597  1.6794
   26SAPC  C311 3504  -0.241   1.824   7.756 -0.3811  0.6835  0.0964
   26SAPC  H11X 3505  -0.190   1.917   7.791  1.9685 -0.8020  0.8173
   26SAPC  H11Y 3506  -0.161   1.768   7.703 -0.4919  0.0038  0.6348
   26SAPC  C312 3507  -0.278   1.737   7.873  0.5972  0.2307 -1.2629
   26SAPC  H12X 3508  -0.294   1.631   7.845  1.2949 -0.4696  0.7811
   26SAPC  H12Y 3509  -0.373   1.784   7.907  2.2440  1.6607  1.8350
   26SAPC  C313 3510  -0.178   1.738   7.992  0.0839  0.0873 -0.1369
   26SAPC  H13X 3511  -0.185   1.839   8.036 -2.2902  0.2635 -0.8042
   26SAPC  H13Y 3512  -0.076   1.721   7.949  0.3464 -1.7582  1.0682
   26SAPC  C314 3513  -0.195   1.629   8.100 -0.3696  0.0839  0.4497
   26SAPC  H14X 3514  -0.186   1.526   8.058  3.1825  0.7536 -0.7760
   26SAPC  H14Y 3515  -0.298   1.637   8.142 -0.8982 -0.4763 -0.7004
   26SAPC  C315 3516  -0.087   1.640   8.213 -0.4495  0.0053  0.1255
   26SAPC  H15X 3517  -0.049   1.742   8.231  3.9642 -1.3322 -0.4321
   26SAPC  H15Y 3518   0.005   1.592   8.173 -0.6813  0.0062 -0.4165
   26SAPC  C316 3519  -0.138   1.586   8.346 -0.3973 -0.2222 -0.1591
   26SAPC  H16X 3520  -0.212   1.508   8.319 -2.7727  2.0807 -0.7637
   26SAPC  H16Y 3521  -0.199   1.667   8.392  1.0698 -0.3520  2.1514
   26SAPC  C317 3522  -0.023   1.550   8.444 -0.7848  0.1185 -0.2982
   26SAPC  H17X 3523   0.026   1.453   8.419 -0.9284  0.5331 -2.3993
   26SAPC  H17Y 3524  -0.064   1.565   8.546 -3.8044  0.9441 -1.5236
   26SAPC  C318 3525   0.085   1.661   8.452 -0.1175 -0.4289  0.2809
   26SAPC  H18X 3526   0.141   1.654   8.548  0.1202  0.8136  0.2481
   26SAPC  H18Y 3527   0.034   1.759   8.458  0.0221 -0.1705 -1.8666
   26SAPC  H18Z 3528   0.159   1.650   8.369  0.8358  0.6779  0.9511
   27SAPC     N 3529   4.841   0.622   6.419  0.6343 -0.2467 -0.1395
   27SAPC   C12 3530   4.972   0.682   6.414 -0.1193 -0.3950  0.0843
   27SAPC  H12A 3531   4.970   0.777   6.362  0.2918 -0.1403  0.5252
   27SAPC  H12B 3532   5.044   0.622   6.361  1.2287  2.8800 -2.0874
   27SAPC   C13 3533   4.840   0.477   6.457 -0.2198  0.4827 -0.2603
   27SAPC  H13A 3534   4.856   0.481   6.564  0.2899  0.8510 -0.3419
   27SAPC  H13B 3535   4.746   0.428   6.438 -1.0016  1.8912 -0.1690
   27SAPC  H13C 3536   4.920   0.427   6.406 -0.9244  0.9677 -1.8886
   27SAPC   C14 3537   4.736   0.697   6.490 -0.1852  0.1105 -0.6915
   27SAPC  H14A 3538   4.757   0.707   6.596  2.6631  0.8321 -1.2465
   27SAPC  H14B 3539   4.719   0.797   6.455 -2.6364  0.6239  1.6225
   27SAPC  H14C 3540   4.641   0.645   6.484 -0.4091 -0.0964  2.5322
   27SAPC   C15 3541   4.789   0.615   6.282 -0.1769 -0.8662  0.8078
   27SAPC  H15A 3542   4.759   0.711   6.243  1.0695 -0.8433 -0.1707
   27SAPC  H15B 3543   4.871   0.580   6.220  1.6987  4.2089 -0.0350
   27SAPC  H15C 3544   4.700   0.556   6.268 -0.5422 -0.0242 -0.6723
   27SAPC   C11 3545   5.024   0.722   6.557 -0.6854 -0.2484  0.0204
   27SAPC  H11A 3546   5.135   0.732   6.563 -0.5035  0.2901 -2.9526
   27SAPC  H11B 3547   5.014   0.630   6.620  0.4743 -0.9663 -0.8087
   27SAPC     P 3548   4.993   0.980   6.562  0.1159 -0.0523 -0.2343
   27SAPC   O13 3549   4.999   0.975   6.413 -0.1967 -0.2199  0.1818
   27SAPC   O14 3550   4.899   1.073   6.625  0.1941 -0.4323 -0.3225
   27SAPC   O12 3551   4.954   0.836   6.609  0.3389  0.4062 -0.4572
   27SAPC   O11 3552   5.133   1.006   6.618 -0.1760 -0.4554 -0.5030
   27SAPC    C1 3553   5.196   0.960   6.734  0.3336 -0.4829  0.2303
   27SAPC    HA 3554   5.138   0.874   6.774 -0.8394 -0.0889 -0.5613
   27SAPC    HB 3555   5.293   0.916   6.702  0.7495 -1.3097  2.4409
   27SAPC    C2 3556   5.213   1.071   6.833  0.8117 -0.0478 -0.5802
   27SAPC    HS 3557   5.236   1.015   6.927  0.4348 -0.7599 -0.9087
   27SAPC   O21 3558   5.101   1.152   6.855  0.4862 -0.2862  0.0931
   27SAPC   C21 3559   4.993   1.097   6.902  0.1698  0.8738  0.2343
   27SAPC   O22 3560   4.969   0.978   6.922  0.2289  0.4800  0.1356
   27SAPC   C22 3561   4.890   1.200   6.942 -0.6506  0.3930 -0.5308
   27SAPC   H2R 3562   4.870   1.257   6.849  1.8569 -0.6737 -1.8211
   27SAPC   H2S 3563   4.797   1.143   6.959  0.0994 -1.7805 -3.0490
   27SAPC    C3 3564   5.337   1.163   6.807 -0.2215 -0.6391 -0.2277
   27SAPC    HX 3565   5.316   1.207   6.707  0.9516 -0.3295 -0.3605
   27SAPC    HY 3566   5.423   1.093   6.797 -0.3823 -0.6484 -1.7729
   27SAPC   O31 3567   5.363   1.267   6.912  0.4702 -0.1357  0.9363
   27SAPC   C31 3568   5.304   1.382   6.902 -0.1830  0.3339 -0.5367
   27SAPC   O32 3569   5.239   1.425   6.809 -0.7626  0.1094  0.2081
   27SAPC   C32 3570   5.321   1.448   7.040 -0.4569 -0.5107  0.3430
   27SAPC   H2X 3571   5.425   1.484   7.055 -0.9321  0.6854  0.9411
   27SAPC   H2Y 3572   5.301   1.379   7.125 -0.7111 -0.7915  0.0614
   27SAPC   C23 3573   4.944   1.275   7.068  0.2620  0.1007  0.4176
   27SAPC   H3R 3574   4.876   1.361   7.085 -0.9473 -0.9906  1.2366
   27SAPC   H3S 3575   5.047   1.309   7.043  0.5717 -1.2001 -0.1742
   27SAPC   C24 3576   4.951   1.193   7.203 -0.0906 -0.0264  1.1887
   27SAPC   H4R 3577   4.962   1.083   7.192  0.0107  0.2472 -2.7156
   27SAPC   H4S 3578   4.854   1.209   7.255  0.3154 -2.1798  2.7218
   27SAPC   C25 3579   5.061   1.253   7.284 -0.0162 -0.0602 -0.1236
   27SAPC   H5R 3580   5.158   1.227   7.239  0.5703  1.4242  0.2136
   27SAPC   C26 3581   5.062   1.318   7.405 -0.3289  0.3443 -0.1805
   27SAPC   H6R 3582   5.163   1.344   7.440 -0.3121  0.4947 -0.3386
   27SAPC   C27 3583   4.946   1.365   7.482 -0.0715  0.2311  0.1259
   27SAPC   H7R 3584   4.972   1.369   7.590 -2.2189 -1.0359  0.7394
   27SAPC   H7S 3585   4.859   1.296   7.484 -0.2786  0.4492 -0.7973
   27SAPC   C28 3586   4.901   1.502   7.440  0.3623  0.4867 -0.3462
   27SAPC   H8R 3587   4.934   1.538   7.341 -1.0234 -0.3136 -1.1225
   27SAPC   C29 3588   4.830   1.584   7.521 -0.7098 -0.3041 -0.0531
   27SAPC   H9R 3589   4.823   1.685   7.478 -0.4545  0.0969  0.8285
   27SAPC  C210 3590   4.771   1.559   7.661  0.9802  0.7721 -0.0000
   27SAPC  H10R 3591   4.833   1.482   7.712  1.0137 -0.3316 -1.6235
   27SAPC  H10S 3592   4.673   1.511   7.642  2.2203 -1.2448 -1.7629
   27SAPC  C211 3593   4.782   1.684   7.739  0.5620 -0.0160  0.2156
   27SAPC  H11R 3594   4.849   1.754   7.688 -0.8011 -0.3577 -2.2112
   27SAPC  C212 3595   4.727   1.691   7.858 -0.6439 -0.5741 -0.0021
   27SAPC  H12R 3596   4.754   1.782   7.915 -0.2424 -1.4249  1.2228
   27SAPC  C213 3597   4.653   1.583   7.931 -0.3240 -0.8565 -0.0221
   27SAPC  H13R 3598   4.637   1.491   7.872 -2.6690 -2.1098  2.3481
   27SAPC  H13S 3599   4.555   1.628   7.961  0.3538  2.9906 -2.7751
   27SAPC  C214 3600   4.740   1.536   8.044 -0.4224 -0.7150  0.2606
   27SAPC  H14R 3601   4.832   1.486   8.011  0.8826  0.7666  1.4163
   27SAPC  C215 3602   4.723   1.561   8.172 -0.0823 -0.2546 -0.6734
   27SAPC  H15R 3603   4.791   1.519   8.247 -0.1768 -0.2059 -0.5603
   27SAPC  C216 3604   4.597   1.626   8.229 -0.1587 -0.0539 -0.0286
   27SAPC  H16R 3605   4.533   1.543   8.266  1.0281 -0.5988  0.8624
   27SAPC  H16S 3606   4.542   1.693   8.159  0.1043 -0.5744 -0.7455
   27SAPC  C217 3607   4.636   1.709   8.352 -0.0476  0.2409 -1.0594
   27SAPC  H17R 3608   4.698   1.651   8.424 -0.0146  1.0795 -0.3969
   27SAPC  H17S 3609   4.538   1.730   8.400 -0.5964 -1.1176 -1.5391
   27SAPC  C218 3610   4.702   1.845   8.321  0.1959  0.0773  0.0247
   27SAPC  H18R 3611   4.637   1.899   8.249  4.0486  1.8567 -2.5014
   27SAPC  H18S 3612   4.798   1.835   8.265 -0.8225  0.9112 -1.9959
   27SAPC  C219 3613   4.728   1.926   8.450  0.5674 -0.4997 -0.2738
   27SAPC  H19R 3614   4.638   1.931   8.514  0.5167 -0.1887 -0.3718
   27SAPC  H19S 3615   4.745   2.031   8.419 -1.3360  0.6732  2.2469
   27SAPC  C220 3616   4.843   1.863   8.526 -0.2990  0.0034 -0.1855
   27SAPC  H20R 3617   4.841   1.752   8.534  2.3705  0.0051  1.5602
   27SAPC  H20S 3618   4.835   1.905   8.628 -1.7072 -1.7870  0.4959
   27SAPC  H20T 3619   4.943   1.898   8.492  0.0710  0.8565  1.6559
   27SAPC   C33 3620   5.237   1.579   7.054 -0.3828  0.2956  0.2943
   27SAPC   H3X 3621   5.127   1.580   7.044 -0.3131 -0.7025 -0.8144
   27SAPC   H3Y 3622   5.272   1.640   6.968  1.0649 -0.5050  0.2783
   27SAPC   C34 3623   5.283   1.655   7.177 -0.1502 -0.3947 -0.9221
   27SAPC   H4X 3624   5.392   1.645   7.195 -0.1002 -0.0213 -1.0066
   27SAPC   H4Y 3625   5.228   1.608   7.261  1.1732 -0.0258  0.1723
   27SAPC   C35 3626   5.253   1.806   7.184  0.0778 -0.0707 -0.8703
   27SAPC   H5X 3627   5.153   1.824   7.139 -0.4116 -1.4014 -0.3672
   27SAPC   H5Y 3628   5.330   1.861   7.126 -0.3791 -0.2003 -1.6056
   27SAPC   C36 3629   5.243   1.870   7.324 -0.0563 -0.5847  0.3027
   27SAPC   H6X 3630   5.176   1.807   7.386  0.7156 -0.2600  1.5055
   27SAPC   H6Y 3631   5.195   1.970   7.320 -0.7030 -0.7338  2.7285
   27SAPC   C37 3632   5.375   1.894   7.395 -0.0975 -0.1470 -0.3030
   27SAPC   H7X 3633   5.434   1.974   7.347  1.3719 -0.2142  1.2834
   27SAPC   H7Y 3634   5.437   1.803   7.408 -0.1373  0.1586  3.1757
   27SAPC   C38 3635   5.365   1.941   7.546 -0.4274  0.0116  0.5229
   27SAPC   H8X 3636   5.287   1.872   7.587  1.5219 -1.3350  2.1889
   27SAPC   H8Y 3637   5.319   2.042   7.553  0.0166  0.1135  3.2416
   27SAPC   C39 3638   5.494   1.927   7.621 -0.0441  0.2816 -0.2229
   27SAPC   H9X 3639   5.576   1.988   7.577  0.0974  0.5424  0.3949
   27SAPC   H9Y 3640   5.527   1.823   7.602  1.2660  0.5437  0.4947
   27SAPC  C310 3641   5.468   1.950   7.768 -0.1631  0.0214 -0.1553
   27SAPC  H10X 3642   5.378   1.895   7.802 -0.3140 -0.0073 -0.5966
   27SAPC  H10Y 3643   5.449   2.056   7.796  2.4588  1.1106 -2.1052
   27SAPC  C311 3644   5.585   1.887   7.849  0.5100 -0.1819 -0.2902
   27SAPC  H11X 3645   5.669   1.954   7.821 -0.8174  1.3986 -0.6430
   27SAPC  H11Y 3646   5.597   1.779   7.828 -2.1881 -0.7061  0.4070
   27SAPC  C312 3647   5.564   1.903   7.999 -0.8050  0.8235 -0.1256
   27SAPC  H12X 3648   5.499   1.818   8.026  0.1502 -0.0338 -0.4447
   27SAPC  H12Y 3649   5.524   2.006   8.014  1.9242  2.0163 -0.4222
   27SAPC  C313 3650   5.696   1.900   8.085 -0.0702 -0.7279 -0.0312
   27SAPC  H13X 3651   5.746   1.999   8.080 -0.3770 -0.5478  0.4885
   27SAPC  H13Y 3652   5.761   1.819   8.044 -0.6507 -1.2999  0.1554
   27SAPC  C314 3653   5.660   1.876   8.230 -0.0625  0.7114  0.8333
   27SAPC  H14X 3654   5.600   1.783   8.230  0.9418  0.0440  0.9211
   27SAPC  H14Y 3655   5.605   1.968   8.260  0.1758  1.9275 -2.1581
   27SAPC  C315 3656   5.795   1.849   8.299  0.2984 -0.7375  0.8046
   27SAPC  H15X 3657   5.874   1.916   8.260  0.3031 -1.2967 -0.1716
   27SAPC  H15Y 3658   5.832   1.749   8.267  0.8352 -0.4380  0.4740
   27SAPC  C316 3659   5.774   1.849   8.455 -0.9754  0.6033  0.2272
   27SAPC  H16X 3660   5.718   1.756   8.481  1.7553 -1.1627  0.2406
   27SAPC  H16Y 3661   5.714   1.938   8.484 -0.9375  0.1930  1.6394
   27SAPC  C317 3662   5.901   1.871   8.541 -0.3731 -0.4588  0.3360
   27SAPC  H17X 3663   5.978   1.793   8.524 -0.5963 -0.6574  0.2424
   27SAPC  H17Y 3664   5.871   1.863   8.648  0.6228 -1.4307  0.5566
   27SAPC  C318 3665   5.959   2.009   8.510 -0.1048 -0.2595 -0.2559
   27SAPC  H18X 3666   5.889   2.087   8.546 -1.4994 -1.1920 -0.8600
   27SAPC  H18Y 3667   5.979   2.040   8.405 -1.2260  2.1854  0.1824
   27SAPC  H18Z 3668   6.056   2.010   8.563  0.0124  1.0067 -0.4650
   28SAPC     N 3669   0.189   6.632   6.243 -0.3846 -0.0257  0.5700
   28SAPC   C12 3670   0.158   6.625   6.395  0.8310  0.2924  0.3449
   28SAPC  H12A 3671   0.129   6.522   6.407 -0.6207  0.6116 -0.1519
   28SAPC  H12B 3672   0.062   6.674   6.405  1.8003  2.1292  1.2024
   28SAPC   C13 3673   0.314   6.559   6.220 -0.1492  0.8601 -0.2437
   28SAPC  H13A 3674   0.382   6.595   6.296  0.5037 -1.5194  0.3785
   28SAPC  H13B 3675   0.303   6.454   6.245  0.6685  0.7232 -0.4185
   28SAPC  H13C 3676   0.349   6.568   6.118  2.3716 -2.0874  0.2017
   28SAPC   C14 3677   0.082   6.573   6.166  0.7790 -0.0759  0.5798
   28SAPC  H14A 3678   0.054   6.471   6.186 -0.4465 -0.0317 -0.7515
   28SAPC  H14B 3679  -0.008   6.633   6.174 -0.0185 -0.8222 -1.9939
   28SAPC  H14C 3680   0.103   6.571   6.060  0.4690  1.3482  0.4716
   28SAPC   C15 3681   0.214   6.772   6.190  1.1055  1.0262 -0.2866
   28SAPC  H15A 3682   0.313   6.798   6.224  1.9113 -1.5073 -0.4581
   28SAPC  H15B 3683   0.210   6.772   6.082 -1.4206  0.2434 -0.2621
   28SAPC  H15C 3684   0.142   6.839   6.234  0.3396  1.6458 -2.3646
   28SAPC   C11 3685   0.263   6.667   6.492 -0.2009 -0.1418 -0.0717
   28SAPC  H11A 3686   0.224   6.661   6.596 -3.5175 -1.0479 -1.2293
   28SAPC  H11B 3687   0.278   6.770   6.453 -1.0412 -0.1032 -0.3195
   28SAPC     P 3688   0.519   6.635   6.517 -0.4023 -0.1905 -0.0868
   28SAPC   O13 3689   0.599   6.531   6.589  0.2484 -0.0231 -0.3869
   28SAPC   O14 3690   0.584   6.680   6.390  0.2723 -0.1231 -0.3975
   28SAPC   O12 3691   0.375   6.569   6.488 -0.0458 -0.6897  0.4237
   28SAPC   O11 3692   0.488   6.768   6.601  0.3520 -0.5681  0.2131
   28SAPC    C1 3693   0.523   6.775   6.736 -0.5454  0.2724 -0.2559
   28SAPC    HA 3694   0.630   6.749   6.752 -0.7269 -2.0989 -2.2110
   28SAPC    HB 3695   0.496   6.874   6.776 -0.8080  0.2590 -0.3958
   28SAPC    C2 3696   0.446   6.679   6.832  0.4698  0.0649 -1.0055
   28SAPC    HS 3697   0.472   6.580   6.791  3.2018  0.5637 -0.6673
   28SAPC   O21 3698   0.303   6.712   6.829  0.0969  0.4111  0.1939
   28SAPC   C21 3699   0.225   6.605   6.857 -0.2832 -0.2212  0.6204
   28SAPC   O22 3700   0.264   6.493   6.877 -0.2927  0.6154  0.1314
   28SAPC   C22 3701   0.086   6.636   6.821 -0.1746  0.9075  0.2937
   28SAPC   H2R 3702   0.082   6.722   6.749 -0.1537  1.1526  0.5840
   28SAPC   H2S 3703   0.024   6.549   6.789 -0.2001  0.6791  0.9633
   28SAPC    C3 3704   0.504   6.694   6.977 -0.9115  0.5183  0.1646
   28SAPC    HX 3705   0.515   6.803   6.996 -0.3863  0.6318 -0.7409
   28SAPC    HY 3706   0.610   6.664   6.979 -0.2902  2.5852  0.7909
   28SAPC   O31 3707   0.428   6.630   7.088 -0.3638  0.2283  0.2593
   28SAPC   C31 3708   0.470   6.506   7.112 -0.4323  0.3924 -0.1553
   28SAPC   O32 3709   0.562   6.446   7.053 -0.1250  0.3396  0.3184
   28SAPC   C32 3710   0.377   6.441   7.203  0.8805  0.4590 -0.9199
   28SAPC   H2X 3711   0.304   6.380   7.147 -0.1705  0.5482  0.3047
   28SAPC   H2Y 3712   0.315   6.509   7.266  0.2288  1.0497 -2.1693
   28SAPC   C23 3713   0.007   6.709   6.933 -0.6508 -0.2444  1.0119
   28SAPC   H3R 3714  -0.090   6.739   6.889 -0.1318  1.2002  0.7910
   28SAPC   H3S 3715   0.054   6.807   6.958 -1.8987  1.0941 -1.5282
   28SAPC   C24 3716  -0.010   6.620   7.051 -0.1258 -0.0663  0.5009
   28SAPC   H4R 3717  -0.054   6.530   7.003  1.7772 -2.2343  2.5213
   28SAPC   H4S 3718   0.087   6.590   7.098  0.0850  0.3635  0.3421
   28SAPC   C25 3719  -0.095   6.683   7.157  0.3634  0.3392  0.2964
   28SAPC   H5R 3720  -0.067   6.785   7.187  1.3693  0.3797 -0.6941
   28SAPC   C26 3721  -0.205   6.635   7.209  0.3827 -0.0376 -0.5272
   28SAPC   H6R 3722  -0.264   6.710   7.263  1.7831  2.3910 -2.1952
   28SAPC   C27 3723  -0.268   6.495   7.176 -0.4209 -0.6944 -0.4303
   28SAPC   H7R 3724  -0.223   6.411   7.234 -0.1407  0.3553  0.9112
   28SAPC   H7S 3725  -0.251   6.462   7.071  1.3863  0.9928 -0.7248
   28SAPC   C28 3726  -0.417   6.482   7.209  0.0704 -0.5794 -0.0647
   28SAPC   H8R 3727  -0.485   6.490   7.122  0.9259 -1.2980 -0.8220
   28SAPC   C29 3728  -0.473   6.449   7.327 -0.4854 -0.2097  0.0873
   28SAPC   H9R 3729  -0.583   6.447   7.328 -0.5417  0.5367 -1.6044
   28SAPC  C210 3730  -0.397   6.425   7.463 -0.0293  0.3749 -0.6690
   28SAPC  H10R 3731  -0.431   6.510   7.526  2.4762  0.7922  0.2372
   28SAPC  H10S 3732  -0.287   6.441   7.456 -0.0149  1.8692  1.7104
   28SAPC  C211 3733  -0.418   6.282   7.513 -0.1863 -0.0573  0.0931
   28SAPC  H11R 3734  -0.389   6.197   7.450  0.0371 -1.1989  1.6739
   28SAPC  C212 3735  -0.462   6.246   7.635  0.4983  0.1657  0.0601
   28SAPC  H12R 3736  -0.465   6.139   7.662  1.2801  0.6344  2.1606
   28SAPC  C213 3737  -0.509   6.331   7.748  0.5546  1.4063  0.1246
   28SAPC  H13R 3738  -0.425   6.398   7.779  0.1484  0.5764  3.3964
   28SAPC  H13S 3739  -0.535   6.260   7.829 -2.6370  0.4660 -1.5473
   28SAPC  C214 3740  -0.624   6.423   7.726 -0.3618 -0.1445 -0.4219
   28SAPC  H14R 3741  -0.611   6.497   7.645  1.2718 -1.1652 -1.1553
   28SAPC  C215 3742  -0.744   6.417   7.785 -0.1244 -0.2416 -0.6283
   28SAPC  H15R 3743  -0.815   6.495   7.754  0.9917  0.4939 -1.3926
   28SAPC  C216 3744  -0.779   6.305   7.885 -0.3892  0.8800  0.4236
   28SAPC  H16R 3745  -0.696   6.244   7.927  0.1462  0.7497 -0.7886
   28SAPC  H16S 3746  -0.840   6.234   7.825  0.2338 -0.9780  1.8561
   28SAPC  C217 3747  -0.856   6.357   8.005  0.2217 -0.6749 -0.0867
   28SAPC  H17R 3748  -0.929   6.281   8.039 -0.1271 -0.7964 -1.0781
   28SAPC  H17S 3749  -0.916   6.448   7.983 -4.5812 -3.2385  1.0869
   28SAPC  C218 3750  -0.775   6.403   8.135  0.6619  0.4918  0.1153
   28SAPC  H18R 3751  -0.749   6.316   8.199  0.8119 -1.1654 -2.0622
   28SAPC  H18S 3752  -0.846   6.467   8.192  0.0072 -0.0120 -0.1208
   28SAPC  C219 3753  -0.644   6.481   8.112 -0.0640 -0.4198  0.0858
   28SAPC  H19R 3754  -0.663   6.569   8.047  2.7116 -0.2820 -0.6662
   28SAPC  H19S 3755  -0.565   6.419   8.065 -0.1786  0.0813 -0.7908
   28SAPC  C220 3756  -0.571   6.539   8.229 -0.0345 -0.0082 -0.7957
   28SAPC  H20R 3757  -0.500   6.466   8.273 -2.0780 -1.7865 -0.2639
   28SAPC  H20S 3758  -0.640   6.576   8.308  1.5203 -0.3611  0.7927
   28SAPC  H20T 3759  -0.505   6.623   8.198  1.6734 -0.7154  0.7505
   28SAPC   C33 3760   0.431   6.336   7.305 -0.6969 -0.0679  0.1746
   28SAPC   H3X 3761   0.482   6.267   7.234 -2.1142 -0.8077 -0.1619
   28SAPC   H3Y 3762   0.358   6.262   7.343  0.2790  0.0209  2.3764
   28SAPC   C34 3763   0.512   6.382   7.426  0.5878  0.4548  0.4922
   28SAPC   H4X 3764   0.552   6.483   7.403  0.0464  0.3171 -1.2343
   28SAPC   H4Y 3765   0.593   6.309   7.446  0.4628  0.0390 -0.4278
   28SAPC   C35 3766   0.416   6.392   7.551 -0.2803  0.2288 -0.1954
   28SAPC   H5X 3767   0.371   6.293   7.576  1.1542 -1.0219 -2.3279
   28SAPC   H5Y 3768   0.335   6.467   7.539 -0.6025 -0.0976 -0.0861
   28SAPC   C36 3769   0.497   6.437   7.670 -0.5224 -0.0212  0.9934
   28SAPC   H6X 3770   0.539   6.537   7.645  1.5413 -1.4672 -1.9460
   28SAPC   H6Y 3771   0.575   6.361   7.693 -1.3133 -1.0057  0.4953
   28SAPC   C37 3772   0.413   6.446   7.797  0.1733  0.1908 -0.1763
   28SAPC   H7X 3773   0.339   6.364   7.809  0.8645 -0.3119  0.8866
   28SAPC   H7Y 3774   0.354   6.539   7.783  0.0105  0.2255  0.6828
   28SAPC   C38 3775   0.500   6.442   7.922 -0.0002  0.4593  1.1876
   28SAPC   H8X 3776   0.560   6.535   7.926  2.2533 -0.5558 -3.4005
   28SAPC   H8Y 3777   0.579   6.365   7.911 -0.1818  0.6264 -1.8980
   28SAPC   C39 3778   0.423   6.404   8.044 -0.0005  0.5063 -0.9265
   28SAPC   H9X 3779   0.402   6.295   8.048  1.3093  0.1793 -2.0980
   28SAPC   H9Y 3780   0.325   6.457   8.046 -0.5048 -0.1573  3.9025
   28SAPC  C310 3781   0.489   6.440   8.184  1.0498 -0.1873 -0.1260
   28SAPC  H10X 3782   0.494   6.551   8.189  0.1932  0.1355 -4.0280
   28SAPC  H10Y 3783   0.598   6.419   8.184  1.5181  1.9822 -0.0810
   28SAPC  C311 3784   0.417   6.386   8.301 -0.5410  0.1612 -0.4291
   28SAPC  H11X 3785   0.414   6.275   8.303 -0.3166  0.1647  0.6029
   28SAPC  H11Y 3786   0.312   6.420   8.294  0.1974  3.0132  1.0746
   28SAPC  C312 3787   0.478   6.422   8.436  0.0755  0.2726  0.2945
   28SAPC  H12X 3788   0.589   6.411   8.436  0.0030 -0.6182  1.4715
   28SAPC  H12Y 3789   0.438   6.348   8.509  0.5947  0.3486  0.6626
   28SAPC  C313 3790   0.445   6.561   8.480 -0.7309  0.1261 -0.4400
   28SAPC  H13X 3791   0.453   6.634   8.396  2.5991  0.5080  0.0769
   28SAPC  H13Y 3792   0.510   6.597   8.562 -1.5155  0.7044 -0.0628
   28SAPC  C314 3793   0.309   6.575   8.543  0.5055 -0.7673  0.7936
   28SAPC  H14X 3794   0.310   6.519   8.639  1.4071 -1.0457  0.6259
   28SAPC  H14Y 3795   0.233   6.541   8.469  1.8741  1.4613 -1.8048
   28SAPC  C315 3796   0.272   6.723   8.575  0.2650  0.0675  0.2449
   28SAPC  H15X 3797   0.228   6.762   8.481 -1.5163 -0.9728  0.6048
   28SAPC  H15Y 3798   0.364   6.781   8.597  1.1674 -0.7075 -1.2650
   28SAPC  C316 3799   0.170   6.748   8.685 -0.1676  0.8364 -0.4739
   28SAPC  H16X 3800   0.226   6.722   8.777 -2.7190 -0.0896  0.9064
   28SAPC  H16Y 3801   0.087   6.675   8.672 -0.7705  1.2950  0.6675
   28SAPC  C317 3802   0.105   6.886   8.686  0.3576 -0.1958 -0.1586
   28SAPC  H17X 3803   0.014   6.885   8.750 -0.3376 -1.1846 -1.1096
   28SAPC  H17Y 3804   0.078   6.919   8.584  0.4239  1.6555  0.3919
   28SAPC  C318 3805   0.197   6.978   8.751  0.0309 -0.1165 -0.5417
   28SAPC  H18X 3806   0.211   6.957   8.860  1.0856 -0.3603 -0.7108
   28SAPC  H18Y 3807   0.165   7.084   8.742 -1.0616 -0.4078 -0.1850
   28SAPC  H18Z 3808   0.296   6.971   8.700 -0.8999 -0.4112 -2.3807
   29SAPC     N 3809   5.989   2.924   6.100  0.5868  0.7242  0.4343
   29SAPC   C12 3810   6.000   2.776   6.122 -0.2637  0.2086  0.3161
   29SAPC  H12A 3811   5.924   2.715   6.076  1.6259 -0.3726 -2.2914
   29SAPC  H12B 3812   5.988   2.763   6.229 -0.8415 -1.6863  0.0540
   29SAPC   C13 3813   6.064   2.990   6.199 -0.1775 -0.6155 -0.0449
   29SAPC  H13A 3814   6.038   2.955   6.298  1.3608 -1.2482  0.1731
   29SAPC  H13B 3815   6.171   2.975   6.189  0.0140  0.0480  0.8376
   29SAPC  H13C 3816   6.060   3.098   6.203  2.1844 -0.4783  2.4365
   29SAPC   C14 3817   6.027   2.959   5.960 -0.5616  0.3017  0.0920
   29SAPC  H14A 3818   5.966   2.911   5.885  0.7554  3.0859 -3.0480
   29SAPC  H14B 3819   6.042   3.063   5.934  0.5486 -0.0741 -0.8740
   29SAPC  H14C 3820   6.120   2.910   5.934 -1.4110 -2.1969  1.4645
   29SAPC   C15 3821   5.849   2.983   6.133  0.3162  0.5155 -0.4225
   29SAPC  H15A 3822   5.771   2.909   6.123  1.4577 -0.7456 -0.2861
   29SAPC  H15B 3823   5.854   2.991   6.241  0.7275 -2.5981 -0.0946
   29SAPC  H15C 3824   5.821   3.075   6.085 -0.2511  0.2197 -0.6646
   29SAPC   C11 3825   6.136   2.711   6.092 -0.1595 -0.2236 -0.8552
   29SAPC  H11A 3826   6.228   2.753   6.137 -0.1644 -0.9677 -0.1337
   29SAPC  H11B 3827   6.157   2.715   5.983  0.7613 -1.6528 -0.7693
   29SAPC     P 3828   6.134   2.505   6.254 -0.0991 -0.4927 -0.1925
   29SAPC   O13 3829   6.012   2.424   6.268  0.1412 -0.2497 -1.0517
   29SAPC   O14 3830   6.264   2.444   6.284  0.1851 -0.0284  0.1899
   29SAPC   O12 3831   6.130   2.570   6.111  0.3531 -0.1965  0.6370
   29SAPC   O11 3832   6.119   2.629   6.349 -0.0379 -0.2131 -0.0928
   29SAPC    C1 3833   6.207   2.657   6.453  0.4448 -0.6485  0.1270
   29SAPC    HA 3834   6.310   2.622   6.432 -0.9950 -3.2026 -3.7002
   29SAPC    HB 3835   6.199   2.767   6.468 -4.9713 -1.0566  2.7927
   29SAPC    C2 3836   6.182   2.577   6.584  0.9359  0.2589 -0.1618
   29SAPC    HS 3837   6.193   2.469   6.561 -1.3586 -0.1554  0.3917
   29SAPC   O21 3838   6.045   2.598   6.625 -0.0230 -0.1101  0.0393
   29SAPC   C21 3839   5.991   2.502   6.701 -0.2609 -0.0606 -0.1587
   29SAPC   O22 3840   6.052   2.404   6.750 -0.5296 -0.7347  0.3072
   29SAPC   C22 3841   5.847   2.534   6.719 -0.6637  0.6529  0.0307
   29SAPC   H2R 3842   5.847   2.627   6.781  2.3764 -0.5545  2.1025
   29SAPC   H2S 3843   5.811   2.549   6.615  1.9516  0.1297 -1.0355
   29SAPC    C3 3844   6.285   2.623   6.692  0.1089  0.1711 -0.2638
   29SAPC    HX 3845   6.245   2.718   6.735 -2.5809 -1.7196  1.7393
   29SAPC    HY 3846   6.384   2.640   6.644  0.5759 -2.7499 -0.4933
   29SAPC   O31 3847   6.310   2.531   6.807  0.3793  0.6452  0.2021
   29SAPC   C31 3848   6.260   2.568   6.932  1.1179 -0.3081  0.7750
   29SAPC   O32 3849   6.196   2.669   6.950  0.1727  0.0535  0.1512
   29SAPC   C32 3850   6.301   2.469   7.041  0.0892 -0.4152  0.1030
   29SAPC   H2X 3851   6.363   2.520   7.117  1.3446 -1.1040 -0.4394
   29SAPC   H2Y 3852   6.353   2.389   6.985 -2.2689 -0.4358 -2.2811
   29SAPC   C23 3853   5.772   2.410   6.776 -0.0190 -0.4627 -0.1687
   29SAPC   H3R 3854   5.811   2.312   6.740  1.3418  0.6230 -1.8750
   29SAPC   H3S 3855   5.670   2.428   6.736 -0.3165  0.9668  1.1773
   29SAPC   C24 3856   5.761   2.414   6.933 -0.3221 -0.2666 -0.3678
   29SAPC   H4R 3857   5.865   2.407   6.974 -0.5485 -0.0874  0.2379
   29SAPC   H4S 3858   5.726   2.314   6.967  0.3489 -0.0950  0.8872
   29SAPC   C25 3859   5.692   2.533   6.991  0.8260  0.4337  0.0914
   29SAPC   H5R 3860   5.631   2.590   6.921  0.5697  0.6629  0.5023
   29SAPC   C26 3861   5.687   2.557   7.120 -0.6483  1.2569 -0.0230
   29SAPC   H6R 3862   5.646   2.653   7.156  2.5687  2.6364  0.3901
   29SAPC   C27 3863   5.751   2.480   7.234 -0.1562  0.1705 -0.2252
   29SAPC   H7R 3864   5.784   2.553   7.312  0.4504 -1.3277  0.9831
   29SAPC   H7S 3865   5.836   2.415   7.205 -0.7531 -0.4312 -0.6402
   29SAPC   C28 3866   5.648   2.385   7.295 -0.3974 -0.4870 -0.6356
   29SAPC   H8R 3867   5.592   2.327   7.221 -2.4289 -2.0469  1.9546
   29SAPC   C29 3868   5.636   2.365   7.429 -0.0504  0.7903  0.2171
   29SAPC   H9R 3869   5.543   2.314   7.460 -2.1077  3.8834 -0.4117
   29SAPC  C210 3870   5.714   2.441   7.530 -0.0735  0.2322 -0.6132
   29SAPC  H10R 3871   5.710   2.551   7.515  0.4085  0.1819 -1.1304
   29SAPC  H10S 3872   5.822   2.413   7.531  0.5787  2.5305  0.8454
   29SAPC  C211 3873   5.654   2.427   7.667  0.3284 -0.1602 -0.0915
   29SAPC  H11R 3874   5.561   2.483   7.681 -0.3410 -0.9864 -1.0299
   29SAPC  C212 3875   5.710   2.362   7.773 -0.2364  0.3003  0.1200
   29SAPC  H12R 3876   5.656   2.360   7.869 -0.0808 -0.6072  0.1920
   29SAPC  C213 3877   5.841   2.286   7.770 -0.5786  0.3495 -0.1266
   29SAPC  H13R 3878   5.858   2.224   7.679  1.9558 -2.1769  1.8814
   29SAPC  H13S 3879   5.829   2.213   7.853  0.7670 -0.0328 -0.2484
   29SAPC  C214 3880   5.972   2.350   7.802 -0.2344 -0.0163  0.1372
   29SAPC  H14R 3881   6.042   2.365   7.719 -2.0031  0.0665 -1.3800
   29SAPC  C215 3882   6.009   2.395   7.924 -0.4267 -0.2354  0.5048
   29SAPC  H15R 3883   6.109   2.441   7.931 -0.6684  0.0999  2.1046
   29SAPC  C216 3884   5.938   2.400   8.049  0.1654 -0.3909 -0.7005
   29SAPC  H16R 3885   5.836   2.359   8.034  0.5404 -1.1147 -1.2742
   29SAPC  H16S 3886   5.931   2.502   8.094 -2.9047 -1.0462  0.5617
   29SAPC  C217 3887   5.997   2.308   8.161  0.0769 -0.2126  0.7113
   29SAPC  H17R 3888   6.023   2.207   8.122 -0.3251  0.9093 -2.8192
   29SAPC  H17S 3889   5.921   2.295   8.242 -1.1835 -0.2808 -0.4459
   29SAPC  C218 3890   6.126   2.361   8.227 -0.0482 -0.4684 -0.1333
   29SAPC  H18R 3891   6.115   2.461   8.275  1.2704 -0.7249  0.7741
   29SAPC  H18S 3892   6.202   2.390   8.152 -0.0329 -0.6065 -0.1716
   29SAPC  C219 3893   6.184   2.256   8.325 -0.8144 -0.6508 -0.0938
   29SAPC  H19R 3894   6.186   2.154   8.280 -1.0061 -0.1846 -1.1969
   29SAPC  H19S 3895   6.109   2.266   8.407  0.5090  3.4104  0.8793
   29SAPC  C220 3896   6.314   2.304   8.385  0.0982  0.3061  0.1969
   29SAPC  H20R 3897   6.355   2.249   8.473  2.2791  0.5689 -0.5954
   29SAPC  H20S 3898   6.290   2.409   8.413 -1.4029  0.0111  0.1022
   29SAPC  H20T 3899   6.393   2.291   8.308 -0.8017 -2.9548 -0.3222
   29SAPC   C33 3900   6.190   2.419   7.131  0.2401  0.1469 -0.3449
   29SAPC   H3X 3901   6.132   2.340   7.079  2.6392 -2.1617  0.1837
   29SAPC   H3Y 3902   6.126   2.505   7.159  0.8092  0.5945 -0.3920
   29SAPC   C34 3903   6.241   2.349   7.258 -0.2166 -0.0814 -0.3626
   29SAPC   H4X 3904   6.313   2.425   7.295  0.3570 -0.2955 -1.0243
   29SAPC   H4Y 3905   6.296   2.256   7.233  0.9744  0.7404 -0.8723
   29SAPC   C35 3906   6.143   2.326   7.370  0.2411  0.8473  0.3065
   29SAPC   H5X 3907   6.065   2.268   7.318  0.2591  0.6841  0.4616
   29SAPC   H5Y 3908   6.110   2.426   7.405 -1.5383  0.6782 -0.7765
   29SAPC   C36 3909   6.203   2.228   7.481  0.2903 -0.0406  0.4554
   29SAPC   H6X 3910   6.256   2.138   7.442 -3.5207 -1.6698 -1.4431
   29SAPC   H6Y 3911   6.114   2.196   7.539 -1.0815  1.7588 -0.5865
   29SAPC   C37 3912   6.294   2.303   7.582 -0.5620  0.6646  0.2478
   29SAPC   H7X 3913   6.252   2.402   7.609  1.9122  1.3860  1.8403
   29SAPC   H7Y 3914   6.389   2.334   7.533 -0.4176  0.0707  0.1442
   29SAPC   C38 3915   6.320   2.227   7.718 -0.1480  0.9747  0.0508
   29SAPC   H8X 3916   6.369   2.129   7.701 -0.0669  0.7746  1.3451
   29SAPC   H8Y 3917   6.222   2.203   7.764 -0.3426  1.9418  0.1731
   29SAPC   C39 3918   6.400   2.309   7.815  0.0594 -0.0504  0.3297
   29SAPC   H9X 3919   6.326   2.386   7.846  0.9301  1.2065 -0.6379
   29SAPC   H9Y 3920   6.475   2.360   7.752  0.9161  0.0856  1.4237
   29SAPC  C310 3921   6.483   2.233   7.925  0.8055 -0.3071  0.2126
   29SAPC  H10X 3922   6.562   2.171   7.877 -0.4157 -0.4707 -1.7188
   29SAPC  H10Y 3923   6.413   2.154   7.960 -2.6893  1.8245 -1.3697
   29SAPC  C311 3924   6.523   2.319   8.040  0.8635  0.5791 -0.0518
   29SAPC  H11X 3925   6.434   2.369   8.085  0.0533  0.0191 -0.9856
   29SAPC  H11Y 3926   6.587   2.403   8.008 -0.3923  1.4423 -0.3512
   29SAPC  C312 3927   6.608   2.243   8.144 -0.7757 -0.3337 -0.3234
   29SAPC  H12X 3928   6.532   2.175   8.188 -1.5859 -0.1565 -1.4098
   29SAPC  H12Y 3929   6.645   2.313   8.222  0.5398  0.4094 -1.5630
   29SAPC  C313 3930   6.721   2.151   8.096  0.5324 -0.3515  0.2462
   29SAPC  H13X 3931   6.790   2.216   8.038 -1.1241  0.7548 -0.5503
   29SAPC  H13Y 3932   6.684   2.066   8.035  0.5101 -0.3816  0.3024
   29SAPC  C314 3933   6.788   2.083   8.217  0.0241  0.0259  0.1072
   29SAPC  H14X 3934   6.705   2.020   8.257 -0.1924 -0.0363 -0.4328
   29SAPC  H14Y 3935   6.822   2.166   8.282  1.2120 -0.0862 -0.3436
   29SAPC  C315 3936   6.910   2.004   8.185  0.1177 -0.2935  0.2338
   29SAPC  H15X 3937   6.889   1.959   8.086  1.2541  1.0276 -0.6567
   29SAPC  H15Y 3938   6.924   1.930   8.267 -0.5904 -1.0363 -0.3068
   29SAPC  C316 3939   7.036   2.095   8.164  0.4488  0.1003  0.8153
   29SAPC  H16X 3940   7.044   2.171   8.244  2.2698  1.2299 -0.3648
   29SAPC  H16Y 3941   7.021   2.162   8.077 -1.3437 -0.4863  0.6257
   29SAPC  C317 3942   7.170   2.024   8.137 -0.7986  0.0276  1.0061
   29SAPC  H17X 3943   7.199   1.953   8.217 -0.1037  1.6075  2.2060
   29SAPC  H17Y 3944   7.253   2.097   8.128  1.5190 -2.3179  2.2884
   29SAPC  C318 3945   7.165   1.953   8.001 -0.6762 -0.4147 -0.0510
   29SAPC  H18X 3946   7.126   2.022   7.924 -2.7032 -2.3227 -0.8145
   29SAPC  H18Y 3947   7.096   1.866   7.998  0.1930 -1.0825 -1.5088
   29SAPC  H18Z 3948   7.267   1.917   7.977 -1.0284 -1.2451 -0.3578
   30SAPC     N 3949   2.367   4.555   6.123  0.1617  0.2849  0.0087
   30SAPC   C12 3950   2.466   4.454   6.080  0.3332  0.5472  0.1563
   30SAPC  H12A 3951   2.554   4.498   6.036  1.5593 -1.9706 -0.1025
   30SAPC  H12B 3952   2.421   4.395   6.002 -1.7505  0.2991  1.4556
   30SAPC   C13 3953   2.414   4.656   6.224 -0.4787  1.0327  0.7312
   30SAPC  H13A 3954   2.495   4.711   6.179 -0.5706  0.2618 -0.4277
   30SAPC  H13B 3955   2.335   4.728   6.241 -1.6053  0.3984 -1.3315
   30SAPC  H13C 3956   2.418   4.602   6.317 -1.2680 -0.2329  0.0686
   30SAPC   C14 3957   2.325   4.643   6.008 -0.4541 -0.0098 -0.6786
   30SAPC  H14A 3958   2.241   4.703   6.041 -0.9071 -0.5923 -0.7545
   30SAPC  H14B 3959   2.399   4.718   5.987 -0.2123 -0.5268 -1.7236
   30SAPC  H14C 3960   2.283   4.583   5.928 -0.6783 -0.4098 -0.2684
   30SAPC   C15 3961   2.242   4.491   6.178 -0.3429 -0.2654  0.9392
   30SAPC  H15A 3962   2.169   4.561   6.217 -0.8454  0.1181 -0.6232
   30SAPC  H15B 3963   2.200   4.429   6.100  0.2559  2.6863 -1.9908
   30SAPC  H15C 3964   2.273   4.439   6.267 -2.7198 -0.4958  1.6933
   30SAPC   C11 3965   2.527   4.362   6.192  0.2119 -0.8893  0.2667
   30SAPC  H11A 3966   2.443   4.298   6.225 -0.7110  0.5644  0.8422
   30SAPC  H11B 3967   2.576   4.401   6.284 -0.6773 -0.1946  0.4593
   30SAPC     P 3968   2.764   4.314   6.092 -0.1541 -0.1056  0.0048
   30SAPC   O13 3969   2.795   4.292   5.947 -0.3366  0.7299 -0.0734
   30SAPC   O14 3970   2.796   4.443   6.154  0.4475  0.3453  0.0671
   30SAPC   O12 3971   2.611   4.273   6.127  0.5770 -0.3887 -0.0480
   30SAPC   O11 3972   2.856   4.203   6.154 -0.0428  0.3871 -0.0745
   30SAPC    C1 3973   2.832   4.087   6.236  0.3170 -0.4006  0.4644
   30SAPC    HA 3974   2.761   4.023   6.179  0.2462  0.0253  0.0610
   30SAPC    HB 3975   2.928   4.030   6.239 -0.6204 -2.0867 -0.3119
   30SAPC    C2 3976   2.791   4.129   6.383  1.0432  0.4496 -0.2507
   30SAPC    HS 3977   2.706   4.201   6.374 -0.5972 -1.3870 -0.1346
   30SAPC   O21 3978   2.904   4.199   6.443 -0.2613 -0.6802 -0.6515
   30SAPC   C21 3979   2.870   4.296   6.528 -0.2263  0.2177  0.6234
   30SAPC   O22 3980   2.768   4.361   6.536 -0.2184 -0.4622 -0.2129
   30SAPC   C22 3981   2.995   4.302   6.621 -0.2846 -0.4535  0.4174
   30SAPC   H2R 3982   3.028   4.199   6.648  1.3850 -0.8044 -2.5510
   30SAPC   H2S 3983   3.073   4.346   6.556  0.5807 -0.9437  1.1037
   30SAPC    C3 3984   2.760   4.012   6.476  0.2234 -0.4593 -1.3731
   30SAPC    HX 3985   2.853   3.954   6.492  1.3476  1.3440 -0.9716
   30SAPC    HY 3986   2.680   3.954   6.427 -1.0579 -1.0109  1.1840
   30SAPC   O31 3987   2.713   4.065   6.605 -0.1387  0.0897  0.1289
   30SAPC   C31 3988   2.590   4.110   6.605  0.4922  0.5613  0.9762
   30SAPC   O32 3989   2.523   4.122   6.500  0.3886 -0.2533 -0.1402
   30SAPC   C32 3990   2.546   4.156   6.746 -0.7283 -0.3502 -0.3070
   30SAPC   H2X 3991   2.606   4.244   6.777 -2.6393  0.9217 -0.0391
   30SAPC   H2Y 3992   2.580   4.083   6.822  1.4251 -1.0402 -1.8424
   30SAPC   C23 3993   2.961   4.394   6.745  0.6941 -1.2236 -0.4858
   30SAPC   H3R 3994   2.876   4.362   6.809  1.0533 -0.1441  0.5781
   30SAPC   H3S 3995   2.940   4.501   6.721  1.0321 -1.2091 -0.7220
   30SAPC   C24 3996   3.082   4.386   6.844  0.3446  0.5868 -0.4616
   30SAPC   H4R 3997   3.167   4.435   6.790  0.7176  0.3111 -0.1318
   30SAPC   H4S 3998   3.109   4.279   6.855  0.8754  0.7693  0.0723
   30SAPC   C25 3999   3.059   4.466   6.971 -0.0654  0.1298 -0.0702
   30SAPC   H5R 4000   3.038   4.573   6.955  1.3557  0.2102 -1.7195
   30SAPC   C26 4001   3.054   4.418   7.101  0.0929 -0.3358  0.3131
   30SAPC   H6R 4002   3.023   4.489   7.179 -0.3593  1.1394 -1.1644
   30SAPC   C27 4003   3.084   4.274   7.144  0.1023  0.2034  0.9794
   30SAPC   H7R 4004   3.033   4.201   7.077  0.9426 -0.1730  0.7399
   30SAPC   H7S 4005   3.044   4.264   7.247 -2.5229  4.0601  0.5535
   30SAPC   C28 4006   3.227   4.230   7.145 -0.2343 -0.2808  0.0011
   30SAPC   H8R 4007   3.279   4.224   7.048 -0.5844  1.3108 -0.3208
   30SAPC   C29 4008   3.300   4.204   7.258 -0.0167  0.3948  0.5119
   30SAPC   H9R 4009   3.405   4.172   7.251  0.6506  2.4169  0.7817
   30SAPC  C210 4010   3.248   4.240   7.397  0.1023  0.0745 -0.0518
   30SAPC  H10R 4011   3.152   4.296   7.401  0.3169  0.3354  2.7078
   30SAPC  H10S 4012   3.326   4.308   7.438 -2.3295  2.9800  0.0662
   30SAPC  C211 4013   3.229   4.108   7.487  0.1450 -0.7862  0.0367
   30SAPC  H11R 4014   3.157   4.036   7.447  0.5665 -0.3445 -1.6118
   30SAPC  C212 4015   3.282   4.088   7.610 -0.2914  1.1614  0.4596
   30SAPC  H12R 4016   3.273   3.988   7.655  3.0324 -1.9048 -4.6356
   30SAPC  C213 4017   3.374   4.184   7.682  0.4824  0.0194  0.9811
   30SAPC  H13R 4018   3.441   4.234   7.609  0.7300  0.0698  1.2456
   30SAPC  H13S 4019   3.436   4.137   7.761  0.9140  0.5145  0.9427
   30SAPC  C214 4020   3.297   4.290   7.756 -0.0467 -0.1194 -0.0271
   30SAPC  H14R 4021   3.238   4.365   7.702 -3.0835 -2.7951 -0.7334
   30SAPC  C215 4022   3.291   4.299   7.891  0.0080  0.1639  0.2372
   30SAPC  H15R 4023   3.229   4.385   7.920 -1.0463 -0.5227  0.0663
   30SAPC  C216 4024   3.347   4.199   7.993  0.1715 -0.1853 -0.4192
   30SAPC  H16R 4025   3.405   4.120   7.941 -1.8708 -0.0589 -3.1173
   30SAPC  H16S 4026   3.266   4.141   8.042  0.8544 -1.3454 -0.6107
   30SAPC  C217 4027   3.434   4.273   8.097 -0.3875 -0.3678  0.3321
   30SAPC  H17R 4028   3.370   4.333   8.165 -0.7231  1.2251 -1.3299
   30SAPC  H17S 4029   3.515   4.333   8.051 -1.0376 -0.3403 -0.8009
   30SAPC  C218 4030   3.504   4.188   8.205  0.0267  0.4757 -0.0462
   30SAPC  H18R 4031   3.428   4.127   8.259  0.5972 -1.0519 -0.8989
   30SAPC  H18S 4032   3.546   4.261   8.278 -1.3419  1.4358 -0.1895
   30SAPC  C219 4033   3.614   4.088   8.162  0.6601 -0.4515 -0.3902
   30SAPC  H19R 4034   3.700   4.150   8.129  1.0022 -0.7595 -0.0826
   30SAPC  H19S 4035   3.568   4.034   8.077 -1.9233  0.8598  0.0646
   30SAPC  C220 4036   3.663   3.992   8.264  0.4289  0.0991  0.2583
   30SAPC  H20R 4037   3.728   3.924   8.205  2.0379  1.6556  0.1772
   30SAPC  H20S 4038   3.584   3.939   8.321 -0.9018  1.8935  0.1792
   30SAPC  H20T 4039   3.727   4.047   8.335 -0.7694 -0.8836  2.1854
   30SAPC   C33 4040   2.396   4.188   6.755 -0.2424 -0.5475  0.0958
   30SAPC   H3X 4041   2.331   4.108   6.715 -0.8845  1.2339 -2.7637
   30SAPC   H3Y 4042   2.372   4.276   6.691  1.4407  0.3545  0.6295
   30SAPC   C34 4043   2.360   4.227   6.899 -0.1868  0.4188 -0.6764
   30SAPC   H4X 4044   2.416   4.152   6.960  2.2377  1.1962 -1.8138
   30SAPC   H4Y 4045   2.250   4.221   6.909 -0.2604 -0.5281 -1.7654
   30SAPC   C35 4046   2.410   4.369   6.933 -0.0193  0.1032  0.2886
   30SAPC   H5X 4047   2.369   4.437   6.856 -1.1630 -1.6328 -0.7149
   30SAPC   H5Y 4048   2.521   4.360   6.939 -0.1104 -0.6845  0.9400
   30SAPC   C36 4049   2.356   4.419   7.066  0.3236 -0.7469  0.5041
   30SAPC   H6X 4050   2.246   4.401   7.065 -0.2434  2.1504  0.6693
   30SAPC   H6Y 4051   2.373   4.528   7.079 -2.7091  0.0260 -0.9350
   30SAPC   C37 4052   2.405   4.352   7.196  0.3740 -0.4454  0.2968
   30SAPC   H7X 4053   2.515   4.368   7.201  0.2203  0.5372  0.5831
   30SAPC   H7Y 4054   2.378   4.244   7.188  0.6244 -0.4730 -0.2065
   30SAPC   C38 4055   2.342   4.407   7.321 -0.2201  0.8261 -0.2432
   30SAPC   H8X 4056   2.232   4.393   7.316 -0.0422 -0.5306 -0.8368
   30SAPC   H8Y 4057   2.371   4.513   7.337  2.3619  0.1568  0.0671
   30SAPC   C39 4058   2.389   4.319   7.437 -0.5109 -0.1262 -0.6094
   30SAPC   H9X 4059   2.499   4.321   7.451 -0.7061  1.2296  1.0748
   30SAPC   H9Y 4060   2.356   4.213   7.430  1.1715 -1.2410  4.0834
   30SAPC  C310 4061   2.329   4.371   7.567  0.4093  0.6022  0.5131
   30SAPC  H10X 4062   2.236   4.311   7.575  0.4889  0.4844  0.5636
   30SAPC  H10Y 4063   2.313   4.481   7.565  0.6031  0.6331 -1.7959
   30SAPC  C311 4064   2.411   4.336   7.695 -0.1630  0.2845 -0.1807
   30SAPC  H11X 4065   2.515   4.365   7.671 -0.2506  0.1963 -0.6900
   30SAPC  H11Y 4066   2.415   4.226   7.712  0.7154  0.7068  2.8438
   30SAPC  C312 4067   2.341   4.409   7.813 -0.0755 -0.0942 -0.6126
   30SAPC  H12X 4068   2.239   4.365   7.827  0.2729 -1.7937 -2.8180
   30SAPC  H12Y 4069   2.343   4.516   7.785  1.8066 -0.1994 -1.0042
   30SAPC  C313 4070   2.417   4.407   7.949 -0.9006  0.0923 -0.2449
   30SAPC  H13X 4071   2.518   4.452   7.934 -1.4482  1.1070 -1.0512
   30SAPC  H13Y 4072   2.433   4.299   7.968  0.3325  0.4911  1.1815
   30SAPC  C314 4073   2.349   4.468   8.066 -0.6770  0.0159 -0.5078
   30SAPC  H14X 4074   2.246   4.436   8.093 -0.7282  0.5457 -0.0450
   30SAPC  H14Y 4075   2.334   4.576   8.043  0.5980  0.2655 -0.1991
   30SAPC  C315 4076   2.442   4.457   8.190  0.3315  0.1397 -0.1149
   30SAPC  H15X 4077   2.539   4.494   8.152 -0.8668  2.9584 -0.6758
   30SAPC  H15Y 4078   2.441   4.352   8.225 -0.3216  0.3401  0.4793
   30SAPC  C316 4079   2.395   4.541   8.309  0.6152  0.2411  0.1756
   30SAPC  H16X 4080   2.371   4.642   8.268  0.4658  0.0650 -0.1801
   30SAPC  H16Y 4081   2.475   4.550   8.386  1.6931  1.4693 -1.0361
   30SAPC  C317 4082   2.271   4.494   8.382 -0.4441  0.0187  0.2840
   30SAPC  H17X 4083   2.290   4.395   8.428 -1.5103 -0.3848 -0.1133
   30SAPC  H17Y 4084   2.187   4.488   8.310  0.3412 -0.1196 -0.6522
   30SAPC  C318 4085   2.228   4.585   8.499  0.6923  0.3831 -0.2649
   30SAPC  H18X 4086   2.138   4.542   8.548  1.1204 -0.2112  0.0184
   30SAPC  H18Y 4087   2.200   4.682   8.454 -1.1808  0.5623  1.1355
   30SAPC  H18Z 4088   2.304   4.597   8.578 -0.6363  0.2024  1.0860
   31SAPC     N 4089   3.242   6.007   6.051  0.1021 -0.2214 -0.0784
   31SAPC   C12 4090   3.156   5.924   5.956  0.4115  0.7953 -0.1581
   31SAPC  H12A 4091   3.182   5.820   5.954 -1.9173  0.1159  1.0856
   31SAPC  H12B 4092   3.189   5.956   5.859  0.5328  0.1957 -0.3131
   31SAPC   C13 4093   3.388   5.993   6.015  0.0873 -0.6158  0.5095
   31SAPC  H13A 4094   3.423   5.892   5.997 -1.9627 -1.1934 -0.5446
   31SAPC  H13B 4095   3.406   6.061   5.933  0.2982  0.5102  1.4700
   31SAPC  H13C 4096   3.443   6.029   6.100 -1.6085 -1.3339  1.9693
   31SAPC   C14 4097   3.194   6.147   6.041 -0.7245  0.1895 -0.6777
   31SAPC  H14A 4098   3.095   6.153   6.086 -0.2599  1.3297  0.2481
   31SAPC  H14B 4099   3.263   6.206   6.100 -0.8141  0.6845 -1.0624
   31SAPC  H14C 4100   3.187   6.194   5.944 -1.3088  2.5976  0.4739
   31SAPC   C15 4101   3.221   5.953   6.188  0.3365 -0.1040 -0.4073
   31SAPC  H15A 4102   3.279   5.862   6.194  2.7046  1.3582  0.2383
   31SAPC  H15B 4103   3.260   6.020   6.264 -2.1124  0.4846  0.4095
   31SAPC  H15C 4104   3.117   5.926   6.190  0.4032 -0.4282 -1.1241
   31SAPC   C11 4105   2.998   5.928   5.961  0.1431 -0.4953  0.5158
   31SAPC  H11A 4106   2.963   5.875   5.870 -0.9027  1.0460 -0.0252
   31SAPC  H11B 4107   2.973   6.035   5.945  2.5959  0.1594  0.7160
   31SAPC     P 4108   2.931   5.721   6.101  0.1777  0.2310 -0.2376
   31SAPC   O13 4109   2.813   5.687   6.019  0.2019 -0.1006 -0.2214
   31SAPC   O14 4110   3.063   5.655   6.073 -0.5971  0.5720  0.2908
   31SAPC   O12 4111   2.951   5.879   6.086  0.2551 -0.1651  0.3519
   31SAPC   O11 4112   2.903   5.692   6.257 -0.0894 -0.5318 -0.7608
   31SAPC    C1 4113   2.944   5.797   6.357  0.0693 -0.4205  0.5984
   31SAPC    HA 4114   3.050   5.823   6.336 -0.0958 -0.4002 -0.2753
   31SAPC    HB 4115   2.885   5.890   6.345  2.3190  1.0760  0.7352
   31SAPC    C2 4116   2.908   5.766   6.505 -0.1357  0.2413 -0.0173
   31SAPC    HS 4117   2.931   5.859   6.560 -3.2822  1.2293 -0.1602
   31SAPC   O21 4118   2.993   5.660   6.549 -0.5689 -0.4814 -0.2180
   31SAPC   C21 4119   3.115   5.700   6.580 -0.1315  0.0419 -0.0675
   31SAPC   O22 4120   3.169   5.809   6.559 -0.6517  0.9048  0.1283
   31SAPC   C22 4121   3.180   5.589   6.654 -0.2204  0.0851 -0.3398
   31SAPC   H2R 4122   3.112   5.536   6.724 -0.8254 -1.0464 -1.7081
   31SAPC   H2S 4123   3.192   5.517   6.570 -0.7945  1.1474 -1.3724
   31SAPC    C3 4124   2.759   5.731   6.522  0.5411 -0.4202  0.2593
   31SAPC    HX 4125   2.729   5.642   6.463 -0.3227  0.0721 -0.0605
   31SAPC    HY 4126   2.705   5.815   6.473  2.2792 -1.1531 -3.2280
   31SAPC   O31 4127   2.721   5.712   6.656 -0.8465  0.6560 -0.4644
   31SAPC   C31 4128   2.589   5.724   6.686 -0.2478  0.3591  0.1603
   31SAPC   O32 4129   2.506   5.715   6.603  0.2900  0.0511  0.1783
   31SAPC   C32 4130   2.578   5.729   6.838 -0.0475  0.3774  0.5039
   31SAPC   H2X 4131   2.608   5.628   6.874 -0.7184 -0.2440 -0.6082
   31SAPC   H2Y 4132   2.473   5.742   6.870 -0.0331 -0.7193  1.0494
   31SAPC   C23 4133   3.323   5.623   6.703  0.3108  0.6469 -0.1629
   31SAPC   H3R 4134   3.324   5.695   6.787  0.2074  0.3246  0.1192
   31SAPC   H3S 4135   3.381   5.664   6.618 -0.8361  0.0456 -1.2653
   31SAPC   C24 4136   3.403   5.489   6.736 -0.0700  0.0012  0.4139
   31SAPC   H4R 4137   3.505   5.519   6.768  0.1455  0.3227 -0.5283
   31SAPC   H4S 4138   3.428   5.439   6.640 -1.8413 -0.0078 -0.0781
   31SAPC   C25 4139   3.336   5.395   6.836 -1.2406  0.1631  0.1732
   31SAPC   H5R 4140   3.271   5.314   6.800  1.1731 -2.3196  1.1159
   31SAPC   C26 4141   3.364   5.402   6.971  0.3216 -0.6664 -0.6777
   31SAPC   H6R 4142   3.314   5.333   7.041  1.0308  0.5231  1.0876
   31SAPC   C27 4143   3.447   5.514   7.038 -0.2971  0.2253  0.3315
   31SAPC   H7R 4144   3.403   5.544   7.136  1.2604  1.2641  0.7450
   31SAPC   H7S 4145   3.453   5.599   6.967  0.9841  1.1297  1.4688
   31SAPC   C28 4146   3.594   5.486   7.069 -0.1955 -1.2849 -0.0619
   31SAPC   H8R 4147   3.670   5.525   7.000  1.2939  1.5217  2.8576
   31SAPC   C29 4148   3.625   5.400   7.169  0.2985 -0.4425  0.3570
   31SAPC   H9R 4149   3.731   5.380   7.191  0.4142  0.0654  0.2782
   31SAPC  C210 4150   3.532   5.328   7.268  0.0469 -0.9644 -0.3407
   31SAPC  H10R 4151   3.425   5.350   7.253  0.3168  0.2184 -0.6714
   31SAPC  H10S 4152   3.556   5.375   7.366 -0.0845  0.0915 -0.7970
   31SAPC  C211 4153   3.559   5.174   7.269  0.1619 -0.3668 -0.0469
   31SAPC  H11R 4154   3.535   5.118   7.177  0.5531  1.4803 -1.3083
   31SAPC  C212 4155   3.588   5.094   7.379 -0.2613  0.5450  0.0087
   31SAPC  H12R 4156   3.618   4.990   7.360  1.0085  0.6965  1.0867
   31SAPC  C213 4157   3.602   5.141   7.523  0.5894 -0.9142 -0.4654
   31SAPC  H13R 4158   3.499   5.140   7.564  0.1957 -3.1899 -1.4211
   31SAPC  H13S 4159   3.641   5.245   7.519 -2.2334  0.2036 -0.9990
   31SAPC  C214 4160   3.694   5.064   7.610  0.1639  0.8033 -0.2968
   31SAPC  H14R 4161   3.800   5.071   7.581  0.0747 -0.4957 -0.9994
   31SAPC  C215 4162   3.656   4.975   7.711 -0.1692 -0.0796 -0.0805
   31SAPC  H15R 4163   3.735   4.924   7.769 -0.9643 -0.2903  0.8450
   31SAPC  C216 4164   3.516   4.950   7.757 -0.1189  0.4331  0.3007
   31SAPC  H16R 4165   3.467   4.866   7.703  1.3344  1.0746 -2.1927
   31SAPC  H16S 4166   3.457   5.044   7.748 -0.3692  0.3868  1.3007
   31SAPC  C217 4167   3.506   4.922   7.912 -0.4368  0.5495  0.0479
   31SAPC  H17R 4168   3.543   5.014   7.962 -0.0239 -0.0663  0.8923
   31SAPC  H17S 4169   3.575   4.839   7.938 -0.1023 -0.2557 -3.0499
   31SAPC  C218 4170   3.362   4.892   7.957 -1.2668 -0.9011 -0.0031
   31SAPC  H18R 4171   3.346   4.794   7.908 -1.6524 -0.5377 -0.6090
   31SAPC  H18S 4172   3.290   4.960   7.907 -0.7933  0.7713  1.4722
   31SAPC  C219 4173   3.331   4.885   8.110 -0.0914  0.5867 -0.0234
   31SAPC  H19R 4174   3.220   4.884   8.114 -0.1212 -2.0569  0.7483
   31SAPC  H19S 4175   3.371   4.976   8.160 -0.3973  0.5565  0.2751
   31SAPC  C220 4176   3.398   4.769   8.174  0.0095 -0.4001 -0.8100
   31SAPC  H20R 4177   3.377   4.670   8.128 -0.4670 -0.9029  0.4389
   31SAPC  H20S 4178   3.365   4.764   8.280  1.7647  2.8334  0.0157
   31SAPC  H20T 4179   3.507   4.786   8.176 -0.0322  0.0767 -1.9786
   31SAPC   C33 4180   2.680   5.829   6.890  0.9178 -0.0126  0.5696
   31SAPC   H3X 4181   2.660   5.924   6.837  2.0126  0.9563  1.8074
   31SAPC   H3Y 4182   2.783   5.803   6.856  0.2042 -0.8960 -1.0296
   31SAPC   C34 4183   2.662   5.846   7.039 -0.0497 -1.0156 -1.0750
   31SAPC   H4X 4184   2.578   5.915   7.062  2.5116  1.2848  2.2338
   31SAPC   H4Y 4185   2.751   5.902   7.075 -0.0005 -1.1183 -1.0370
   31SAPC   C35 4186   2.650   5.720   7.120 -0.1603 -0.8590 -0.7865
   31SAPC   H5X 4187   2.725   5.645   7.089 -1.6631 -2.5231 -0.5593
   31SAPC   H5Y 4188   2.550   5.676   7.102 -0.7309  0.1783 -0.2460
   31SAPC   C36 4189   2.671   5.746   7.271  0.1594 -0.3253  0.0244
   31SAPC   H6X 4190   2.584   5.809   7.301  1.1313  0.5775  1.0824
   31SAPC   H6Y 4191   2.767   5.803   7.277  0.3104 -0.0659 -3.3710
   31SAPC   C37 4192   2.680   5.619   7.362  0.2433 -1.3444  0.4854
   31SAPC   H7X 4193   2.772   5.564   7.332  1.4199  1.4454 -1.4735
   31SAPC   H7Y 4194   2.590   5.555   7.347 -1.4508  0.8959  0.5788
   31SAPC   C38 4195   2.691   5.654   7.508  0.0264 -0.0765 -0.3054
   31SAPC   H8X 4196   2.592   5.695   7.537  0.0263 -1.5670  2.0554
   31SAPC   H8Y 4197   2.767   5.733   7.524  1.2043 -1.3197  0.4208
   31SAPC   C39 4198   2.704   5.529   7.594  0.0334  1.0436  0.3260
   31SAPC   H9X 4199   2.803   5.479   7.589  0.3479  1.4056  2.1658
   31SAPC   H9Y 4200   2.622   5.468   7.552  0.4561  0.8524 -0.2427
   31SAPC  C310 4201   2.670   5.558   7.746  0.4098  0.0812  0.6654
   31SAPC  H10X 4202   2.663   5.463   7.803 -1.1710 -0.0527  0.2916
   31SAPC  H10Y 4203   2.582   5.625   7.758  1.4339  1.0107  3.8618
   31SAPC  C311 4204   2.775   5.650   7.806 -0.0424 -0.0991 -0.4739
   31SAPC  H11X 4205   2.800   5.739   7.744 -0.0630  0.0090 -0.3281
   31SAPC  H11Y 4206   2.866   5.587   7.817  0.8442  1.1745 -0.2770
   31SAPC  C312 4207   2.738   5.689   7.943  0.2040 -0.2821  0.6019
   31SAPC  H12X 4208   2.690   5.602   7.993  0.1670  0.6370  2.2352
   31SAPC  H12Y 4209   2.654   5.762   7.947 -1.7535 -2.2469 -1.3263
   31SAPC  C313 4210   2.857   5.738   8.027  0.4006 -0.1242 -0.2949
   31SAPC  H13X 4211   2.895   5.827   7.971 -0.3098 -1.4581 -3.0560
   31SAPC  H13Y 4212   2.936   5.662   8.013 -1.6027 -2.2225 -0.8084
   31SAPC  C314 4213   2.818   5.766   8.176 -0.6658 -0.4071 -0.7938
   31SAPC  H14X 4214   2.780   5.678   8.233 -2.6565  0.3596 -0.8494
   31SAPC  H14Y 4215   2.739   5.844   8.169  0.0941  0.2164 -3.2499
   31SAPC  C315 4216   2.941   5.827   8.261  0.2099 -0.6101  0.2471
   31SAPC  H15X 4217   2.885   5.848   8.355  0.6715  1.0063  0.1926
   31SAPC  H15Y 4218   2.978   5.924   8.221 -1.1276 -0.2164 -0.0630
   31SAPC  C316 4219   3.054   5.726   8.290  0.0386 -0.1445 -0.2467
   31SAPC  H16X 4220   3.094   5.694   8.191  2.0328  2.5205 -0.4015
   31SAPC  H16Y 4221   3.023   5.636   8.347 -0.7398 -0.3157 -0.9100
   31SAPC  C317 4222   3.163   5.793   8.368  0.4901  0.1163  0.4497
   31SAPC  H17X 4223   3.134   5.823   8.471  1.2468  2.3128  0.0753
   31SAPC  H17Y 4224   3.175   5.889   8.314  0.0710  0.8515  1.6228
   31SAPC  C318 4225   3.301   5.722   8.375 -0.2329 -0.1043 -0.0706
   31SAPC  H18X 4226   3.357   5.719   8.280 -2.2565  0.9463 -1.3480
   31SAPC  H18Y 4227   3.286   5.616   8.405 -0.8133 -0.7807 -2.5539
   31SAPC  H18Z 4228   3.373   5.765   8.448 -0.3451  2.7613 -1.5449
   32SAPC     N 4229   5.768   0.531   6.021 -0.0938 -0.0542 -0.2562
   32SAPC   C12 4230   5.698   0.662   6.026 -0.1989 -0.0987 -0.2886
   32SAPC  H12A 4231   5.607   0.662   5.968 -1.5294 -0.1671  1.6947
   32SAPC  H12B 4232   5.763   0.742   5.994  1.8697 -0.1009  3.3997
   32SAPC   C13 4233   5.673   0.414   6.007  0.7883 -0.6599  0.0112
   32SAPC  H13A 4234   5.601   0.417   5.926  2.1248 -0.4360 -1.2095
   32SAPC  H13B 4235   5.737   0.327   6.013  0.4584 -1.4741 -4.3978
   32SAPC  H13C 4236   5.614   0.402   6.097 -0.6161 -0.0832 -0.7915
   32SAPC   C14 4237   5.840   0.522   5.887  0.2189  0.1681  0.1893
   32SAPC  H14A 4238   5.928   0.583   5.879  0.0857  0.5593  1.4192
   32SAPC  H14B 4239   5.861   0.418   5.865 -0.1737  0.5783 -2.3637
   32SAPC  H14C 4240   5.762   0.557   5.822 -0.1143  2.3614  1.6638
   32SAPC   C15 4241   5.867   0.507   6.131  0.1637  0.6137  0.2303
   32SAPC  H15A 4242   5.928   0.595   6.144  0.9326 -0.0307  1.1464
   32SAPC  H15B 4243   5.811   0.472   6.217 -0.5498 -0.7215 -0.7314
   32SAPC  H15C 4244   5.930   0.420   6.117 -1.4571 -0.4327 -0.9754
   32SAPC   C11 4245   5.645   0.706   6.161  0.1769 -0.4388 -0.0766
   32SAPC  H11A 4246   5.608   0.809   6.142  1.5327  0.5317  2.1717
   32SAPC  H11B 4247   5.716   0.710   6.245  0.1009 -3.5030  0.2452
   32SAPC     P 4248   5.396   0.655   6.169 -0.0191  0.1661 -0.2069
   32SAPC   O13 4249   5.390   0.770   6.080  0.1006 -0.2775  0.2783
   32SAPC   O14 4250   5.333   0.537   6.108  0.0172 -0.3884 -0.3914
   32SAPC   O12 4251   5.538   0.624   6.201 -0.4609 -0.5082 -0.6992
   32SAPC   O11 4252   5.348   0.683   6.313  0.6550 -0.1446  0.0664
   32SAPC    C1 4253   5.394   0.799   6.388  0.0886  0.1365  0.3269
   32SAPC    HA 4254   5.457   0.863   6.323 -0.8433  0.6323 -0.0972
   32SAPC    HB 4255   5.309   0.866   6.414 -0.7593 -0.5423 -0.6175
   32SAPC    C2 4256   5.470   0.747   6.513 -0.0866  0.3587 -0.0015
   32SAPC    HS 4257   5.540   0.667   6.481 -0.6438  0.2547 -0.9941
   32SAPC   O21 4258   5.365   0.694   6.598  0.1981 -0.3411  0.1051
   32SAPC   C21 4259   5.406   0.611   6.692 -1.1846 -0.2887  0.6010
   32SAPC   O22 4260   5.520   0.573   6.706 -0.1310 -0.1629  0.8522
   32SAPC   C22 4261   5.288   0.558   6.768 -0.3170 -0.0325 -0.1187
   32SAPC   H2R 4262   5.200   0.626   6.769  0.2876  0.8385 -1.8340
   32SAPC   H2S 4263   5.264   0.465   6.714  1.5339 -1.1910  0.9320
   32SAPC    C3 4264   5.542   0.866   6.588 -0.4885 -1.0681  0.1962
   32SAPC    HX 4265   5.473   0.951   6.605  0.8384 -0.1395  1.2232
   32SAPC    HY 4266   5.619   0.906   6.519  0.1626 -1.6010  0.5960
   32SAPC   O31 4267   5.600   0.841   6.723  0.3138  0.1315  0.4093
   32SAPC   C31 4268   5.721   0.801   6.734  0.0760 -0.0682  0.2201
   32SAPC   O32 4269   5.803   0.790   6.643  0.3312 -0.0001 -0.0663
   32SAPC   C32 4270   5.742   0.763   6.883 -0.2476 -0.5089  0.1199
   32SAPC   H2X 4271   5.821   0.686   6.876  0.1556 -0.0714 -0.1803
   32SAPC   H2Y 4272   5.647   0.715   6.916 -0.1772 -1.7667 -1.3950
   32SAPC   C23 4273   5.344   0.525   6.913 -0.3553  0.0118  0.8274
   32SAPC   H3R 4274   5.405   0.611   6.948 -1.5594  1.4569 -0.4934
   32SAPC   H3S 4275   5.412   0.437   6.912  0.0722  0.2870  2.4537
   32SAPC   C24 4276   5.235   0.500   7.014  0.2842  0.8661  0.7048
   32SAPC   H4R 4277   5.285   0.471   7.109 -0.4710  0.9777  1.1529
   32SAPC   H4S 4278   5.177   0.412   6.977 -0.4513  1.3209  0.7500
   32SAPC   C25 4279   5.135   0.614   7.049  0.4115  0.0507 -0.0041
   32SAPC   H5R 4280   5.031   0.609   7.015 -1.1159  1.5759  3.9117
   32SAPC   C26 4281   5.162   0.722   7.128 -0.4806 -0.5861 -0.3854
   32SAPC   H6R 4282   5.083   0.798   7.130 -0.3008 -0.2630 -3.0298
   32SAPC   C27 4283   5.289   0.760   7.206  0.1255 -0.9598 -1.1935
   32SAPC   H7R 4284   5.340   0.662   7.222  0.2056 -0.7899 -0.3775
   32SAPC   H7S 4285   5.265   0.792   7.310 -0.0715  1.9683 -2.0767
   32SAPC   C28 4286   5.382   0.855   7.134 -0.8033  0.6916 -0.5791
   32SAPC   H8R 4287   5.429   0.819   7.042  1.1133  2.1384 -0.2334
   32SAPC   C29 4288   5.414   0.986   7.169 -0.1869 -0.4350  0.7022
   32SAPC   H9R 4289   5.477   1.038   7.095  0.3115  1.1603  2.2019
   32SAPC  C210 4290   5.360   1.062   7.284 -0.1166 -0.4290  0.0822
   32SAPC  H10R 4291   5.260   1.026   7.317  0.4820 -0.2111  2.3020
   32SAPC  H10S 4292   5.354   1.169   7.258 -0.4595 -0.7391 -1.1837
   32SAPC  C211 4293   5.445   1.043   7.409 -0.2997 -0.2502 -0.0403
   32SAPC  H11R 4294   5.553   1.033   7.387  0.1010  2.7466  0.1248
   32SAPC  C212 4295   5.403   1.025   7.532 -0.7232  0.3040 -0.5067
   32SAPC  H12R 4296   5.478   1.010   7.611 -1.9530  0.8597  0.8172
   32SAPC  C213 4297   5.267   1.033   7.590 -0.2191  0.5968 -0.0872
   32SAPC  H13R 4298   5.194   1.060   7.510 -1.1062  0.9504  0.8235
   32SAPC  H13S 4299   5.267   1.122   7.656  2.9030  2.4908 -2.3354
   32SAPC  C214 4300   5.208   0.915   7.654 -0.2314  1.0137  0.1488
   32SAPC  H14R 4301   5.237   0.818   7.610 -0.8262 -1.0392  3.9110
   32SAPC  C215 4302   5.119   0.904   7.749  0.5457 -0.0382  0.0959
   32SAPC  H15R 4303   5.100   0.808   7.798  1.9243 -1.2325 -1.5942
   32SAPC  C216 4304   5.052   1.025   7.810 -0.0649  0.5939 -0.4493
   32SAPC  H16R 4305   4.967   0.985   7.870 -0.4001  1.1979 -0.5063
   32SAPC  H16S 4306   5.005   1.090   7.733  1.0774  1.2087 -0.6536
   32SAPC  C217 4307   5.135   1.099   7.915  0.6377  0.4975 -0.0987
   32SAPC  H17R 4308   5.220   1.145   7.862  1.7144  0.6336  1.6586
   32SAPC  H17S 4309   5.167   1.024   7.991  1.1098  1.9740  1.2040
   32SAPC  C218 4310   5.063   1.204   7.999  0.0117 -0.3160  0.1491
   32SAPC  H18R 4311   4.983   1.158   8.060 -0.4354 -0.9168 -0.8582
   32SAPC  H18S 4312   5.003   1.275   7.938 -1.5767 -1.6247  0.1250
   32SAPC  C219 4313   5.147   1.267   8.110  0.3211  0.2411  0.7722
   32SAPC  H19R 4314   5.225   1.318   8.049 -0.4206  1.1178  0.5395
   32SAPC  H19S 4315   5.200   1.190   8.170 -1.4702 -1.0931  0.7175
   32SAPC  C220 4316   5.071   1.366   8.193  0.0237 -0.0320  0.0054
   32SAPC  H20R 4317   5.011   1.310   8.268 -1.4160  0.2787 -0.8814
   32SAPC  H20S 4318   5.000   1.427   8.133 -0.5191  1.2552  1.8485
   32SAPC  H20T 4319   5.133   1.439   8.249 -2.4785  0.9054  1.7642
   32SAPC   C33 4320   5.792   0.887   6.963 -0.3311 -0.1967 -0.0240
   32SAPC   H3X 4321   5.721   0.972   6.967  0.0564  0.0854  1.1889
   32SAPC   H3Y 4322   5.873   0.939   6.905  1.4327  0.5688  2.9279
   32SAPC   C34 4323   5.837   0.851   7.104 -0.1673 -0.7761 -0.8134
   32SAPC   H4X 4324   5.902   0.927   7.153  2.0662 -2.0377 -1.6740
   32SAPC   H4Y 4325   5.898   0.759   7.095 -2.6069 -2.5865  0.1357
   32SAPC   C35 4326   5.724   0.815   7.195 -0.2906  0.8396 -0.6060
   32SAPC   H5X 4327   5.648   0.748   7.148  1.2156 -1.6547  0.3098
   32SAPC   H5Y 4328   5.678   0.911   7.226  2.4368  2.1099 -0.1736
   32SAPC   C36 4329   5.775   0.742   7.316  0.0114  0.1251  0.1664
   32SAPC   H6X 4330   5.814   0.645   7.279 -1.2120 -0.3883  0.1649
   32SAPC   H6Y 4331   5.689   0.725   7.384 -1.2884 -1.1783 -1.6966
   32SAPC   C37 4332   5.884   0.814   7.389  0.0269  0.1236  0.2115
   32SAPC   H7X 4333   5.847   0.917   7.406  0.5817  0.0971  1.6838
   32SAPC   H7Y 4334   5.975   0.845   7.334  1.4557  2.5536  3.6506
   32SAPC   C38 4335   5.920   0.750   7.525 -0.4470  0.0186  0.8454
   32SAPC   H8X 4336   6.002   0.813   7.564 -0.4345  1.0917 -0.8165
   32SAPC   H8Y 4337   5.953   0.649   7.493 -1.3207 -0.3782  1.1557
   32SAPC   C39 4338   5.802   0.754   7.625 -0.1657 -0.5142 -0.2244
   32SAPC   H9X 4339   5.837   0.687   7.707 -2.8672 -1.9896 -0.1773
   32SAPC   H9Y 4340   5.709   0.705   7.591 -1.1042  0.2254  1.1647
   32SAPC  C310 4341   5.763   0.893   7.669  0.2472 -0.1538 -0.5123
   32SAPC  H10X 4342   5.713   0.952   7.589  1.8491  0.5837 -1.0126
   32SAPC  H10Y 4343   5.852   0.955   7.694  0.5502 -0.6633 -0.3100
   32SAPC  C311 4344   5.674   0.886   7.795  0.1554  0.6974 -0.5382
   32SAPC  H11X 4345   5.720   0.828   7.878  2.1338 -0.6053 -2.4363
   32SAPC  H11Y 4346   5.600   0.812   7.758  3.6844 -1.9060 -3.0317
   32SAPC  C312 4347   5.630   1.018   7.852  0.1856 -0.7076 -0.1661
   32SAPC  H12X 4348   5.609   1.084   7.765  2.7268  0.2426 -0.1404
   32SAPC  H12Y 4349   5.715   1.050   7.916 -0.9139 -2.6125  2.4304
   32SAPC  C313 4350   5.495   1.013   7.942  0.3043 -0.1695 -0.3868
   32SAPC  H13X 4351   5.507   0.924   8.008  1.1293 -0.7612 -1.3009
   32SAPC  H13Y 4352   5.416   1.006   7.864 -1.1501 -0.1655  1.0602
   32SAPC  C314 4353   5.475   1.130   8.046 -0.3546 -0.5993  0.1898
   32SAPC  H14X 4354   5.387   1.105   8.108  0.2189 -0.1295  1.2190
   32SAPC  H14Y 4355   5.469   1.224   7.987  1.0786 -1.0342 -0.7166
   32SAPC  C315 4356   5.593   1.144   8.146  0.3044 -0.3129  0.1653
   32SAPC  H15X 4357   5.689   1.162   8.092  1.3865 -1.7638  1.4985
   32SAPC  H15Y 4358   5.610   1.043   8.188  2.3921  0.7104  2.0057
   32SAPC  C316 4359   5.562   1.255   8.250 -0.1877  0.0798 -0.2318
   32SAPC  H16X 4360   5.653   1.273   8.311  1.3519  0.4864 -2.5050
   32SAPC  H16Y 4361   5.473   1.237   8.314 -0.5925  0.2492 -0.7346
   32SAPC  C317 4362   5.536   1.398   8.194  0.3055  1.1048 -0.1180
   32SAPC  H17X 4363   5.529   1.465   8.283 -0.9046 -0.8913  1.3704
   32SAPC  H17Y 4364   5.434   1.401   8.150  0.3723 -2.7639 -0.8276
   32SAPC  C318 4365   5.650   1.441   8.101  0.6073  0.7072 -0.0360
   32SAPC  H18X 4366   5.749   1.426   8.149  0.6224 -0.7238 -0.4703
   32SAPC  H18Y 4367   5.641   1.544   8.059  1.0858  0.5045 -0.6435
   32SAPC  H18Z 4368   5.665   1.382   8.009  0.7476  2.0465 -0.9003
   33POPC     N 4369   2.660   0.214  10.339  0.2926  0.0967 -0.0857
   33POPC   C12 4370   2.575   0.198  10.465 -0.4889 -0.4128 -0.4570
   33POPC  H12A 4371   2.504   0.280  10.468 -0.4831 -0.4246  0.6695
   33POPC  H12B 4372   2.636   0.192  10.554  1.1212  0.2484 -1.4845
   33POPC   C13 4373   2.752   0.332  10.343  0.3978 -0.4354 -0.7205
   33POPC  H13A 4374   2.706   0.426  10.315  1.3096 -0.3074 -1.8760
   33POPC  H13B 4375   2.782   0.349  10.445  0.7180 -0.0025 -0.8822
   33POPC  H13C 4376   2.841   0.327  10.282  0.3206  2.3510 -1.2283
   33POPC   C14 4377   2.740   0.090  10.313  0.5632 -0.2162 -0.6456
   33POPC  H14A 4378   2.823   0.073  10.381  0.3285 -1.6216 -0.6977
   33POPC  H14B 4379   2.673   0.006  10.319 -0.0925  0.3028 -0.6025
   33POPC  H14C 4380   2.789   0.112  10.219 -0.7544  0.3358 -1.2229
   33POPC   C15 4381   2.567   0.235  10.232 -0.6374  0.0048  0.5535
   33POPC  H15A 4382   2.530   0.138  10.200  0.1889  0.4065 -1.7817
   33POPC  H15B 4383   2.617   0.272  10.144 -3.0045  1.3103 -0.3367
   33POPC  H15C 4384   2.482   0.298  10.253  0.1374  1.8744 -1.5251
   33POPC   C11 4385   2.494   0.071  10.486  1.2084 -0.7262  0.2319
   33POPC  H11A 4386   2.410   0.079  10.414  1.0096 -0.0099  0.5347
   33POPC  H11B 4387   2.460   0.087  10.591  0.6418  0.1813 -0.0853
   33POPC     P 4388   2.517  -0.186  10.489  0.5147 -0.1245  0.2025
   33POPC   O13 4389   2.365  -0.194  10.489 -0.4156 -0.1233  0.8137
   33POPC   O14 4390   2.590  -0.264  10.600 -0.2544 -0.3052 -0.2544
   33POPC   O12 4391   2.569  -0.045  10.478  0.2519 -0.0350 -0.8159
   33POPC   O11 4392   2.557  -0.236  10.339  0.3380  0.0361  0.0052
   33POPC    C1 4393   2.508  -0.171  10.222 -0.0151  0.3286  0.0897
   33POPC    HA 4394   2.511  -0.063  10.247 -1.3629  0.4676 -0.2771
   33POPC    HB 4395   2.577  -0.186  10.136 -0.5556 -0.9336 -0.1365
   33POPC    C2 4396   2.370  -0.214  10.169  0.3606  0.1666  0.4475
   33POPC    HS 4397   2.298  -0.171  10.242 -0.5623  1.7588 -1.3195
   33POPC   O21 4398   2.357  -0.353  10.165 -0.2553  0.1188 -0.4738
   33POPC   C21 4399   2.237  -0.398  10.152  0.0108 -0.1912 -0.1331
   33POPC   O22 4400   2.132  -0.337  10.156  0.0024  0.8334 -0.0752
   33POPC   C22 4401   2.248  -0.545  10.131  0.8309  0.0011  0.5948
   33POPC   H2R 4402   2.198  -0.583  10.223 -0.4948  3.1997  1.3126
   33POPC   H2S 4403   2.353  -0.580  10.132  0.7287 -0.3135  0.8691
   33POPC    C3 4404   2.325  -0.146  10.036 -0.6897 -0.1441 -0.1332
   33POPC    HX 4405   2.367  -0.044  10.050  0.9221 -0.9462  1.2442
   33POPC    HY 4406   2.214  -0.152  10.035 -0.6703 -0.5308 -1.1533
   33POPC   O31 4407   2.367  -0.205   9.911  0.6647 -0.1664 -0.0296
   33POPC   C31 4408   2.477  -0.153   9.853  0.9752 -0.0959 -0.1231
   33POPC   O32 4409   2.558  -0.075   9.905  0.4618 -0.2164  0.2589
   33POPC   C32 4410   2.478  -0.201   9.713  0.5672 -0.2463  0.2704
   33POPC   H2X 4411   2.378  -0.202   9.665  1.5925 -1.7610 -1.9935
   33POPC   H2Y 4412   2.523  -0.302   9.702 -2.6608 -1.5808 -1.8264
   33POPC   C23 4413   2.178  -0.592  10.005 -0.0809  0.1381  0.2566
   33POPC   H3R 4414   2.079  -0.541  10.010 -0.2803  0.1074 -2.1066
   33POPC   H3S 4415   2.166  -0.702   9.993  1.9773 -0.0931  0.0590
   33POPC   C24 4416   2.269  -0.567   9.882 -0.1167  0.5501  0.3298
   33POPC   H4R 4417   2.364  -0.621   9.903 -0.7816 -1.6464 -1.9271
   33POPC   H4S 4418   2.297  -0.459   9.884 -1.6138  1.0094 -1.2291
   33POPC   C25 4419   2.209  -0.627   9.758 -0.1144 -0.1229  0.1529
   33POPC   H5R 4420   2.116  -0.578   9.722 -0.8364 -0.2648  1.7117
   33POPC   H5S 4421   2.180  -0.733   9.774  1.2008 -0.8013 -1.6954
   33POPC   C26 4422   2.303  -0.631   9.639  0.8733 -0.3619  0.4409
   33POPC   H6R 4423   2.400  -0.672   9.675  2.6917  2.6509 -0.6343
   33POPC   H6S 4424   2.336  -0.532   9.599  1.5371 -0.5899  0.4050
   33POPC   C27 4425   2.250  -0.721   9.529  0.7236  0.0231 -0.0592
   33POPC   H7R 4426   2.147  -0.693   9.498 -0.9707 -1.7352  3.4236
   33POPC   H7S 4427   2.241  -0.821   9.578 -0.1311 -0.3855 -1.0168
   33POPC   C28 4428   2.341  -0.754   9.412  0.1690 -0.5225  0.2084
   33POPC   H8R 4429   2.300  -0.829   9.342 -0.2065 -0.2008  0.0784
   33POPC   H8S 4430   2.432  -0.798   9.458  1.3346  1.1942 -0.3435
   33POPC   C29 4431   2.388  -0.638   9.328 -0.5275  0.4874 -0.3807
   33POPC   H91 4432   2.419  -0.544   9.377  0.0315 -1.0371  2.3935
   33POPC  C210 4433   2.367  -0.623   9.193 -0.0758 -0.0973 -0.4744
   33POPC  H101 4434   2.413  -0.542   9.134  0.5258  1.5821  2.1431
   33POPC  C211 4435   2.307  -0.724   9.098  0.5728  0.1755 -0.0433
   33POPC  H11R 4436   2.283  -0.669   9.005  2.6519  0.1328 -0.6520
   33POPC  H11S 4437   2.205  -0.754   9.130 -0.0662 -1.5278 -3.1978
   33POPC  C212 4438   2.390  -0.846   9.064  0.0650 -0.0581  0.2496
   33POPC  H12R 4439   2.318  -0.899   8.998  0.6503  1.5083 -1.7350
   33POPC  H12S 4440   2.410  -0.908   9.154 -2.2064 -0.4485  0.5610
   33POPC  C213 4441   2.516  -0.823   8.982  0.2430 -0.8739 -0.0531
   33POPC  H13R 4442   2.575  -0.916   8.968  3.0138  0.7251  0.2817
   33POPC  H13S 4443   2.582  -0.757   9.043 -1.7326  1.1134  0.0613
   33POPC  C214 4444   2.478  -0.769   8.844 -1.0800  0.0530 -1.1269
   33POPC  H14R 4445   2.444  -0.663   8.851 -0.3279  0.2684 -0.6151
   33POPC  H14S 4446   2.392  -0.823   8.799  0.4718 -0.5513 -3.5608
   33POPC  C215 4447   2.597  -0.787   8.747  0.3576  0.1063  0.2419
   33POPC  H15R 4448   2.548  -0.779   8.647 -0.1757  0.0855  0.5005
   33POPC  H15S 4449   2.645  -0.887   8.754 -0.4892 -0.2379  1.5752
   33POPC  C216 4450   2.695  -0.673   8.739 -0.3565  0.0393 -0.4703
   33POPC  H16R 4451   2.742  -0.660   8.839  1.6266  2.1498 -1.5723
   33POPC  H16S 4452   2.648  -0.575   8.716  1.7028  0.9536 -1.0065
   33POPC  C217 4453   2.817  -0.689   8.644 -0.2670  0.0501  0.8147
   33POPC  H17R 4454   2.883  -0.773   8.674  0.2348 -0.9199 -2.5453
   33POPC  H17S 4455   2.889  -0.604   8.649  0.9935 -1.0565  2.5508
   33POPC  C218 4456   2.772  -0.730   8.494  0.3703 -0.4828 -0.4009
   33POPC  H18R 4457   2.733  -0.634   8.455  0.5228 -0.2173  0.0908
   33POPC  H18S 4458   2.701  -0.816   8.492 -0.3023  0.0622 -2.3573
   33POPC  H18T 4459   2.859  -0.758   8.430  0.5685 -0.4217 -0.1612
   33POPC   C33 4460   2.569  -0.116   9.620  0.5127  0.7102  0.7321
   33POPC   H3X 4461   2.675  -0.129   9.651  0.3888  1.5907  1.5757
   33POPC   H3Y 4462   2.554  -0.006   9.623  2.1655  1.0484 -1.4960
   33POPC   C34 4463   2.554  -0.159   9.477  0.6302  0.4281 -0.3163
   33POPC   H4X 4464   2.539  -0.268   9.468  1.3919  0.3083 -0.2754
   33POPC   H4Y 4465   2.646  -0.149   9.416  0.7206  2.2926  0.0413
   33POPC   C35 4466   2.435  -0.099   9.393  0.0328 -0.0764 -0.2203
   33POPC   H5X 4467   2.436   0.006   9.429 -2.3087  0.6525 -2.0420
   33POPC   H5Y 4468   2.345  -0.161   9.408  1.1803 -2.0329 -1.0162
   33POPC   C36 4469   2.464  -0.095   9.243 -0.2985  0.0866 -0.4923
   33POPC   H6X 4470   2.563  -0.044   9.235  1.4558 -2.2502  3.3708
   33POPC   H6Y 4471   2.388  -0.033   9.191 -2.3257 -1.1666  0.8690
   33POPC   C37 4472   2.484  -0.232   9.172  0.4578  0.4300  0.6759
   33POPC   H7X 4473   2.387  -0.286   9.178 -1.0318  2.9694  1.2724
   33POPC   H7Y 4474   2.572  -0.284   9.215  1.1727  0.9317 -0.1482
   33POPC   C38 4475   2.514  -0.203   9.023 -0.1964 -0.1560 -0.4350
   33POPC   H8X 4476   2.603  -0.135   9.017 -0.7204  0.9051  2.3663
   33POPC   H8Y 4477   2.429  -0.146   8.979  0.2640  0.9295  0.0473
   33POPC   C39 4478   2.530  -0.330   8.943 -0.4409  0.3123  0.2226
   33POPC   H9X 4479   2.437  -0.389   8.963 -0.4046  0.1814  0.0142
   33POPC   H9Y 4480   2.622  -0.389   8.964  0.5766  1.3260 -1.1686
   33POPC  C310 4481   2.540  -0.300   8.792 -0.8408 -0.0769 -0.3368
   33POPC  H10X 4482   2.445  -0.250   8.762 -0.5452  0.2232 -0.7818
   33POPC  H10Y 4483   2.557  -0.393   8.734  0.6274 -0.5323  0.7538
   33POPC  C311 4484   2.657  -0.206   8.761  0.5633  0.1463  0.4538
   33POPC  H11X 4485   2.753  -0.235   8.810  1.3337  1.0217 -0.4997
   33POPC  H11Y 4486   2.634  -0.105   8.801 -1.1617 -0.1924  0.3799
   33POPC  C312 4487   2.663  -0.196   8.606  0.1361 -0.1908  0.1079
   33POPC  H12X 4488   2.735  -0.112   8.589 -0.2223  0.6672  2.4569
   33POPC  H12Y 4489   2.566  -0.160   8.566  0.1768  0.4169  0.5424
   33POPC  C313 4490   2.713  -0.323   8.536  0.2781  0.2214 -0.4594
   33POPC  H13X 4491   2.634  -0.399   8.518  0.7540 -0.6879  1.0801
   33POPC  H13Y 4492   2.791  -0.379   8.593 -0.8610 -1.2588 -0.3069
   33POPC  C314 4493   2.784  -0.287   8.399  0.7167 -0.7946 -0.1677
   33POPC  H14X 4494   2.872  -0.222   8.416 -0.4694  0.9522 -0.5254
   33POPC  H14Y 4495   2.723  -0.228   8.328  3.0081 -1.1056 -2.5209
   33POPC  C315 4496   2.822  -0.407   8.319  0.7170  0.3426 -0.0094
   33POPC  H15X 4497   2.726  -0.460   8.304 -0.0399  0.6620  3.0245
   33POPC  H15Y 4498   2.875  -0.478   8.385  2.2610  1.1952 -0.2818
   33POPC  C316 4499   2.907  -0.398   8.192  0.8942 -0.4649 -0.6994
   33POPC  H16X 4500   3.000  -0.342   8.217 -0.3905  2.3319 -1.7242
   33POPC  H16Y 4501   2.855  -0.336   8.115 -0.8737 -0.4442  0.4633
   33POPC  H16Z 4502   2.918  -0.497   8.142 -0.7642 -0.4627 -1.1199
   34POPC     N 4503   1.698   4.583  10.763 -0.1839 -0.2335  0.1973
   34POPC   C12 4504   1.553   4.579  10.726 -0.8302 -0.3286 -0.5061
   34POPC  H12A 4505   1.509   4.659  10.783  0.8754 -0.0359  0.4817
   34POPC  H12B 4506   1.510   4.490  10.769 -1.7031  0.5807  0.5660
   34POPC   C13 4507   1.701   4.551  10.911  0.3916  0.3971 -0.5245
   34POPC  H13A 4508   1.641   4.626  10.960 -2.4994 -1.3002 -1.1878
   34POPC  H13B 4509   1.659   4.453  10.927 -1.0818  1.1641  0.5890
   34POPC  H13C 4510   1.799   4.532  10.950 -0.8207 -2.6733  1.3763
   34POPC   C14 4511   1.777   4.469  10.699  0.8779  0.6427  0.5931
   34POPC  H14A 4512   1.793   4.486  10.594  1.7654 -3.3894 -0.0730
   34POPC  H14B 4513   1.875   4.462  10.744  0.8118 -0.6929  0.5553
   34POPC  H14C 4514   1.720   4.378  10.708 -1.0249  1.7582  0.2874
   34POPC   C15 4515   1.743   4.719  10.740 -0.0778  0.1114  0.0020
   34POPC  H15A 4516   1.678   4.793  10.785 -2.6266 -1.2688 -1.1475
   34POPC  H15B 4517   1.741   4.748  10.636  3.3015 -0.0069 -0.1810
   34POPC  H15C 4518   1.845   4.724  10.776 -0.2768 -4.2494  1.7792
   34POPC   C11 4519   1.519   4.593  10.579 -0.6155 -0.2154 -0.2331
   34POPC  H11A 4520   1.409   4.583  10.572 -0.5383 -1.0243 -0.4437
   34POPC  H11B 4521   1.566   4.504  10.531 -1.6139 -1.1140  0.3942
   34POPC     P 4522   1.481   4.835  10.492  0.2809  0.3483  0.5173
   34POPC   O13 4523   1.568   4.953  10.515 -0.1708  0.5280  0.7964
   34POPC   O14 4524   1.358   4.822  10.578 -0.0504  0.3273  0.4585
   34POPC   O12 4525   1.572   4.702  10.505  0.0816 -0.0546  0.2132
   34POPC   O11 4526   1.435   4.831  10.342 -0.2704  0.1229  0.1144
   34POPC    C1 4527   1.503   4.742  10.249 -0.5070 -0.2118  1.1617
   34POPC    HA 4528   1.609   4.741  10.281 -0.7694 -0.0714  2.0505
   34POPC    HB 4529   1.503   4.782  10.146 -0.8565 -2.3015  0.2838
   34POPC    C2 4530   1.446   4.598  10.241  0.2177  0.2624 -0.3746
   34POPC    HS 4531   1.488   4.534  10.321  0.3088  0.2297 -0.4476
   34POPC   O21 4532   1.457   4.535  10.109  0.5351  0.0883 -0.3198
   34POPC   C21 4533   1.578   4.504  10.079 -0.8514  0.2973  0.2199
   34POPC   O22 4534   1.677   4.518  10.147 -0.1844  0.3814 -0.3859
   34POPC   C22 4535   1.582   4.452   9.940 -0.3791 -0.1795 -0.1031
   34POPC   H2R 4536   1.508   4.372   9.923  0.0272 -0.3846 -0.9539
   34POPC   H2S 4537   1.685   4.413   9.921 -0.9017 -1.0409 -1.2806
   34POPC    C3 4538   1.293   4.614  10.274 -1.0642  0.2954 -0.1120
   34POPC    HX 4539   1.244   4.684  10.202 -3.4573 -0.0718  1.0525
   34POPC    HY 4540   1.284   4.652  10.378  0.7518 -1.0088  0.5724
   34POPC   O31 4541   1.227   4.481  10.270 -0.1239  0.4790  0.2394
   34POPC   C31 4542   1.099   4.483  10.274  0.3121  0.1311  0.1988
   34POPC   O32 4543   1.026   4.575  10.293  0.7134 -0.5820 -0.4990
   34POPC   C32 4544   1.053   4.337  10.249 -0.3583 -0.3414 -0.3208
   34POPC   H2X 4545   1.084   4.271  10.333 -0.6588 -1.3292 -0.9645
   34POPC   H2Y 4546   1.108   4.288  10.166 -0.5396 -1.2307  0.0752
   34POPC   C23 4547   1.551   4.565   9.833  0.2490 -0.1643  0.0273
   34POPC   H3R 4548   1.468   4.626   9.877  0.3281  0.2541 -0.4051
   34POPC   H3S 4549   1.508   4.525   9.739  0.7194  0.1407 -0.3150
   34POPC   C24 4550   1.667   4.663   9.806  0.0319 -0.3041 -1.1776
   34POPC   H4R 4551   1.754   4.594   9.797  0.4188  0.1487 -0.9658
   34POPC   H4S 4552   1.702   4.730   9.888 -0.8136 -1.2520 -0.0072
   34POPC   C25 4553   1.655   4.755   9.689 -0.0460  0.0432  0.0228
   34POPC   H5R 4554   1.718   4.846   9.698 -1.1265  0.6909  1.2705
   34POPC   H5S 4555   1.552   4.792   9.671 -0.3650 -1.3576 -1.2725
   34POPC   C26 4556   1.708   4.692   9.558 -0.1763 -0.5749 -0.2926
   34POPC   H6R 4557   1.809   4.653   9.582  0.3879  1.3131  0.6125
   34POPC   H6S 4558   1.725   4.761   9.474 -1.4424 -0.0227 -0.1288
   34POPC   C27 4559   1.623   4.581   9.495  0.2052 -0.3418  0.9140
   34POPC   H7R 4560   1.644   4.486   9.549 -1.4105  0.4264  3.0275
   34POPC   H7S 4561   1.655   4.571   9.389 -2.1899  0.0725  0.1021
   34POPC   C28 4562   1.466   4.602   9.492  0.1753  0.5000 -0.0576
   34POPC   H8R 4563   1.442   4.698   9.443 -0.6561  0.4131  0.1643
   34POPC   H8S 4564   1.420   4.620   9.591 -2.2567 -1.0177 -0.8150
   34POPC   C29 4565   1.376   4.495   9.433 -0.4420 -0.3081  0.2436
   34POPC   H91 4566   1.351   4.415   9.504 -0.6623 -0.8625 -0.4481
   34POPC  C210 4567   1.312   4.506   9.313 -0.8118 -0.1507 -0.1635
   34POPC  H101 4568   1.247   4.423   9.284 -0.2335 -0.4823 -0.5435
   34POPC  C211 4569   1.327   4.616   9.215  0.0329  0.6361 -0.0871
   34POPC  H11R 4570   1.426   4.663   9.231 -1.5588  3.9951  0.7619
   34POPC  H11S 4571   1.244   4.688   9.235 -0.5104 -0.3897  1.5522
   34POPC  C212 4572   1.347   4.566   9.070 -0.0572  0.0912 -0.2176
   34POPC  H12R 4573   1.257   4.511   9.034  0.4527 -0.1593 -1.1442
   34POPC  H12S 4574   1.432   4.495   9.075  1.0039  1.3909  1.4800
   34POPC  C213 4575   1.401   4.657   8.958  0.0069  0.4076 -0.1084
   34POPC  H13R 4576   1.500   4.696   8.991 -0.1111  0.3926  0.2736
   34POPC  H13S 4577   1.333   4.743   8.938 -0.3634  0.6805  2.0481
   34POPC  C214 4578   1.420   4.588   8.820 -0.0206  0.2416 -0.4426
   34POPC  H14R 4579   1.319   4.548   8.796  0.3045  0.3658 -2.1736
   34POPC  H14S 4580   1.490   4.503   8.833 -3.5820 -2.8804  0.0677
   34POPC  C215 4581   1.470   4.683   8.715 -0.5175 -0.7056  0.4295
   34POPC  H15R 4582   1.547   4.757   8.745  2.0319 -1.8368 -2.7808
   34POPC  H15S 4583   1.376   4.732   8.683 -1.0809 -0.4502  2.3431
   34POPC  C216 4584   1.531   4.617   8.596 -1.4210 -0.2254  0.7236
   34POPC  H16R 4585   1.459   4.549   8.546 -0.9358  1.3590 -2.3225
   34POPC  H16S 4586   1.625   4.562   8.616 -0.7054 -0.4919 -2.8196
   34POPC  C217 4587   1.577   4.725   8.496 -0.1376  0.6571 -0.1585
   34POPC  H17R 4588   1.646   4.675   8.425  0.5443 -0.1105  0.9986
   34POPC  H17S 4589   1.644   4.795   8.551  0.4123  0.2920 -0.3606
   34POPC  C218 4590   1.466   4.781   8.414  0.0523 -0.2783  0.7960
   34POPC  H18R 4591   1.393   4.833   8.480 -0.1297 -0.5063  0.7740
   34POPC  H18S 4592   1.421   4.704   8.348 -1.0382  1.1741 -0.2180
   34POPC  H18T 4593   1.495   4.851   8.333 -1.0317  0.8352  1.3365
   34POPC   C33 4594   0.898   4.327  10.241 -0.2470  0.1380 -0.5624
   34POPC   H3X 4595   0.853   4.387  10.323  0.6046 -0.5831  0.4563
   34POPC   H3Y 4596   0.868   4.221  10.253  0.5284  0.0307  0.5237
   34POPC   C34 4597   0.836   4.375  10.106 -0.2745 -0.0238 -0.6568
   34POPC   H4X 4598   0.855   4.484  10.093  0.4136  0.1276  1.2392
   34POPC   H4Y 4599   0.725   4.364  10.108 -0.4177  0.8873 -2.0971
   34POPC   C35 4600   0.882   4.289   9.994 -0.3717  0.1146 -0.3991
   34POPC   H5X 4601   0.865   4.186  10.030 -0.4398  0.4910  0.6922
   34POPC   H5Y 4602   0.991   4.292   9.972 -0.4475 -2.4438 -1.3866
   34POPC   C36 4603   0.794   4.306   9.869 -0.4615  0.2816 -0.6180
   34POPC   H6X 4604   0.804   4.410   9.832 -0.9936  0.4180 -0.3813
   34POPC   H6Y 4605   0.687   4.289   9.892 -0.3156  0.7139  0.4170
   34POPC   C37 4606   0.843   4.226   9.750  0.0927  0.0358 -0.7146
   34POPC   H7X 4607   0.846   4.116   9.760 -3.0067 -0.3811 -2.9453
   34POPC   H7Y 4608   0.951   4.250   9.745  0.1451 -0.0426 -0.0365
   34POPC   C38 4609   0.766   4.249   9.624  0.2515 -0.6065  0.8710
   34POPC   H8X 4610   0.810   4.338   9.575  1.4960 -1.6487  0.0155
   34POPC   H8Y 4611   0.656   4.265   9.630  0.2656  0.9918 -1.7506
   34POPC   C39 4612   0.782   4.130   9.529  0.5720 -0.9237  0.0120
   34POPC   H9X 4613   0.734   4.052   9.591 -1.2424  1.4931  1.7947
   34POPC   H9Y 4614   0.888   4.101   9.512  0.4301 -1.4403 -0.0106
   34POPC  C310 4615   0.710   4.154   9.392  0.0688  0.1788 -0.4936
   34POPC  H10X 4616   0.605   4.179   9.421  0.1328 -1.8898  1.8664
   34POPC  H10Y 4617   0.687   4.061   9.335 -1.4788 -1.6953  2.8994
   34POPC  C311 4618   0.755   4.273   9.309 -0.0930  0.7977 -0.9067
   34POPC  H11X 4619   0.759   4.368   9.367  1.4714 -0.3145  0.8974
   34POPC  H11Y 4620   0.676   4.283   9.231 -1.0204 -2.1878 -0.4677
   34POPC  C312 4621   0.905   4.266   9.250 -0.0891  0.3217 -0.1732
   34POPC  H12X 4622   0.921   4.179   9.183 -0.0511  0.4548 -0.3388
   34POPC  H12Y 4623   0.967   4.239   9.338 -3.3156 -2.3205  1.5371
   34POPC  C313 4624   0.962   4.385   9.172  0.0937  0.5387 -0.5915
   34POPC  H13X 4625   1.062   4.367   9.128 -0.5466 -1.0009 -1.5066
   34POPC  H13Y 4626   0.971   4.472   9.240 -1.8326 -0.3772  0.9526
   34POPC  C314 4627   0.874   4.415   9.052 -0.4099  0.3214 -0.5735
   34POPC  H14X 4628   0.895   4.516   9.010  1.4208  0.8052  1.3118
   34POPC  H14Y 4629   0.769   4.428   9.088  0.0604  1.2779  0.5195
   34POPC  C315 4630   0.890   4.328   8.926  1.0866 -0.3589  0.0778
   34POPC  H15X 4631   0.851   4.225   8.942  0.2613  0.1147  1.2832
   34POPC  H15Y 4632   0.990   4.315   8.879  0.0449 -0.3540 -2.2904
   34POPC  C316 4633   0.796   4.386   8.822  0.6235  0.6271  0.0801
   34POPC  H16X 4634   0.768   4.311   8.744 -2.3506  0.1848  1.4339
   34POPC  H16Y 4635   0.857   4.466   8.775  0.3003  1.2593  0.7253
   34POPC  H16Z 4636   0.704   4.430   8.864 -1.5772 -1.2684 -2.3594
   35POPC     N 4637   6.835   4.823  11.140  0.2662  0.0254 -0.2346
   35POPC   C12 4638   6.747   4.886  11.025  1.0411 -0.0539 -0.2733
   35POPC  H12A 4639   6.809   4.951  10.965  1.1726  1.6834  1.6337
   35POPC  H12B 4640   6.676   4.950  11.075 -0.8316 -1.1214 -1.4442
   35POPC   C13 4641   6.909   4.938  11.198  0.6325 -0.0368 -1.1808
   35POPC  H13A 4642   6.983   4.984  11.134 -1.4091 -0.3292 -3.9646
   35POPC  H13B 4643   6.845   5.020  11.227  2.1558  2.0644 -3.3554
   35POPC  H13C 4644   6.967   4.913  11.285 -1.9516 -2.1751  0.0770
   35POPC   C14 4645   6.752   4.753  11.242  0.0142 -0.0082  0.4641
   35POPC  H14A 4646   6.675   4.810  11.291 -1.4841 -1.5070 -0.0533
   35POPC  H14B 4647   6.694   4.675  11.197 -0.5470  1.9384 -2.4243
   35POPC  H14C 4648   6.808   4.710  11.324 -0.1326 -1.7275 -0.3018
   35POPC   C15 4649   6.932   4.727  11.077 -0.0083  0.1178 -0.6464
   35POPC  H15A 4650   6.992   4.680  11.154 -1.3398 -0.2564  0.1977
   35POPC  H15B 4651   7.006   4.774  11.014  1.3146 -1.6005 -0.4889
   35POPC  H15C 4652   6.881   4.642  11.035  2.1346 -1.6250  0.0383
   35POPC   C11 4653   6.663   4.790  10.934 -0.9866 -0.0793 -0.1713
   35POPC  H11A 4654   6.733   4.728  10.874 -0.3149  1.5161 -1.1157
   35POPC  H11B 4655   6.617   4.855  10.855  0.5518  1.1362 -0.1159
   35POPC     P 4656   6.556   4.558  10.963 -0.4324 -0.1449 -0.2020
   35POPC   O13 4657   6.422   4.514  11.005 -0.2037  0.1007  0.2275
   35POPC   O14 4658   6.669   4.488  11.021  0.5265 -0.1482 -0.4636
   35POPC   O12 4659   6.564   4.712  11.002  0.7387  0.1894 -0.1508
   35POPC   O11 4660   6.588   4.546  10.809  0.1049 -0.0180 -0.2698
   35POPC    C1 4661   6.481   4.544  10.718  0.6381 -0.1232  1.5588
   35POPC    HA 4662   6.535   4.585  10.630  1.0368 -1.0332  1.3685
   35POPC    HB 4663   6.397   4.612  10.741  0.4817 -0.8329  3.2184
   35POPC    C2 4664   6.438   4.402  10.672 -0.2043 -0.4609 -0.0391
   35POPC    HS 4665   6.429   4.333  10.758  0.3677 -0.0025  0.3934
   35POPC   O21 4666   6.526   4.361  10.569 -0.4444  0.4755  0.3689
   35POPC   C21 4667   6.599   4.256  10.592  0.0473 -0.3739  0.4933
   35POPC   O22 4668   6.599   4.196  10.697 -0.3738 -0.2385  0.5126
   35POPC   C22 4669   6.685   4.218  10.463 -0.0838  0.3538  0.5139
   35POPC   H2R 4670   6.600   4.178  10.404 -0.3888 -0.9056  1.7729
   35POPC   H2S 4671   6.744   4.126  10.486 -0.1204  0.0203 -0.6497
   35POPC    C3 4672   6.300   4.410  10.602 -0.5962 -0.3917  0.4629
   35POPC    HX 4673   6.223   4.431  10.679 -1.3884  1.0836 -0.6802
   35POPC    HY 4674   6.276   4.309  10.562 -0.3604  0.7854 -2.9877
   35POPC   O31 4675   6.310   4.509  10.498  0.2177 -0.1717 -0.1018
   35POPC   C31 4676   6.332   4.459  10.372  0.5057  0.4336 -0.4932
   35POPC   O32 4677   6.343   4.339  10.349  0.7557  0.8980 -0.3928
   35POPC   C32 4678   6.346   4.578  10.276  0.1467  0.3008 -0.2815
   35POPC   H2X 4679   6.447   4.560  10.232  0.7463 -2.6863  1.9411
   35POPC   H2Y 4680   6.356   4.675  10.329 -0.4096  0.2541 -0.0859
   35POPC   C23 4681   6.775   4.333  10.404 -0.1373  0.0253  0.5542
   35POPC   H3R 4682   6.869   4.287  10.367 -2.0058 -2.0659 -1.9041
   35POPC   H3S 4683   6.799   4.396  10.492  3.9450 -1.5844  0.8306
   35POPC   C24 4684   6.710   4.401  10.284 -0.3777 -0.0363  0.3786
   35POPC   H4R 4685   6.605   4.416  10.317 -0.1704 -0.1979  1.1333
   35POPC   H4S 4686   6.721   4.333  10.197  0.3982  0.2961  0.2042
   35POPC   C25 4687   6.783   4.535  10.259 -0.2894  0.4593  0.5611
   35POPC   H5R 4688   6.892   4.516  10.265  0.3142  1.8623 -3.2826
   35POPC   H5S 4689   6.750   4.608  10.336 -2.1251  0.0963  0.1665
   35POPC   C26 4690   6.766   4.592  10.115  0.7508  0.1999  0.4763
   35POPC   H6R 4691   6.663   4.633  10.117  0.6963  0.1296 -0.6544
   35POPC   H6S 4692   6.750   4.508  10.045 -2.1423  1.8842 -1.0825
   35POPC   C27 4693   6.889   4.669  10.077 -0.3067  0.5801  0.4090
   35POPC   H7R 4694   6.978   4.604  10.063 -1.2473 -0.5171 -0.7115
   35POPC   H7S 4695   6.912   4.736  10.162  0.9345  0.4122  0.2300
   35POPC   C28 4696   6.886   4.767   9.956  0.0366 -0.1890  0.1243
   35POPC   H8R 4697   6.983   4.820   9.965  0.8621 -2.0077  3.8959
   35POPC   H8S 4698   6.803   4.838   9.937  1.6658  1.7110 -0.1674
   35POPC   C29 4699   6.898   4.673   9.838 -0.0806 -0.5585  0.6363
   35POPC   H91 4700   6.997   4.625   9.828 -0.1743 -0.8361  1.0312
   35POPC  C210 4701   6.806   4.661   9.737  0.0244  0.1686 -0.1306
   35POPC  H101 4702   6.830   4.580   9.666  0.6444 -0.6431  0.9814
   35POPC  C211 4703   6.669   4.724   9.718  0.8563  0.3614 -0.2732
   35POPC  H11R 4704   6.657   4.825   9.762 -0.8220  0.2745 -0.4328
   35POPC  H11S 4705   6.589   4.669   9.773  1.2316  0.8825  0.8130
   35POPC  C212 4706   6.613   4.726   9.572  0.6876  0.3891  0.0572
   35POPC  H12R 4707   6.671   4.803   9.516 -0.2915  0.0274 -1.5342
   35POPC  H12S 4708   6.511   4.769   9.581  1.6402  2.6709  0.5764
   35POPC  C213 4709   6.619   4.595   9.488  0.2984 -0.5657  0.5704
   35POPC  H13R 4710   6.581   4.510   9.548  2.7428 -3.7698 -2.0412
   35POPC  H13S 4711   6.724   4.569   9.463  0.2613 -2.3801  2.1202
   35POPC  C214 4712   6.541   4.610   9.353  0.1067  0.2983 -0.8179
   35POPC  H14R 4713   6.591   4.698   9.307  0.7280 -0.4106 -1.5372
   35POPC  H14S 4714   6.435   4.635   9.373 -0.2463 -0.8639 -1.1571
   35POPC  C215 4715   6.531   4.478   9.274 -0.2752  0.0259  0.2667
   35POPC  H15R 4716   6.442   4.422   9.310  0.8924 -0.6174  2.3042
   35POPC  H15S 4717   6.609   4.400   9.283 -0.1968 -0.0099 -0.6071
   35POPC  C216 4718   6.497   4.500   9.123 -0.1327 -0.0322 -0.1146
   35POPC  H16R 4719   6.469   4.406   9.072 -1.2655 -0.4093  1.1478
   35POPC  H16S 4720   6.584   4.543   9.069  0.4770 -0.9332  0.1143
   35POPC  C217 4721   6.380   4.596   9.097 -0.4917  0.0300 -0.0523
   35POPC  H17R 4722   6.412   4.697   9.130  0.6374  0.0674 -1.2053
   35POPC  H17S 4723   6.294   4.566   9.161 -0.5493  1.3113  0.5035
   35POPC  C218 4724   6.344   4.598   8.952  0.4816 -0.6600 -0.1571
   35POPC  H18R 4725   6.262   4.673   8.942 -1.0277 -2.0431  1.1728
   35POPC  H18S 4726   6.299   4.502   8.918 -1.0351 -0.2189  0.4873
   35POPC  H18T 4727   6.432   4.631   8.893  1.0220 -2.8034 -0.6217
   35POPC   C33 4728   6.244   4.574  10.160  0.2392 -0.1824 -0.2472
   35POPC   H3X 4729   6.147   4.564  10.213 -1.0884  1.3189 -2.2381
   35POPC   H3Y 4730   6.265   4.475  10.113  0.5654  0.9783 -2.6570
   35POPC   C34 4731   6.248   4.690  10.061  0.2776 -0.0240  0.3030
   35POPC   H4X 4732   6.340   4.681  10.000 -0.6696  0.5261 -1.2811
   35POPC   H4Y 4733   6.256   4.789  10.111  1.9097 -0.5022  1.0230
   35POPC   C35 4734   6.123   4.689   9.974  1.1926 -0.3041 -0.4360
   35POPC   H5X 4735   6.096   4.794   9.947 -2.2268 -0.3712  2.0208
   35POPC   H5Y 4736   6.048   4.642  10.041  1.2491 -0.8358 -0.7461
   35POPC   C36 4737   6.130   4.602   9.845  0.1569  0.9996 -0.1654
   35POPC   H6X 4738   6.030   4.597   9.797 -0.2217  0.1885  0.6910
   35POPC   H6Y 4739   6.164   4.500   9.872 -0.3872  0.7344 -0.4582
   35POPC   C37 4740   6.223   4.659   9.743 -0.3978  0.0351  0.0683
   35POPC   H7X 4741   6.328   4.671   9.777  0.0914 -1.1429 -0.9340
   35POPC   H7Y 4742   6.192   4.757   9.701  1.4966  0.9276  0.6562
   35POPC   C38 4743   6.252   4.566   9.624  0.3714  1.2345  0.8870
   35POPC   H8X 4744   6.312   4.486   9.674  0.9734  1.7717  1.0387
   35POPC   H8Y 4745   6.316   4.618   9.549 -3.0269 -0.4106 -3.5592
   35POPC   C39 4746   6.130   4.517   9.536 -0.0803 -0.4119 -0.7911
   35POPC   H9X 4747   6.078   4.603   9.488  0.6974  0.4533 -0.1162
   35POPC   H9Y 4748   6.052   4.493   9.611  0.1031  2.0436  0.2750
   35POPC  C310 4749   6.156   4.402   9.447 -0.1267 -0.3846 -0.9196
   35POPC  H10X 4750   6.192   4.319   9.511 -1.7183 -0.9930 -0.7850
   35POPC  H10Y 4751   6.231   4.437   9.372 -0.5902  1.5608 -0.5157
   35POPC  C311 4752   6.023   4.364   9.382 -0.0478 -1.0601  0.4735
   35POPC  H11X 4753   5.977   4.452   9.331  0.7473  0.0429  1.6075
   35POPC  H11Y 4754   5.952   4.345   9.464 -0.4314 -2.0865 -0.0762
   35POPC  C312 4755   6.033   4.234   9.289  0.1147  0.4541 -0.1172
   35POPC  H12X 4756   6.058   4.155   9.362 -1.1124 -0.5919 -0.7879
   35POPC  H12Y 4757   6.107   4.258   9.209  1.1480 -0.1828  0.6285
   35POPC  C313 4758   5.898   4.206   9.212  0.3561  0.3835 -0.0793
   35POPC  H13X 4759   5.872   4.285   9.138 -1.1846 -1.6780 -1.8868
   35POPC  H13Y 4760   5.814   4.217   9.284 -1.8173 -1.1734 -2.1824
   35POPC  C314 4761   5.893   4.067   9.147  0.3919  0.7882  0.2501
   35POPC  H14X 4762   5.797   4.047   9.095  1.2081 -2.4079 -0.2514
   35POPC  H14Y 4763   5.893   3.989   9.226 -0.9475 -1.4116 -1.8109
   35POPC  C315 4764   6.009   4.034   9.054  0.0403 -0.4324  0.2876
   35POPC  H15X 4765   5.982   3.940   9.001  2.0542 -1.0617  0.2873
   35POPC  H15Y 4766   6.104   4.012   9.106 -0.2860 -0.3904  0.9062
   35POPC  C316 4767   6.024   4.142   8.951  0.1818 -0.0418 -0.3019
   35POPC  H16X 4768   5.924   4.185   8.926 -1.0090 -2.3041  0.3328
   35POPC  H16Y 4769   6.097   4.108   8.875  1.0856 -0.3938  0.7094
   35POPC  H16Z 4770   6.063   4.229   9.008  0.0720 -0.1914  0.0071
   36POPC     N 4771   2.520   2.744  10.887 -0.1766  0.7646  0.1794
   36POPC   C12 4772   2.586   2.799  10.760 -0.0465 -0.2523  0.8249
   36POPC  H12A 4773   2.687   2.829  10.787 -0.5194  1.1633  1.1339
   36POPC  H12B 4774   2.529   2.885  10.728 -2.2389 -1.8830  0.0999
   36POPC   C13 4775   2.499   2.857  10.990  0.2601  0.0653 -0.3182
   36POPC  H13A 4776   2.448   2.803  11.069 -0.9040  1.2332 -0.2268
   36POPC  H13B 4777   2.590   2.904  11.023 -0.3928  1.1554 -0.0182
   36POPC  H13C 4778   2.433   2.937  10.960  0.6154  0.1132 -0.9816
   36POPC   C14 4779   2.396   2.673  10.850 -0.0900  0.9016 -0.8767
   36POPC  H14A 4780   2.345   2.637  10.938  2.4634 -0.5798  0.1132
   36POPC  H14B 4781   2.330   2.738  10.796  0.8120  0.1809 -2.9632
   36POPC  H14C 4782   2.430   2.590  10.789  1.1058  0.9250 -0.2906
   36POPC   C15 4783   2.609   2.646  10.954 -0.2392  0.6682  0.1028
   36POPC  H15A 4784   2.694   2.701  10.992 -1.9931  1.4629  3.2199
   36POPC  H15B 4785   2.636   2.561  10.893 -1.6087 -0.7620  1.4030
   36POPC  H15C 4786   2.564   2.598  11.040  1.0297 -1.9392 -0.5930
   36POPC   C11 4787   2.613   2.696  10.638  0.4085  0.1673  0.8874
   36POPC  H11A 4788   2.665   2.749  10.555  0.7989  0.3966  1.2759
   36POPC  H11B 4789   2.518   2.662  10.592  1.4437 -1.5911 -0.0747
   36POPC     P 4790   2.838   2.581  10.692  0.0221 -0.0037 -0.5664
   36POPC   O13 4791   2.876   2.517  10.814 -0.1233  0.4028 -0.0127
   36POPC   O14 4792   2.879   2.721  10.687  0.3242  0.5636 -0.3048
   36POPC   O12 4793   2.681   2.577  10.679  0.0697 -0.2712  0.3862
   36POPC   O11 4794   2.882   2.510  10.558  0.1174 -0.0369  0.3480
   36POPC    C1 4795   2.804   2.391  10.523 -0.5170 -0.0713  0.8246
   36POPC    HA 4796   2.703   2.381  10.566 -0.5405 -1.3893  0.5156
   36POPC    HB 4797   2.858   2.302  10.564 -1.9110 -1.0955  0.5291
   36POPC    C2 4798   2.792   2.379  10.365  0.0899  0.8858 -0.0001
   36POPC    HS 4799   2.893   2.402  10.324 -0.9244 -1.1698 -4.2836
   36POPC   O21 4800   2.682   2.462  10.318 -0.4599  0.1208  0.0444
   36POPC   C21 4801   2.717   2.582  10.281 -0.3348 -0.2931  0.8839
   36POPC   O22 4802   2.830   2.627  10.289 -0.1052  0.3746  0.9885
   36POPC   C22 4803   2.606   2.662  10.210  0.2105 -0.3141  0.6755
   36POPC   H2R 4804   2.638   2.700  10.111 -0.1347 -1.5668  0.0680
   36POPC   H2S 4805   2.576   2.744  10.279 -2.2287 -1.3943  0.9972
   36POPC    C3 4806   2.751   2.231  10.336 -0.2667 -0.6413 -0.3030
   36POPC    HX 4807   2.651   2.206  10.377  0.2554 -2.0642  0.1669
   36POPC    HY 4808   2.818   2.164  10.395  2.7474 -0.3033 -3.0717
   36POPC   O31 4809   2.752   2.206  10.194 -0.7441  0.5280 -0.5399
   36POPC   C31 4810   2.638   2.201  10.124 -0.4865 -0.0086  0.1683
   36POPC   O32 4811   2.524   2.207  10.167 -0.6700 -0.2300 -0.5726
   36POPC   C32 4812   2.674   2.191   9.978  0.2565 -0.5597  0.6224
   36POPC   H2X 4813   2.768   2.137   9.958 -0.0451 -0.8948  0.1113
   36POPC   H2Y 4814   2.686   2.295   9.941  2.1093 -0.8022  0.4597
   36POPC   C23 4815   2.468   2.589  10.186  0.4420 -0.0939 -0.1477
   36POPC   H3R 4816   2.383   2.660  10.180  0.1749 -0.0840  2.5314
   36POPC   H3S 4817   2.453   2.516  10.269  2.7734 -1.1188 -0.5558
   36POPC   C24 4818   2.475   2.512  10.052 -0.2361 -0.5013  1.0389
   36POPC   H4R 4819   2.556   2.437  10.046  0.8342  0.6758  0.2464
   36POPC   H4S 4820   2.495   2.590   9.976  0.3527 -0.5087  1.1780
   36POPC   C25 4821   2.336   2.455  10.012 -0.5403  0.1854 -0.2984
   36POPC   H5R 4822   2.252   2.523  10.038  0.4826  0.7525  1.6672
   36POPC   H5S 4823   2.328   2.365  10.077  0.5531  2.2751  2.9370
   36POPC   C26 4824   2.319   2.412   9.867 -0.7922  0.3372  0.7183
   36POPC   H6R 4825   2.228   2.349   9.874 -0.4929 -0.6678 -2.5552
   36POPC   H6S 4826   2.407   2.353   9.833 -0.3504  0.0786  2.2410
   36POPC   C27 4827   2.289   2.522   9.768 -0.3078  0.0333  0.2209
   36POPC   H7R 4828   2.388   2.556   9.731 -0.1200 -0.3209  0.3973
   36POPC   H7S 4829   2.236   2.608   9.814 -0.6154 -0.8225  1.5075
   36POPC   C28 4830   2.206   2.470   9.641 -0.3151  0.4655  0.3116
   36POPC   H8R 4831   2.101   2.450   9.670 -0.2007 -1.0911 -0.2893
   36POPC   H8S 4832   2.250   2.371   9.617  1.0040  0.8244  1.1133
   36POPC   C29 4833   2.216   2.564   9.522  0.2835  0.5483 -0.3263
   36POPC   H91 4834   2.152   2.650   9.546 -1.2022 -0.5279 -0.2538
   36POPC  C210 4835   2.290   2.549   9.409 -0.2198 -0.1986 -0.4838
   36POPC  H101 4836   2.293   2.620   9.326  3.6907 -0.0334 -0.3951
   36POPC  C211 4837   2.371   2.424   9.377 -1.1908  0.1231 -0.1912
   36POPC  H11R 4838   2.383   2.364   9.469 -3.3921 -0.3903 -0.1738
   36POPC  H11S 4839   2.475   2.459   9.358 -0.7622 -1.2147 -0.3728
   36POPC  C212 4840   2.333   2.332   9.261  0.1200 -0.2751 -1.0262
   36POPC  H12R 4841   2.224   2.309   9.266  0.1974 -0.4614  1.0947
   36POPC  H12S 4842   2.372   2.229   9.277  0.0663  0.1123  2.4221
   36POPC  C213 4843   2.377   2.380   9.126 -0.6942 -0.1107 -0.3512
   36POPC  H13R 4844   2.488   2.383   9.120 -0.7994  1.5000 -3.6106
   36POPC  H13S 4845   2.352   2.488   9.124 -0.0548  0.0378 -1.3808
   36POPC  C214 4846   2.331   2.295   8.999 -0.7441 -0.2762  0.9710
   36POPC  H14R 4847   2.226   2.326   8.978 -0.7067  0.1876  1.4518
   36POPC  H14S 4848   2.334   2.188   9.029  1.2281 -0.5804 -0.1254
   36POPC  C215 4849   2.411   2.331   8.873  0.1535  0.4694  0.5465
   36POPC  H15R 4850   2.380   2.274   8.783  0.0454 -0.2114  1.0053
   36POPC  H15S 4851   2.517   2.312   8.898 -0.0951  0.7971  1.9224
   36POPC  C216 4852   2.404   2.476   8.835 -1.0031 -0.0108  0.4048
   36POPC  H16R 4853   2.452   2.533   8.916 -1.1242  1.2846 -0.4054
   36POPC  H16S 4854   2.295   2.495   8.839 -1.1032 -0.3808 -0.3443
   36POPC  C217 4855   2.465   2.524   8.704 -0.2248  0.3505  0.5689
   36POPC  H17R 4856   2.411   2.479   8.618  1.1484  0.8657 -0.6281
   36POPC  H17S 4857   2.570   2.498   8.678  0.0013  2.4306 -0.9001
   36POPC  C218 4858   2.426   2.673   8.671 -0.1090  0.1569 -0.1646
   36POPC  H18R 4859   2.325   2.695   8.713 -0.8823  1.3346 -2.4803
   36POPC  H18S 4860   2.419   2.694   8.562  1.3143 -1.7927 -0.6773
   36POPC  H18T 4861   2.495   2.740   8.727  2.2317 -2.3341  0.0768
   36POPC   C33 4862   2.581   2.122   9.882 -0.2836 -0.6513  0.1774
   36POPC   H3X 4863   2.475   2.153   9.893 -0.3280 -0.8295  0.2595
   36POPC   H3Y 4864   2.576   2.013   9.903 -1.4328 -0.6115  0.1744
   36POPC   C34 4865   2.634   2.143   9.731  0.4438 -0.3462  0.0315
   36POPC   H4X 4866   2.739   2.110   9.748  0.2817  0.1161  2.3471
   36POPC   H4Y 4867   2.625   2.246   9.689 -1.0925  0.2371  1.6478
   36POPC   C35 4868   2.563   2.053   9.627 -0.1376 -0.3837  0.2874
   36POPC   H5X 4869   2.454   2.075   9.635 -0.0697 -0.0179  0.2153
   36POPC   H5Y 4870   2.589   1.946   9.639 -0.6070 -0.4436  0.8218
   36POPC   C36 4871   2.600   2.093   9.481 -0.1510 -0.6191  0.2854
   36POPC   H6X 4872   2.710   2.109   9.483 -0.1833 -0.3944  0.3626
   36POPC   H6Y 4873   2.546   2.190   9.467 -0.5801 -0.9527 -0.3826
   36POPC   C37 4874   2.575   1.993   9.368  0.4624 -0.3879  0.1588
   36POPC   H7X 4875   2.470   1.995   9.333  0.9556  0.9497 -1.4011
   36POPC   H7Y 4876   2.609   1.889   9.386  2.4886 -0.1921 -2.0269
   36POPC   C38 4877   2.629   2.046   9.237  0.5524 -0.6016 -0.1216
   36POPC   H8X 4878   2.730   2.089   9.256 -0.3676  1.5724  0.1408
   36POPC   H8Y 4879   2.578   2.138   9.201 -1.8195 -0.8463  2.3205
   36POPC   C39 4880   2.644   1.954   9.123 -0.2849  0.0674 -0.3869
   36POPC   H9X 4881   2.551   1.906   9.084 -0.0670  1.4510 -2.7585
   36POPC   H9Y 4882   2.717   1.875   9.152  0.2588  0.9609  0.7331
   36POPC  C310 4883   2.701   2.014   8.998 -0.5006 -0.4138 -0.0499
   36POPC  H10X 4884   2.803   2.054   9.016  0.3278 -0.8335 -3.2073
   36POPC  H10Y 4885   2.630   2.099   8.990 -2.1996 -1.4184  2.8311
   36POPC  C311 4886   2.718   1.933   8.867  0.5623 -0.1129  0.1037
   36POPC  H11X 4887   2.615   1.894   8.847 -0.2496  2.5893 -1.4651
   36POPC  H11Y 4888   2.782   1.844   8.885  1.4668 -0.0457 -2.4194
   36POPC  C312 4889   2.768   2.014   8.755 -0.0563 -0.3863  0.6767
   36POPC  H12X 4890   2.823   1.956   8.679 -1.0906 -1.2683  0.5674
   36POPC  H12Y 4891   2.844   2.081   8.801 -0.8047  0.4056  0.7896
   36POPC  C313 4892   2.655   2.088   8.670 -0.4258 -0.6008  0.0643
   36POPC  H13X 4893   2.706   2.161   8.604  0.5006 -0.0027  1.3873
   36POPC  H13Y 4894   2.583   2.135   8.740 -0.5940  0.7021 -0.9511
   36POPC  C314 4895   2.575   2.005   8.577  0.3184  0.3593 -0.2548
   36POPC  H14X 4896   2.541   1.911   8.627 -0.0929  0.2984 -0.6533
   36POPC  H14Y 4897   2.649   1.978   8.498 -0.5971 -0.9505 -0.7118
   36POPC  C315 4898   2.463   2.074   8.509 -0.3185 -0.2966 -0.3035
   36POPC  H15X 4899   2.503   2.147   8.436  0.8591 -1.8215 -1.2500
   36POPC  H15Y 4900   2.401   2.128   8.583 -0.1059 -0.8718  0.3121
   36POPC  C316 4901   2.380   1.986   8.420  0.3620  0.0778 -0.0126
   36POPC  H16X 4902   2.446   1.913   8.367 -1.1365 -3.0963  2.2202
   36POPC  H16Y 4903   2.324   2.044   8.344 -0.0494  2.2217  1.8256
   36POPC  H16Z 4904   2.306   1.930   8.481 -2.0623  0.2666 -2.5753
   37POPC     N 4905   1.025   3.533   6.159  0.1783 -0.1756 -0.4502
   37POPC   C12 4906   1.011   3.458   6.292 -0.1226 -0.1656  0.1817
   37POPC  H12A 4907   1.085   3.380   6.297 -0.1152 -0.0626  2.7820
   37POPC  H12B 4908   0.930   3.387   6.292 -0.6314  0.3877 -0.5652
   37POPC   C13 4909   0.894   3.590   6.117 -0.1958 -0.2390 -0.7985
   37POPC  H13A 4910   0.842   3.645   6.194 -1.2333  0.6100 -2.0536
   37POPC  H13B 4911   0.906   3.642   6.023 -0.9825  1.2195 -0.1156
   37POPC  H13C 4912   0.816   3.518   6.095 -0.2050 -0.0084 -1.5329
   37POPC   C14 4913   1.126   3.640   6.180  0.5102  0.3010 -0.1205
   37POPC  H14A 4914   1.224   3.598   6.198 -0.0073 -1.3500 -0.9806
   37POPC  H14B 4915   1.143   3.705   6.095 -1.6561  2.0302  0.6537
   37POPC  H14C 4916   1.105   3.710   6.259  0.5891 -1.4544  1.5308
   37POPC   C15 4917   1.065   3.440   6.050  0.5844  0.4134  0.1894
   37POPC  H15A 4918   1.057   3.485   5.953  0.8181  1.0899  0.4763
   37POPC  H15B 4919   0.994   3.359   6.042  1.5982 -0.3052 -2.2911
   37POPC  H15C 4920   1.166   3.403   6.064 -0.2981 -1.5659  2.0202
   37POPC   C11 4921   1.009   3.534   6.424  0.5021  0.7946 -0.7696
   37POPC  H11A 4922   1.098   3.599   6.432 -0.2246  1.6346  1.1442
   37POPC  H11B 4923   1.014   3.466   6.513  1.8389  1.2650 -0.4597
   37POPC     P 4924   0.754   3.577   6.477 -0.0900  0.6747 -0.0803
   37POPC   O13 4925   0.756   3.427   6.516  0.9050 -0.1086  0.1656
   37POPC   O14 4926   0.649   3.617   6.383  0.4737 -0.1180  0.7032
   37POPC   O12 4927   0.900   3.618   6.431  0.2224 -0.0076 -0.3733
   37POPC   O11 4928   0.742   3.659   6.611  0.8509 -0.0638 -0.4121
   37POPC    C1 4929   0.826   3.671   6.719 -0.1800  0.1300 -0.1609
   37POPC    HA 4930   0.928   3.636   6.694  0.4018  2.3175 -1.1199
   37POPC    HB 4931   0.772   3.611   6.795  1.2393  2.6235  3.0598
   37POPC    C2 4932   0.824   3.811   6.779  0.1622  0.0861  0.3542
   37POPC    HS 4933   0.884   3.878   6.715  0.1498 -0.6664 -0.4573
   37POPC   O21 4934   0.870   3.790   6.917  0.2185 -0.5676  0.4224
   37POPC   C21 4935   0.947   3.886   6.955 -0.0693  0.4524  0.5107
   37POPC   O22 4936   0.982   3.980   6.883 -0.1860  0.2298  0.1852
   37POPC   C22 4937   0.999   3.859   7.102 -0.6298  0.1690  0.1897
   37POPC   H2R 4938   1.105   3.829   7.086 -1.1072 -2.3064  1.2568
   37POPC   H2S 4939   0.936   3.771   7.126 -0.6808 -0.0356 -0.6419
   37POPC    C3 4940   0.679   3.863   6.772  0.5624  0.5412  0.3960
   37POPC    HX 4941   0.604   3.784   6.794  0.8266 -0.0644 -0.7444
   37POPC    HY 4942   0.657   3.888   6.666  1.1425 -1.3223 -0.2127
   37POPC   O31 4943   0.655   3.965   6.870  0.5031  0.1878 -0.1417
   37POPC   C31 4944   0.672   4.090   6.833 -0.3928 -0.4268 -0.0589
   37POPC   O32 4945   0.727   4.128   6.733 -0.4083 -0.4590  0.2290
   37POPC   C32 4946   0.609   4.184   6.940  0.2446  1.0019 -0.3486
   37POPC   H2X 4947   0.510   4.145   6.973  0.8529 -0.7412 -0.4873
   37POPC   H2Y 4948   0.603   4.289   6.903  1.0409  0.5679 -1.7953
   37POPC   C23 4949   0.958   3.958   7.205  0.7369  1.0066  0.1154
   37POPC   H3R 4950   0.848   3.976   7.205  0.5662  0.3822  2.7234
   37POPC   H3S 4951   1.010   4.054   7.185 -0.7693  1.2573 -3.2096
   37POPC   C24 4952   0.987   3.927   7.351 -0.3684 -0.2181 -0.7060
   37POPC   H4R 4953   1.096   3.916   7.371 -0.3169 -0.6158 -1.1843
   37POPC   H4S 4954   0.942   3.832   7.388 -2.7854  1.5571  1.2446
   37POPC   C25 4955   0.951   4.049   7.445  0.2736 -0.3127  0.4395
   37POPC   H5R 4956   0.849   4.088   7.426  0.2209  0.1957  1.6568
   37POPC   H5S 4957   1.025   4.131   7.431  1.4317 -1.3863  0.0177
   37POPC   C26 4958   0.954   4.015   7.592 -0.4324  0.5989  1.1463
   37POPC   H6R 4959   1.060   4.019   7.626 -0.3683  1.4574  0.8627
   37POPC   H6S 4960   0.915   3.911   7.600 -0.0801  0.3741  0.0579
   37POPC   C27 4961   0.878   4.108   7.681 -0.0420 -0.4810  0.2236
   37POPC   H7R 4962   0.777   4.124   7.637 -0.4633 -1.7099  0.6919
   37POPC   H7S 4963   0.918   4.211   7.687  1.3130 -1.0630  1.9986
   37POPC   C28 4964   0.852   4.060   7.824  0.0429  1.1366 -0.4325
   37POPC   H8R 4965   0.817   3.956   7.809  3.4923 -0.1269 -0.6034
   37POPC   H8S 4966   0.772   4.119   7.875 -0.8939  0.0661 -0.6408
   37POPC   C29 4967   0.981   4.055   7.901  0.1154 -1.1716  0.6750
   37POPC   H91 4968   1.048   3.967   7.897  1.4801 -0.1445 -0.8172
   37POPC  C210 4969   1.025   4.161   7.968  0.1756 -0.4874 -0.2853
   37POPC  H101 4970   1.118   4.139   8.023  0.4239  0.0070 -0.5008
   37POPC  C211 4971   0.958   4.301   7.991 -0.6570  0.1565  0.1258
   37POPC  H11R 4972   0.877   4.322   7.918  1.3305 -1.8188 -2.9117
   37POPC  H11S 4973   1.040   4.377   7.993  0.5167 -1.0597  3.1076
   37POPC  C212 4974   0.894   4.315   8.133  0.0028  0.3148  0.2341
   37POPC  H12R 4975   0.805   4.249   8.140  0.8903 -0.8574  0.8239
   37POPC  H12S 4976   0.858   4.420   8.137  0.7358  0.6747 -1.4918
   37POPC  C213 4977   0.978   4.280   8.253 -0.3932 -0.2413 -0.0127
   37POPC  H13R 4978   1.066   4.348   8.255  0.0619 -0.7499  3.6374
   37POPC  H13S 4979   1.018   4.177   8.244  0.2880  0.0999 -1.0490
   37POPC  C214 4980   0.913   4.294   8.393  0.2080  0.0664  0.6835
   37POPC  H14R 4981   0.832   4.218   8.396  0.1050  0.0843 -0.9791
   37POPC  H14S 4982   0.871   4.397   8.395  1.7304  0.7519 -0.6243
   37POPC  C215 4983   1.020   4.278   8.506  0.1711 -0.3445 -0.2407
   37POPC  H15R 4984   1.068   4.178   8.502  1.0660  0.0777 -0.2200
   37POPC  H15S 4985   0.958   4.288   8.597  0.3806  1.1882 -0.2317
   37POPC  C216 4986   1.143   4.382   8.511  0.1453 -0.6350  0.2969
   37POPC  H16R 4987   1.105   4.486   8.506  1.4152 -0.2237 -1.9134
   37POPC  H16S 4988   1.205   4.366   8.420  0.3525  0.0843  0.3059
   37POPC  C217 4989   1.230   4.348   8.638  0.2000 -0.2401  0.0439
   37POPC  H17R 4990   1.186   4.387   8.733 -0.6251  0.3993 -0.5831
   37POPC  H17S 4991   1.330   4.398   8.634 -0.7618  1.7767 -0.2557
   37POPC  C218 4992   1.248   4.196   8.664 -0.0178 -0.5297 -0.1855
   37POPC  H18R 4993   1.161   4.127   8.666 -0.2274 -0.2885 -0.7105
   37POPC  H18S 4994   1.304   4.174   8.757 -1.3440 -0.3292  0.6865
   37POPC  H18T 4995   1.321   4.155   8.591  0.8235 -0.3967  0.5667
   37POPC   C33 4996   0.693   4.207   7.069 -0.7130 -0.2364 -0.5986
   37POPC   H3X 4997   0.758   4.294   7.048  1.6451 -1.9912 -0.9940
   37POPC   H3Y 4998   0.750   4.113   7.087 -1.6487 -0.7983 -0.4637
   37POPC   C34 4999   0.604   4.233   7.186  0.0492  0.0963 -0.3581
   37POPC   H4X 5000   0.546   4.143   7.218 -0.9060  0.8720  0.1468
   37POPC   H4Y 5001   0.529   4.306   7.147  1.7116  0.6745 -2.6529
   37POPC   C35 5002   0.665   4.317   7.305 -0.0142 -0.7894 -0.2519
   37POPC   H5X 5003   0.682   4.426   7.292 -2.1722 -0.3402  0.2749
   37POPC   H5Y 5004   0.757   4.260   7.329 -0.7340 -2.2460 -0.8110
   37POPC   C36 5005   0.562   4.308   7.421 -0.3212 -0.6846 -0.5365
   37POPC   H6X 5006   0.554   4.203   7.455  1.7582 -1.0984 -1.1400
   37POPC   H6Y 5007   0.458   4.344   7.409 -0.4122  0.1041  1.9520
   37POPC   C37 5008   0.620   4.389   7.545 -0.0393  0.0722 -0.8947
   37POPC   H7X 5009   0.610   4.496   7.518  0.1649  0.9755  2.2153
   37POPC   H7Y 5010   0.727   4.366   7.566  0.0703  2.3312  1.4958
   37POPC   C38 5011   0.544   4.368   7.673  0.0491  0.3119  0.7847
   37POPC   H8X 5012   0.560   4.259   7.690  4.3356  0.0709 -3.0467
   37POPC   H8Y 5013   0.435   4.388   7.664  0.3071  2.4826  1.6958
   37POPC   C39 5014   0.594   4.440   7.798 -0.1309  0.0569  0.3907
   37POPC   H9X 5015   0.596   4.548   7.772 -2.9943  0.2907  0.8221
   37POPC   H9Y 5016   0.691   4.400   7.836 -0.0233  1.5936  1.8412
   37POPC  C310 5017   0.495   4.438   7.915 -0.0098 -0.3215 -0.1815
   37POPC  H10X 5018   0.476   4.331   7.934  0.0858 -0.1896  0.7588
   37POPC  H10Y 5019   0.403   4.489   7.881 -0.0629 -0.2190  0.1069
   37POPC  C311 5020   0.555   4.479   8.049 -0.6191 -0.2215  0.0689
   37POPC  H11X 5021   0.572   4.588   8.063 -1.8455 -0.1145  0.8909
   37POPC  H11Y 5022   0.655   4.430   8.052 -0.8758 -0.7828 -0.3574
   37POPC  C312 5023   0.469   4.433   8.171  0.1372 -0.4144 -0.4624
   37POPC  H12X 5024   0.418   4.340   8.137 -2.2557  0.8979 -0.7194
   37POPC  H12Y 5025   0.395   4.515   8.188  0.6002 -0.4679  2.2251
   37POPC  C313 5026   0.555   4.404   8.290  0.0212 -0.3483 -0.4823
   37POPC  H13X 5027   0.618   4.492   8.315 -0.5672  0.1532 -0.7277
   37POPC  H13Y 5028   0.631   4.325   8.270  2.8184  1.8910  0.5970
   37POPC  C314 5029   0.478   4.363   8.423  0.1413 -0.2073 -0.8903
   37POPC  H14X 5030   0.444   4.257   8.422  2.1195 -0.9239  1.1885
   37POPC  H14Y 5031   0.382   4.420   8.422  0.3521  0.1948 -3.0190
   37POPC  C315 5032   0.549   4.387   8.555  0.0925  0.1420  0.0717
   37POPC  H15X 5033   0.567   4.496   8.566 -0.2289  0.4310 -1.8800
   37POPC  H15Y 5034   0.642   4.326   8.542 -0.9366 -1.4359 -0.1356
   37POPC  C316 5035   0.476   4.332   8.681 -0.4159  0.3520  0.2034
   37POPC  H16X 5036   0.530   4.349   8.777  0.5643 -0.1860 -0.2404
   37POPC  H16Y 5037   0.462   4.223   8.668  2.8037 -0.1253 -0.0274
   37POPC  H16Z 5038   0.385   4.396   8.678  0.0288  1.0015  0.2887
   38POPC     N 5039   1.036   1.951   5.962 -0.1791  0.6756  0.9362
   38POPC   C12 5040   1.105   1.962   6.098 -0.2928  0.7464 -1.1664
   38POPC  H12A 5041   1.044   2.034   6.152 -0.2523  2.0938 -2.8345
   38POPC  H12B 5042   1.208   1.989   6.081  0.2730 -1.1179 -0.8684
   38POPC   C13 5043   1.092   1.835   5.880 -0.2055  0.1564  0.2594
   38POPC  H13A 5044   1.058   1.741   5.922 -1.4477 -1.8298 -4.5420
   38POPC  H13B 5045   1.053   1.838   5.780  0.1740  1.3658  0.1422
   38POPC  H13C 5046   1.199   1.824   5.893 -0.3885  0.9014  3.2383
   38POPC   C14 5047   0.892   1.926   5.973  0.3270  0.3214 -0.4083
   38POPC  H14A 5048   0.851   1.879   5.884 -1.1308  0.4091  0.1865
   38POPC  H14B 5049   0.875   1.852   6.051 -0.8307  0.6884 -0.2966
   38POPC  H14C 5050   0.837   2.011   6.010  2.4593  1.3242  0.6294
   38POPC   C15 5051   1.052   2.080   5.884  0.4224  0.0440 -0.5010
   38POPC  H15A 5052   1.006   2.155   5.946  2.8720  2.2066 -1.1643
   38POPC  H15B 5053   1.000   2.071   5.789  1.1170  0.6953 -0.9556
   38POPC  H15C 5054   1.153   2.111   5.862  1.7116 -2.4050  1.4966
   38POPC   C11 5055   1.105   1.826   6.182  0.3203 -0.1517 -0.4037
   38POPC  H11A 5056   1.140   1.748   6.111 -0.0399 -1.9162  1.2836
   38POPC  H11B 5057   0.999   1.800   6.202  0.6488 -0.9857  0.3095
   38POPC     P 5058   1.341   1.837   6.284 -0.1790 -0.0781 -0.3328
   38POPC   O13 5059   1.393   1.949   6.199  0.0902  0.2447 -0.1751
   38POPC   O14 5060   1.370   1.702   6.235  0.0713  0.1099  0.3894
   38POPC   O12 5061   1.185   1.846   6.302 -0.2179  0.0466  0.0252
   38POPC   O11 5062   1.402   1.861   6.427 -0.2815  0.1454 -0.1003
   38POPC    C1 5063   1.348   1.777   6.527 -0.2453  0.0416  0.4136
   38POPC    HA 5064   1.392   1.676   6.519 -0.6199  0.0052 -1.8254
   38POPC    HB 5065   1.239   1.753   6.523 -0.4714  1.0069  0.4056
   38POPC    C2 5066   1.380   1.834   6.669 -0.2140 -0.8275  0.0153
   38POPC    HS 5067   1.327   1.931   6.677  0.7419 -0.2847 -0.0173
   38POPC   O21 5068   1.527   1.844   6.671 -0.3430  0.2811 -0.5808
   38POPC   C21 5069   1.558   1.963   6.716  0.1549 -0.1270  0.0041
   38POPC   O22 5070   1.487   2.060   6.728 -0.3334 -0.4817  0.1716
   38POPC   C22 5071   1.713   1.968   6.741  0.5063 -0.6392  0.0380
   38POPC   H2R 5072   1.756   1.935   6.644  1.0615 -1.4529  0.5561
   38POPC   H2S 5073   1.737   1.889   6.814  0.5184 -0.2271  0.4846
   38POPC    C3 5074   1.319   1.745   6.775  1.2373  0.4036 -0.5636
   38POPC    HX 5075   1.345   1.638   6.759 -0.6515  0.1457 -2.2963
   38POPC    HY 5076   1.209   1.743   6.761  1.2627 -0.9472 -0.7103
   38POPC   O31 5077   1.342   1.793   6.915 -0.3052 -0.6212 -1.3431
   38POPC   C31 5078   1.276   1.897   6.966  0.2395  0.2542 -0.1963
   38POPC   O32 5079   1.185   1.955   6.913  0.2962  0.1508 -0.3828
   38POPC   C32 5080   1.329   1.929   7.101  0.0196  0.2501  0.1349
   38POPC   H2X 5081   1.270   2.016   7.137  0.8616  0.9113 -0.0349
   38POPC   H2Y 5082   1.428   1.971   7.072  0.5170 -2.3428 -2.4387
   38POPC   C23 5083   1.770   2.109   6.772 -0.7374 -0.1506  0.6954
   38POPC   H3R 5084   1.729   2.184   6.701  2.1128 -0.1928 -1.1466
   38POPC   H3S 5085   1.880   2.118   6.758 -0.7094 -0.8250  0.4813
   38POPC   C24 5086   1.754   2.143   6.921 -0.7699  0.7455 -0.2131
   38POPC   H4R 5087   1.653   2.124   6.963 -0.5416  0.1648  0.0719
   38POPC   H4S 5088   1.761   2.254   6.932  1.0961  1.0260 -3.1189
   38POPC   C25 5089   1.866   2.076   7.011  0.1355  0.3611  0.5506
   38POPC   H5R 5090   1.963   2.099   6.961 -0.1974 -3.1359 -2.1080
   38POPC   H5S 5091   1.846   1.968   6.997 -1.2401  0.8106 -1.3021
   38POPC   C26 5092   1.869   2.112   7.154  0.5569  0.1151 -0.0164
   38POPC   H6R 5093   1.946   2.045   7.199  0.3966  0.5646  0.9621
   38POPC   H6S 5094   1.772   2.083   7.201  0.4084 -4.0957 -2.3931
   38POPC   C27 5095   1.916   2.253   7.195 -0.2485  0.3051 -0.2004
   38POPC   H7R 5096   1.840   2.327   7.165  1.9440  2.5748 -0.5115
   38POPC   H7S 5097   2.012   2.258   7.138  1.1793  1.4704  2.1647
   38POPC   C28 5098   1.950   2.272   7.338 -0.5040 -0.3035  0.1860
   38POPC   H8R 5099   2.021   2.357   7.343  0.8296 -1.3474 -0.3803
   38POPC   H8S 5100   2.008   2.185   7.375  0.0527 -1.3905 -2.9980
   38POPC   C29 5101   1.832   2.307   7.438 -0.7293  0.3973 -0.3745
   38POPC   H91 5102   1.774   2.396   7.407  0.4742  1.7805  1.1441
   38POPC  C210 5103   1.810   2.245   7.558 -0.5994  0.1194  0.2798
   38POPC  H101 5104   1.719   2.278   7.610 -0.9888 -0.1372 -0.2351
   38POPC  C211 5105   1.909   2.153   7.625 -0.1050  0.2603 -0.6458
   38POPC  H11R 5106   2.003   2.138   7.568  0.4241  0.8085  0.0666
   38POPC  H11S 5107   1.862   2.053   7.623  0.6734 -0.1192 -0.1277
   38POPC  C212 5108   1.932   2.199   7.770 -0.5777  0.2891  0.1430
   38POPC  H12R 5109   2.002   2.132   7.824  0.3942  0.2947 -1.0607
   38POPC  H12S 5110   1.833   2.203   7.821  0.4061  0.1391  2.1252
   38POPC  C213 5111   1.998   2.334   7.786 -0.5233 -0.4617 -0.4740
   38POPC  H13R 5112   1.916   2.406   7.765 -1.3792 -0.9440  0.9938
   38POPC  H13S 5113   2.087   2.335   7.720 -0.1596 -1.9764 -0.0306
   38POPC  C214 5114   2.052   2.361   7.926  0.2845  0.8734  0.0241
   38POPC  H14R 5115   2.126   2.281   7.947 -0.8636  0.0614  1.1250
   38POPC  H14S 5116   1.971   2.337   7.999  0.8569  1.4427  0.8575
   38POPC  C215 5117   2.101   2.498   7.959  0.3266 -0.5100  0.8149
   38POPC  H15R 5118   2.021   2.574   7.961  0.4073 -0.4330  1.2133
   38POPC  H15S 5119   2.182   2.531   7.891  1.8009 -1.2555  2.1500
   38POPC  C216 5120   2.154   2.501   8.106 -0.8237 -0.4553  0.2263
   38POPC  H16R 5121   2.081   2.450   8.172  1.2295 -2.0643  1.3958
   38POPC  H16S 5122   2.162   2.609   8.133 -0.3983 -0.2692 -0.5882
   38POPC  C217 5123   2.283   2.433   8.130 -0.1951  0.0196  0.7169
   38POPC  H17R 5124   2.357   2.470   8.056 -0.6881 -0.7596 -0.1850
   38POPC  H17S 5125   2.262   2.324   8.117 -1.4772  0.4521 -1.2002
   38POPC  C218 5126   2.346   2.450   8.269  0.2360 -0.5925  0.0038
   38POPC  H18R 5127   2.445   2.401   8.267 -0.8783 -3.0249  1.0155
   38POPC  H18S 5128   2.290   2.416   8.358  0.3975 -2.6043 -0.6197
   38POPC  H18T 5129   2.348   2.561   8.271  2.2014 -0.5923  0.0353
   38POPC   C33 5130   1.337   1.815   7.201 -0.5973 -0.8218  0.4728
   38POPC   H3X 5131   1.406   1.734   7.170 -0.8777 -1.3466  1.1795
   38POPC   H3Y 5132   1.235   1.771   7.205 -0.6313 -1.0880 -1.9585
   38POPC   C34 5133   1.345   1.861   7.352 -0.1310 -0.0569 -0.6304
   38POPC   H4X 5134   1.296   1.791   7.423  1.1309  0.3048  0.6443
   38POPC   H4Y 5135   1.291   1.958   7.361  1.6644  0.9922 -0.6746
   38POPC   C35 5136   1.494   1.870   7.400  0.0107 -0.1721 -0.4189
   38POPC   H5X 5137   1.478   1.929   7.493 -0.7404  0.7694 -1.1122
   38POPC   H5Y 5138   1.545   1.937   7.327 -2.9477  1.8359 -0.8482
   38POPC   C36 5139   1.560   1.734   7.429  0.2308  0.6946 -0.5435
   38POPC   H6X 5140   1.561   1.684   7.330  1.1484 -0.8524  0.2086
   38POPC   H6Y 5141   1.492   1.666   7.485 -1.0200 -0.5787 -3.4221
   38POPC   C37 5142   1.704   1.750   7.477 -0.2250 -0.0131 -0.8607
   38POPC   H7X 5143   1.724   1.846   7.530  2.6025 -1.3665  0.7454
   38POPC   H7Y 5144   1.766   1.738   7.386  1.8275  0.3114  0.4418
   38POPC   C38 5145   1.745   1.641   7.579  0.1024 -0.1876  1.1016
   38POPC   H8X 5146   1.855   1.639   7.568  0.2294  0.1374  2.1850
   38POPC   H8Y 5147   1.694   1.549   7.542  2.2727 -0.9624 -0.1123
   38POPC   C39 5148   1.705   1.674   7.715 -0.4575  0.7571  0.7362
   38POPC   H9X 5149   1.597   1.650   7.728  0.0790 -1.7740  0.9862
   38POPC   H9Y 5150   1.729   1.778   7.747  2.9637  0.5946 -0.8633
   38POPC  C310 5151   1.781   1.590   7.819 -0.8393  0.2425 -0.2647
   38POPC  H10X 5152   1.885   1.629   7.818 -0.8922  0.3813 -0.7313
   38POPC  H10Y 5153   1.779   1.488   7.776  3.1660  0.6396 -1.7580
   38POPC  C311 5154   1.722   1.594   7.956 -0.5676  1.0531  0.5617
   38POPC  H11X 5155   1.776   1.524   8.024 -1.9748 -0.0488  0.5931
   38POPC  H11Y 5156   1.621   1.553   7.936 -0.0064  0.2580 -0.7344
   38POPC  C312 5157   1.724   1.732   8.018  0.3769  0.2213  0.2405
   38POPC  H12X 5158   1.706   1.807   7.938 -2.7459 -0.2716  0.3297
   38POPC  H12Y 5159   1.823   1.760   8.060 -0.1598 -0.9305  2.4482
   38POPC  C313 5160   1.627   1.728   8.135  0.4397  0.3622  0.3251
   38POPC  H13X 5161   1.649   1.666   8.224 -0.3209  1.7326  1.5310
   38POPC  H13Y 5162   1.526   1.701   8.097  1.2578 -3.6205  0.5990
   38POPC  C314 5163   1.629   1.867   8.188 -0.1106  0.3024  0.1356
   38POPC  H14X 5164   1.589   1.940   8.114  0.2057  1.0159  0.6659
   38POPC  H14Y 5165   1.726   1.911   8.218  1.6641 -2.4673 -1.1383
   38POPC  C315 5166   1.528   1.885   8.306 -0.4508 -0.1276  0.6659
   38POPC  H15X 5167   1.570   1.834   8.395 -0.0804  2.1674  1.8788
   38POPC  H15Y 5168   1.437   1.834   8.268 -0.3852 -0.1140  0.4901
   38POPC  C316 5169   1.497   2.031   8.343  0.5864 -0.5906  0.1376
   38POPC  H16X 5170   1.592   2.082   8.371  0.8720 -1.0266 -0.0305
   38POPC  H16Y 5171   1.423   2.033   8.425 -0.0487 -1.2092 -0.4161
   38POPC  H16Z 5172   1.451   2.086   8.258 -1.7382 -0.4524  1.4290
   39POPC     N 5173   4.598   1.336   5.897 -0.1077 -0.4570 -0.0971
   39POPC   C12 5174   4.476   1.279   5.968 -0.1040 -0.3798  0.4292
   39POPC  H12A 5175   4.446   1.190   5.915 -1.1733  1.0747 -1.5587
   39POPC  H12B 5176   4.393   1.344   5.942 -0.2967 -1.1177 -0.9398
   39POPC   C13 5177   4.580   1.371   5.755 -0.0426  0.4494 -0.3752
   39POPC  H13A 5178   4.492   1.430   5.735 -2.0761 -1.6151  1.8262
   39POPC  H13B 5179   4.666   1.430   5.726  0.0745 -0.1631 -1.3137
   39POPC  H13C 5180   4.583   1.281   5.696  0.4710  0.1247  0.1289
   39POPC   C14 5181   4.636   1.462   5.965  0.4378  0.3788 -0.4075
   39POPC  H14A 5182   4.556   1.534   5.951 -0.4419 -0.2000  1.3375
   39POPC  H14B 5183   4.652   1.448   6.071 -1.2481 -2.0882 -0.3998
   39POPC  H14C 5184   4.721   1.510   5.918  1.3750  0.8894  1.7083
   39POPC   C15 5185   4.713   1.239   5.916 -0.1131 -0.3388  0.3427
   39POPC  H15A 5186   4.801   1.285   5.875 -0.3494  2.6630  2.8273
   39POPC  H15B 5187   4.700   1.148   5.860  2.7830  0.5874 -2.0843
   39POPC  H15C 5188   4.722   1.206   6.019  0.3174 -0.6912  0.1941
   39POPC   C11 5189   4.483   1.250   6.120 -0.0963  0.4557  0.3924
   39POPC  H11A 5190   4.569   1.180   6.134  0.2251  0.0908 -2.7563
   39POPC  H11B 5191   4.386   1.200   6.143 -0.2691  0.8470  0.5088
   39POPC     P 5192   4.383   1.454   6.232  0.0545  0.1376 -0.0391
   39POPC   O13 5193   4.297   1.454   6.119  0.6449 -0.0222 -0.1579
   39POPC   O14 5194   4.448   1.581   6.275  0.8822  0.3131 -0.3058
   39POPC   O12 5195   4.504   1.355   6.213 -0.1214 -0.4483  0.1527
   39POPC   O11 5196   4.318   1.388   6.354  0.0913  0.2000 -0.3937
   39POPC    C1 5197   4.393   1.370   6.474 -0.5259  0.3624  0.1036
   39POPC    HA 5198   4.481   1.436   6.489  1.4818 -2.6140  2.4823
   39POPC    HB 5199   4.437   1.268   6.476  2.3872  1.5387  1.0038
   39POPC    C2 5200   4.304   1.390   6.602 -0.1874  0.5184  0.1580
   39POPC    HS 5201   4.247   1.295   6.607  1.5769 -0.6755 -1.3469
   39POPC   O21 5202   4.227   1.514   6.594  0.2868  0.0889  0.0420
   39POPC   C21 5203   4.100   1.493   6.572 -0.2138 -0.3820 -0.1141
   39POPC   O22 5204   4.042   1.392   6.572  0.2350 -0.1735 -0.9385
   39POPC   C22 5205   4.025   1.630   6.569  0.3213  0.0518  0.5294
   39POPC   H2R 5206   3.917   1.603   6.565 -0.0237  1.1967  1.5374
   39POPC   H2S 5207   4.044   1.684   6.474  2.5615  0.0413  0.9055
   39POPC    C3 5208   4.393   1.391   6.735  0.0084  0.8889  0.0703
   39POPC    HX 5209   4.451   1.486   6.728 -0.4913  1.1725 -0.3086
   39POPC    HY 5210   4.465   1.308   6.719 -2.4262 -1.0802 -1.3214
   39POPC   O31 5211   4.323   1.399   6.864 -0.0167  0.0249 -0.6142
   39POPC   C31 5212   4.280   1.283   6.913 -0.2913 -0.6083  0.0198
   39POPC   O32 5213   4.282   1.179   6.852  0.0932 -0.3140  0.2022
   39POPC   C32 5214   4.200   1.297   7.043 -0.0491 -1.0976 -0.1500
   39POPC   H2X 5215   4.216   1.398   7.087 -0.3231 -1.7147  1.4248
   39POPC   H2Y 5216   4.093   1.275   7.023  0.0596 -1.9335  0.1628
   39POPC   C23 5217   4.063   1.731   6.682 -0.2465  0.3815  0.0659
   39POPC   H3R 5218   4.000   1.822   6.674 -1.2894 -0.2834  0.5140
   39POPC   H3S 5219   4.171   1.758   6.676  0.8880 -3.4649  0.3731
   39POPC   C24 5220   4.021   1.672   6.821  0.1571 -0.4681 -0.2972
   39POPC   H4R 5221   4.077   1.578   6.842  1.2353  0.3617  0.7035
   39POPC   H4S 5222   3.913   1.650   6.830 -0.0125  0.4993  0.2039
   39POPC   C25 5223   4.046   1.771   6.940 -0.4919  0.2660  0.3003
   39POPC   H5R 5224   4.040   1.877   6.910  0.7306  0.6695  1.4170
   39POPC   H5S 5225   4.154   1.755   6.959  0.2101  0.2353 -3.1038
   39POPC   C26 5226   3.959   1.739   7.061 -0.3442 -0.0427  0.8300
   39POPC   H6R 5227   3.976   1.631   7.080  2.7531  0.4647  1.3925
   39POPC   H6S 5228   3.853   1.757   7.033 -0.2112 -2.7989 -1.8997
   39POPC   C27 5229   4.000   1.823   7.187 -0.6900 -0.2082  0.1484
   39POPC   H7R 5230   3.946   1.790   7.278  0.0910 -1.1470  0.2897
   39POPC   H7S 5231   3.966   1.926   7.165  2.1090  0.7230 -0.1659
   39POPC   C28 5232   4.156   1.833   7.225  0.5825  0.3938 -0.0611
   39POPC   H8R 5233   4.154   1.907   7.308  1.6913  1.8299 -1.2715
   39POPC   H8S 5234   4.218   1.874   7.143  1.0684 -0.1382  0.0228
   39POPC   C29 5235   4.213   1.695   7.272 -0.3900 -1.1737  0.9191
   39POPC   H91 5236   4.208   1.609   7.204 -0.4118 -1.1290  0.8636
   39POPC  C210 5237   4.285   1.682   7.387 -0.2382  0.0828  1.0320
   39POPC  H101 5238   4.317   1.578   7.402 -0.8723 -0.3084 -0.1403
   39POPC  C211 5239   4.315   1.790   7.490  0.2765  0.3797 -0.0634
   39POPC  H11R 5240   4.215   1.830   7.519  0.0411 -0.1215 -0.1721
   39POPC  H11S 5241   4.365   1.873   7.435 -0.7984  0.3941 -1.0871
   39POPC  C212 5242   4.384   1.727   7.617  0.3357 -0.4893  0.2390
   39POPC  H12R 5243   4.483   1.689   7.583 -0.4813 -1.4143 -1.2083
   39POPC  H12S 5244   4.326   1.648   7.669  0.1965 -0.3260  0.3325
   39POPC  C213 5245   4.413   1.842   7.717 -0.2934 -0.6562 -0.7191
   39POPC  H13R 5246   4.443   1.806   7.818  0.0654 -1.1454 -0.9996
   39POPC  H13S 5247   4.316   1.887   7.745 -0.2019  0.2854 -1.8535
   39POPC  C214 5248   4.510   1.959   7.667  0.4080  0.1435  0.0945
   39POPC  H14R 5249   4.463   2.019   7.586 -2.6050 -3.3173 -0.9606
   39POPC  H14S 5250   4.613   1.928   7.642 -0.0607  0.5994 -2.7200
   39POPC  C215 5251   4.532   2.068   7.778  0.0773  0.1504  0.0327
   39POPC  H15R 5252   4.573   2.026   7.873  1.3108 -0.6496 -0.8101
   39POPC  H15S 5253   4.430   2.107   7.797 -0.2843 -0.8588  0.2321
   39POPC  C216 5254   4.614   2.186   7.728  0.0086  0.0412 -0.0161
   39POPC  H16R 5255   4.573   2.220   7.630  0.6970  1.4643  0.1651
   39POPC  H16S 5256   4.719   2.155   7.713  0.0279  0.6093 -1.2091
   39POPC  C217 5257   4.599   2.300   7.829 -0.4663 -0.1133  0.2089
   39POPC  H17R 5258   4.639   2.267   7.927 -2.0201 -1.8486  0.2980
   39POPC  H17S 5259   4.493   2.320   7.855 -1.1150 -3.5318  0.6586
   39POPC  C218 5260   4.678   2.431   7.796  0.6746 -0.0224  0.3565
   39POPC  H18R 5261   4.665   2.516   7.866 -0.9911  1.2570 -1.3798
   39POPC  H18S 5262   4.642   2.460   7.695  1.0980 -0.5841  0.0388
   39POPC  H18T 5263   4.785   2.403   7.780  0.7157  0.5819 -0.5728
   39POPC   C33 5264   4.246   1.205   7.154  0.6378  0.0860 -0.1584
   39POPC   H3X 5265   4.240   1.102   7.112  2.5477  0.5737 -1.8117
   39POPC   H3Y 5266   4.164   1.208   7.228 -0.6289  0.9607 -1.5336
   39POPC   C34 5267   4.390   1.227   7.213 -0.3887  0.0536  0.2193
   39POPC   H4X 5268   4.385   1.337   7.228 -3.3154  0.1880 -1.0545
   39POPC   H4Y 5269   4.477   1.207   7.148  0.0330  1.3648  0.3506
   39POPC   C35 5270   4.404   1.160   7.348  0.3723  0.4515  0.1971
   39POPC   H5X 5271   4.413   1.051   7.328 -4.3281  0.0707 -1.1664
   39POPC   H5Y 5272   4.313   1.176   7.409 -0.7960  1.4201 -1.6833
   39POPC   C36 5273   4.523   1.217   7.428 -0.1610  0.2286 -0.2401
   39POPC   H6X 5274   4.518   1.327   7.447  2.2602  0.7010 -1.8627
   39POPC   H6Y 5275   4.614   1.188   7.370 -0.2094 -2.8702  1.0905
   39POPC   C37 5276   4.520   1.148   7.571 -0.7672 -0.0806 -0.0527
   39POPC   H7X 5277   4.538   1.041   7.549 -1.3966 -0.4909  1.3219
   39POPC   H7Y 5278   4.423   1.173   7.619 -0.7494 -0.5072  0.2074
   39POPC   C38 5279   4.631   1.185   7.669  0.3570 -0.2720  0.5844
   39POPC   H8X 5280   4.623   1.291   7.700  3.3523 -0.4020  2.1986
   39POPC   H8Y 5281   4.734   1.184   7.626  0.3748 -0.7982  0.6291
   39POPC   C39 5282   4.637   1.097   7.791 -0.3288  0.0854  0.6193
   39POPC   H9X 5283   4.745   1.098   7.816 -0.4633 -0.2318  1.2119
   39POPC   H9Y 5284   4.608   0.995   7.759 -2.9631  1.3814 -1.6812
   39POPC  C310 5285   4.533   1.152   7.895 -0.9931  0.5351 -0.7639
   39POPC  H10X 5286   4.429   1.131   7.861 -1.8165 -0.1177  1.9066
   39POPC  H10Y 5287   4.541   1.263   7.894 -2.6350  0.6711 -1.0156
   39POPC  C311 5288   4.557   1.091   8.033 -0.4212 -0.0117 -0.0688
   39POPC  H11X 5289   4.558   0.980   8.022  2.1247 -0.4233  2.8408
   39POPC  H11Y 5290   4.475   1.125   8.100  1.3415  1.8227  1.2654
   39POPC  C312 5291   4.687   1.129   8.097 -0.1083 -0.3257  0.1239
   39POPC  H12X 5292   4.690   1.238   8.116  3.0376 -0.1795 -0.6931
   39POPC  H12Y 5293   4.773   1.112   8.029  0.5846 -2.3666  1.4000
   39POPC  C313 5294   4.704   1.056   8.225  0.5605  0.0550  0.3567
   39POPC  H13X 5295   4.719   0.950   8.194  0.5683  0.0203  0.4783
   39POPC  H13Y 5296   4.614   1.063   8.289  0.4606  0.5870  0.1685
   39POPC  C314 5297   4.821   1.094   8.316 -0.3777 -0.1401  0.6075
   39POPC  H14X 5298   4.809   1.202   8.339 -0.7894 -0.2284  0.8145
   39POPC  H14Y 5299   4.921   1.105   8.268 -0.0553  0.3078  1.3577
   39POPC  C315 5300   4.850   1.010   8.440 -0.0175  0.2577  0.0716
   39POPC  H15X 5301   4.872   0.907   8.404 -1.7013 -0.8157  1.9053
   39POPC  H15Y 5302   4.765   1.003   8.511 -1.0034  0.5497 -1.0692
   39POPC  C316 5303   4.977   1.066   8.517 -0.4377  0.2631  0.0858
   39POPC  H16X 5304   5.057   1.088   8.442  0.5469  0.6238  1.2069
   39POPC  H16Y 5305   5.009   0.995   8.596  0.4957  2.1933  1.5325
   39POPC  H16Z 5306   4.944   1.162   8.562 -1.9897 -0.9695  1.6888
   40POPC     N 5307   4.470   5.357   5.880 -0.7485  0.2450 -0.2492
   40POPC   C12 5308   4.562   5.300   5.987  0.5559 -0.4546 -0.1765
   40POPC  H12A 5309   4.655   5.355   5.977  0.2788 -0.0295 -0.4522
   40POPC  H12B 5310   4.585   5.196   5.969  0.0195 -1.0417  2.1419
   40POPC   C13 5311   4.530   5.353   5.744 -0.2668 -0.1531 -0.5916
   40POPC  H13A 5312   4.625   5.405   5.736  0.1737 -0.9118 -0.3936
   40POPC  H13B 5313   4.552   5.251   5.717 -0.4056  0.0448 -1.4729
   40POPC  H13C 5314   4.471   5.400   5.667 -0.0767 -0.2952 -0.8255
   40POPC   C14 5315   4.339   5.284   5.874 -0.4312  0.0962  0.1038
   40POPC  H14A 5316   4.272   5.341   5.811  0.8247  1.3441 -0.1383
   40POPC  H14B 5317   4.338   5.182   5.839  0.5600 -0.4560  1.5725
   40POPC  H14C 5318   4.304   5.278   5.977  1.7884 -1.1130  0.8492
   40POPC   C15 5319   4.441   5.498   5.912  0.0791  0.0434 -0.3161
   40POPC  H15A 5320   4.389   5.519   6.004 -0.6707  3.7054 -1.3906
   40POPC  H15B 5321   4.372   5.538   5.839 -0.0666  1.9157  0.7855
   40POPC  H15C 5322   4.535   5.551   5.915 -0.4882  1.0280  0.5458
   40POPC   C11 5323   4.518   5.308   6.135 -0.3942 -1.5555  0.2640
   40POPC  H11A 5324   4.565   5.230   6.199  1.0515  0.6799  2.1279
   40POPC  H11B 5325   4.412   5.278   6.143 -0.4990 -2.1220 -2.3154
   40POPC     P 5326   4.447   5.524   6.282 -0.0861 -0.1751  0.0807
   40POPC   O13 5327   4.329   5.564   6.207  0.5972  0.7423  0.7773
   40POPC   O14 5328   4.522   5.635   6.352 -0.8106  0.1486  0.0999
   40POPC   O12 5329   4.541   5.441   6.187  0.2831 -0.7538 -0.1300
   40POPC   O11 5330   4.405   5.415   6.390  0.0363 -0.3050  1.0835
   40POPC    C1 5331   4.501   5.333   6.451 -0.5926 -0.2725  0.0039
   40POPC    HA 5332   4.606   5.354   6.424 -0.2106  0.8692  2.1542
   40POPC    HB 5333   4.479   5.227   6.427 -1.4563  0.1035 -1.0164
   40POPC    C2 5334   4.506   5.359   6.604  0.6782  0.3365 -0.2392
   40POPC    HS 5335   4.590   5.301   6.649 -1.5998 -1.6768  1.7498
   40POPC   O21 5336   4.381   5.318   6.666  0.2720 -0.3799 -0.3701
   40POPC   C21 5337   4.382   5.203   6.711 -0.0799  0.6476 -0.6634
   40POPC   O22 5338   4.481   5.125   6.712  0.7112  0.0426  0.1872
   40POPC   C22 5339   4.244   5.165   6.762 -0.2565  0.6704  0.2175
   40POPC   H2R 5340   4.190   5.108   6.683  0.3223  1.5802 -0.8656
   40POPC   H2S 5341   4.178   5.249   6.793  1.5902  0.9534  3.8720
   40POPC    C3 5342   4.518   5.509   6.642  0.3824  0.5670  0.4047
   40POPC    HX 5343   4.437   5.554   6.581 -0.7991 -1.9145  0.0228
   40POPC    HY 5344   4.616   5.541   6.602 -0.5747  3.1126 -0.1252
   40POPC   O31 5345   4.500   5.533   6.778 -0.2475  0.1495  0.0552
   40POPC   C31 5346   4.472   5.666   6.804  0.3029  0.4343  0.1476
   40POPC   O32 5347   4.456   5.748   6.713  0.0900  0.0886 -0.1151
   40POPC   C32 5348   4.485   5.684   6.952 -0.5415  0.5601 -0.3734
   40POPC   H2X 5349   4.584   5.646   6.986  0.4419  2.7285 -0.6043
   40POPC   H2Y 5350   4.420   5.617   7.012  1.1230  1.2160  2.3573
   40POPC   C23 5351   4.254   5.065   6.889  0.5624 -0.3611  0.2377
   40POPC   H3R 5352   4.338   4.995   6.871  1.6154 -0.2809  3.9475
   40POPC   H3S 5353   4.158   5.012   6.908  1.3998 -1.7475  0.7290
   40POPC   C24 5354   4.251   5.155   7.018 -0.5990  0.3179  0.2189
   40POPC   H4R 5355   4.239   5.082   7.101 -2.7755 -0.7165 -0.9238
   40POPC   H4S 5356   4.159   5.217   7.017 -1.0296 -0.1725  2.7748
   40POPC   C25 5357   4.375   5.244   7.035 -0.5130  0.4070 -0.3320
   40POPC   H5R 5358   4.380   5.327   6.962  0.7992 -1.2508 -2.2066
   40POPC   H5S 5359   4.466   5.185   7.013 -0.7061 -0.5318  1.2137
   40POPC   C26 5360   4.409   5.304   7.181  0.4531 -0.5159  0.1970
   40POPC   H6R 5361   4.416   5.215   7.247 -3.4672 -3.3051 -2.6494
   40POPC   H6S 5362   4.330   5.375   7.213 -0.0286 -0.9466 -0.0343
   40POPC   C27 5363   4.536   5.381   7.193  0.0532  0.7531 -0.3327
   40POPC   H7R 5364   4.548   5.434   7.096 -2.0818  1.2212 -0.4042
   40POPC   H7S 5365   4.625   5.314   7.188 -1.3519 -1.1190 -2.6668
   40POPC   C28 5366   4.547   5.487   7.299 -0.0427  0.4130  0.0459
   40POPC   H8R 5367   4.453   5.543   7.314 -0.5178 -0.4166  0.2691
   40POPC   H8S 5368   4.635   5.552   7.281 -0.6085  1.2849  0.3990
   40POPC   C29 5369   4.573   5.417   7.430  0.1966 -0.5065  0.3480
   40POPC   H91 5370   4.626   5.321   7.422 -2.6134 -2.1115 -0.6087
   40POPC  C210 5371   4.523   5.443   7.555 -0.3621 -0.4984 -0.3654
   40POPC  H101 5372   4.559   5.388   7.643  0.1534 -2.8003 -1.9110
   40POPC  C211 5373   4.436   5.554   7.597  0.0847  0.0939  0.2147
   40POPC  H11R 5374   4.335   5.508   7.594 -0.2238  0.4971  2.2519
   40POPC  H11S 5375   4.435   5.631   7.517  0.0157  0.7346  0.8217
   40POPC  C212 5376   4.473   5.626   7.724 -0.3187 -0.8302  0.7807
   40POPC  H12R 5377   4.409   5.716   7.725  2.8899  1.6406  0.8923
   40POPC  H12S 5378   4.577   5.666   7.717  0.4560 -2.6681  1.0585
   40POPC  C213 5379   4.459   5.550   7.852 -0.2039 -0.2145  0.4683
   40POPC  H13R 5380   4.432   5.444   7.837  0.4595 -0.8033  2.9530
   40POPC  H13S 5381   4.368   5.585   7.906 -1.0354 -2.6005  0.7324
   40POPC  C214 5382   4.586   5.569   7.929 -0.2460 -0.0705 -0.3605
   40POPC  H14R 5383   4.606   5.677   7.947 -0.1929  0.1951 -1.8624
   40POPC  H14S 5384   4.668   5.551   7.856  0.7120  0.4402  0.5566
   40POPC  C215 5385   4.596   5.494   8.062 -0.2038 -0.6984  0.0598
   40POPC  H15R 5386   4.695   5.496   8.112 -0.5918 -1.2659  0.8675
   40POPC  H15S 5387   4.576   5.388   8.036  0.3912 -0.4797 -1.4197
   40POPC  C216 5388   4.494   5.533   8.162  0.0856  0.2510  0.4565
   40POPC  H16R 5389   4.489   5.471   8.255 -4.2071 -0.5738 -0.1006
   40POPC  H16S 5390   4.392   5.526   8.119 -0.3053 -1.1656  1.5227
   40POPC  C217 5391   4.513   5.680   8.206  0.3859  1.1377  0.1001
   40POPC  H17R 5392   4.509   5.751   8.121  2.5645 -0.6059 -1.6086
   40POPC  H17S 5393   4.615   5.676   8.249  0.3591 -1.5028  0.1386
   40POPC  C218 5394   4.418   5.715   8.317  0.4414  0.2854  0.3755
   40POPC  H18R 5395   4.422   5.643   8.402 -1.5124 -0.5828 -0.1938
   40POPC  H18S 5396   4.317   5.701   8.272  0.2923 -0.3324  0.8799
   40POPC  H18T 5397   4.444   5.818   8.349  1.5235 -0.0455  0.5906
   40POPC   C33 5398   4.468   5.831   6.993 -0.1653 -0.4864 -0.1017
   40POPC   H3X 5399   4.376   5.868   6.944 -0.8411 -4.1016 -1.9554
   40POPC   H3Y 5400   4.554   5.893   6.959  0.0097  0.1399  1.4048
   40POPC   C34 5401   4.457   5.849   7.145 -0.7884 -0.0812  0.5233
   40POPC   H4X 5402   4.396   5.771   7.196 -0.9941  1.6171  3.0363
   40POPC   H4Y 5403   4.419   5.952   7.159 -2.6389 -0.2179 -2.5140
   40POPC   C35 5404   4.595   5.849   7.214  0.3405 -0.1263 -0.3965
   40POPC   H5X 5405   4.674   5.903   7.158  0.3533 -0.5081 -0.7510
   40POPC   H5Y 5406   4.622   5.742   7.210  0.5050 -0.0454 -2.2684
   40POPC   C36 5407   4.583   5.912   7.352 -0.0341 -0.1299 -0.5333
   40POPC   H6X 5408   4.664   5.881   7.422  0.1825 -0.2960 -0.8562
   40POPC   H6Y 5409   4.483   5.888   7.395 -0.6290  0.0076 -1.7926
   40POPC   C37 5410   4.611   6.064   7.357 -0.8249 -0.0310 -0.3249
   40POPC   H7X 5411   4.511   6.102   7.331 -0.7782 -0.4147 -1.0851
   40POPC   H7Y 5412   4.683   6.105   7.283 -0.5622  0.1649  0.0368
   40POPC   C38 5413   4.656   6.109   7.495 -0.2311  0.4000  0.3122
   40POPC   H8X 5414   4.663   6.220   7.500  1.3741  0.4785 -2.0103
   40POPC   H8Y 5415   4.751   6.062   7.528 -0.2564  1.4387  1.9377
   40POPC   C39 5416   4.545   6.071   7.606 -0.3196  0.0501  0.0636
   40POPC   H9X 5417   4.529   5.961   7.600 -0.1537  0.0195  0.1637
   40POPC   H9Y 5418   4.457   6.131   7.575 -0.0213 -0.5479 -2.1155
   40POPC  C310 5419   4.595   6.101   7.747 -0.1214  0.2831  0.0099
   40POPC  H10X 5420   4.564   6.202   7.782 -1.3141 -0.6705  1.8598
   40POPC  H10Y 5421   4.706   6.108   7.741 -0.0834  2.7701  1.8450
   40POPC  C311 5422   4.553   5.993   7.847  0.8435  0.5048 -0.0360
   40POPC  H11X 5423   4.606   6.013   7.943 -1.5940  4.0308  0.7576
   40POPC  H11Y 5424   4.586   5.890   7.823 -2.8235 -0.5626 -1.1228
   40POPC  C312 5425   4.399   5.985   7.880  1.1344  0.1412  0.4599
   40POPC  H12X 5426   4.372   5.920   7.965 -0.3851 -0.3441 -0.3572
   40POPC  H12Y 5427   4.347   5.944   7.791  1.7822 -1.6292  0.8405
   40POPC  C313 5428   4.341   6.119   7.922  0.1709 -0.1902 -0.6124
   40POPC  H13X 5429   4.236   6.089   7.944 -0.1165  1.1018 -0.1308
   40POPC  H13Y 5430   4.339   6.196   7.842 -1.5489  2.1424  1.4988
   40POPC  C314 5431   4.395   6.155   8.055 -0.5535 -0.8458 -0.4654
   40POPC  H14X 5432   4.505   6.160   8.048 -0.5033 -0.2704  0.4813
   40POPC  H14Y 5433   4.371   6.079   8.133 -3.3764  0.7806  0.3813
   40POPC  C315 5434   4.343   6.295   8.107 -0.2098  0.2687 -0.1848
   40POPC  H15X 5435   4.233   6.305   8.098 -0.1168  1.4295 -0.1102
   40POPC  H15Y 5436   4.382   6.358   8.024  0.4400 -1.3247 -1.1450
   40POPC  C316 5437   4.397   6.348   8.237 -0.1186  0.0339 -0.2470
   40POPC  H16X 5438   4.507   6.356   8.231  0.1292 -1.1309  1.7675
   40POPC  H16Y 5439   4.398   6.271   8.317  0.2585  0.3614  0.0726
   40POPC  H16Z 5440   4.350   6.445   8.265 -0.3685 -0.2575  0.3514
   41CHL1    C3 5441   4.071   3.574   9.993  0.1385  0.1559  0.4112
   41CHL1    H3 5442   4.161   3.637  10.007  0.6768 -0.1672 -1.3460
   41CHL1    O3 5443   4.037   3.517  10.115  0.5767  0.3992 -0.4350
   41CHL1   H3' 5444   3.955   3.469  10.103  0.4935  0.5052 -0.3029
   41CHL1    C4 5445   3.952   3.665   9.940 -0.3190 -0.5999 -0.7935
   41CHL1   H4A 5446   3.859   3.609   9.917 -1.0869  0.4933 -0.4049
   41CHL1   H4B 5447   3.926   3.731  10.025  1.1052 -5.2815  3.8181
   41CHL1    C5 5448   3.992   3.728   9.809 -0.4655 -1.6190 -0.5574
   41CHL1    C6 5449   4.008   3.866   9.804  0.4859  0.5494  0.0430
   41CHL1    H6 5450   3.971   3.921   9.892 -3.2973 -0.1296 -0.9195
   41CHL1    C7 5451   4.068   3.936   9.690  0.2645 -0.1207 -0.8453
   41CHL1   H7A 5452   4.011   4.031   9.676  0.5785  0.2984  0.6198
   41CHL1   H7B 5453   4.171   3.969   9.713  0.0002 -0.4197  0.8618
   41CHL1    C8 5454   4.066   3.850   9.560 -0.0057 -0.5119 -0.0182
   41CHL1    H8 5455   3.959   3.838   9.533  0.2838 -0.2607 -1.3340
   41CHL1   C14 5456   4.130   3.914   9.437 -0.3895  0.0466 -0.2495
   41CHL1   H14 5457   4.235   3.928   9.469 -0.0188 -1.1360 -0.8796
   41CHL1   C15 5458   4.074   4.050   9.391  0.8039  0.1915 -0.0672
   41CHL1  H15A 5459   3.964   4.054   9.379  0.5205 -2.4848  0.9651
   41CHL1  H15B 5460   4.097   4.135   9.459  1.3601  2.5946 -3.0484
   41CHL1   C16 5461   4.140   4.074   9.256  0.4457  1.0262 -0.1987
   41CHL1  H16A 5462   4.086   4.124   9.172 -0.4760 -1.2047 -1.0299
   41CHL1  H16B 5463   4.230   4.136   9.272  0.5481  1.0777 -0.9356
   41CHL1   C17 5464   4.189   3.929   9.207  0.6168 -0.0226 -0.2986
   41CHL1   H17 5465   4.295   3.927   9.238  0.1800 -1.3732  1.2672
   41CHL1   C13 5466   4.129   3.830   9.307  0.1712 -0.4705 -0.5533
   41CHL1   C18 5467   3.982   3.798   9.266  0.1978  0.0617 -1.1280
   41CHL1  H18A 5468   3.933   3.889   9.225 -1.3993 -0.1888  0.1140
   41CHL1  H18B 5469   3.984   3.721   9.187 -1.4042 -2.6039  1.2260
   41CHL1  H18C 5470   3.931   3.747   9.351 -1.0256 -1.4670 -2.7068
   41CHL1   C12 5471   4.207   3.708   9.340 -0.1579  0.3992  0.3350
   41CHL1  H12A 5472   4.232   3.643   9.253  0.5352 -0.8222  1.4096
   41CHL1  H12B 5473   4.309   3.727   9.380 -0.2140 -1.1537  1.3077
   41CHL1   C11 5474   4.140   3.630   9.452 -0.1210  0.7458 -0.5456
   41CHL1  H11A 5475   4.041   3.591   9.420 -0.3340 -0.0652  1.0203
   41CHL1  H11B 5476   4.186   3.531   9.473 -1.4057  0.0797 -0.7856
   41CHL1    C9 5477   4.121   3.713   9.583  0.2577  0.5464 -0.8119
   41CHL1    H9 5478   4.226   3.733   9.614  0.4288  1.1249 -1.7123
   41CHL1   C10 5479   4.041   3.632   9.695 -0.4329  0.1100 -0.3986
   41CHL1   C19 5480   3.918   3.562   9.629 -0.6137 -0.5472 -0.7889
   41CHL1  H19A 5481   3.852   3.522   9.708 -1.8943  0.7954 -1.1177
   41CHL1  H19B 5482   3.854   3.614   9.554  0.8686  1.6279 -0.6390
   41CHL1  H19C 5483   3.948   3.464   9.585 -1.3670 -0.4100 -1.6413
   41CHL1    C1 5484   4.137   3.526   9.747 -0.7925 -0.3353 -0.2241
   41CHL1   H1A 5485   4.158   3.441   9.679  0.4030 -2.6927  2.8086
   41CHL1   H1B 5486   4.231   3.579   9.775 -1.5523  0.3378  1.1639
   41CHL1    C2 5487   4.095   3.464   9.883 -0.0776 -0.1188  0.7879
   41CHL1   H2A 5488   4.181   3.405   9.922 -0.8127 -1.4618  0.4349
   41CHL1   H2B 5489   4.008   3.399   9.860  1.2303 -1.0486 -1.9411
   41CHL1   C20 5490   4.167   3.906   9.055  0.1145 -0.2106 -0.5289
   41CHL1   H20 5491   4.059   3.904   9.032 -0.4073  2.0735  1.3263
   41CHL1   C21 5492   4.208   3.761   9.012 -0.1239 -0.1082  0.0245
   41CHL1  H21A 5493   4.159   3.690   9.082 -0.5452  1.3332  1.2691
   41CHL1  H21B 5494   4.317   3.740   9.009  0.1115  1.0510  0.0710
   41CHL1  H21C 5495   4.165   3.733   8.914 -0.8350 -1.2111  0.6371
   41CHL1   C22 5496   4.243   4.008   8.971 -0.1885 -0.8072 -0.3532
   41CHL1  H22A 5497   4.201   4.109   8.990  1.0154  0.3732 -3.3218
   41CHL1  H22B 5498   4.348   4.014   9.009 -0.0945 -1.2805 -0.5426
   41CHL1   C23 5499   4.252   3.992   8.817  1.1092 -0.3986  0.2835
   41CHL1  H23A 5500   4.316   4.071   8.772 -0.1532 -1.2175 -3.2682
   41CHL1  H23B 5501   4.300   3.894   8.794  0.4351 -0.4408 -1.0579
   41CHL1   C24 5502   4.120   4.005   8.739 -0.7638 -0.4837 -0.1023
   41CHL1  H24A 5503   4.036   3.948   8.784 -1.4300  0.3987 -0.1911
   41CHL1  H24B 5504   4.078   4.108   8.750 -2.8643 -1.3849  0.8523
   41CHL1   C25 5505   4.123   3.974   8.587  0.4921 -0.2365  0.0337
   41CHL1   H25 5506   4.030   4.025   8.554  0.4670  0.4470  1.1115
   41CHL1   C26 5507   4.244   4.050   8.515 -0.3919  0.5475 -0.3658
   41CHL1  H26A 5508   4.255   4.154   8.552 -1.2364  0.1539  1.0584
   41CHL1  H26B 5509   4.333   3.988   8.541  0.8465  1.4929 -2.1441
   41CHL1  H26C 5510   4.221   4.049   8.406 -0.1254  1.3606 -0.4325
   41CHL1   C27 5511   4.122   3.818   8.555  0.1946 -1.2253 -0.3075
   41CHL1  H27A 5512   4.207   3.763   8.601  1.1770  0.2774 -0.2566
   41CHL1  H27B 5513   4.028   3.765   8.582 -0.7544  0.2915 -0.4716
   41CHL1  H27C 5514   4.128   3.805   8.445 -0.8025 -0.2635 -0.4942
   42CHL1    C3 5515   2.862   0.339   9.911 -0.7667 -0.4842  0.2090
   42CHL1    H3 5516   2.831   0.443   9.890 -0.6672 -0.7095 -1.1361
   42CHL1    O3 5517   2.856   0.327  10.055 -0.2919 -0.8313  0.0826
   42CHL1   H3' 5518   2.927   0.264  10.070 -1.1460 -1.3656  2.3473
   42CHL1    C4 5519   2.771   0.242   9.842 -0.4272  0.1250 -0.0456
   42CHL1   H4A 5520   2.785   0.143   9.889 -1.9704  0.2200  0.6717
   42CHL1   H4B 5521   2.677   0.282   9.884 -0.0191  0.1972  0.8181
   42CHL1    C5 5522   2.788   0.242   9.692  0.7621  0.5850 -0.1215
   42CHL1    C6 5523   2.684   0.264   9.603 -0.1561  0.0691  0.0828
   42CHL1    H6 5524   2.582   0.256   9.644  0.5772 -1.6464  1.7231
   42CHL1    C7 5525   2.686   0.270   9.455  0.2642  0.0510 -0.0712
   42CHL1   H7A 5526   2.625   0.201   9.393  1.5652 -0.4805 -0.8128
   42CHL1   H7B 5527   2.655   0.373   9.427 -0.7765 -0.2025  0.1029
   42CHL1    C8 5528   2.825   0.228   9.396 -0.1570  0.8428 -0.1139
   42CHL1    H8 5529   2.814   0.119   9.413 -4.0970  1.0120 -0.7918
   42CHL1   C14 5530   2.844   0.262   9.251  0.7363 -0.2622  0.0354
   42CHL1   H14 5531   2.849   0.373   9.260 -1.1441 -0.2390  1.2621
   42CHL1   C15 5532   2.733   0.233   9.149 -0.8184  0.2154  0.6280
   42CHL1  H15A 5533   2.702   0.129   9.170  0.0612  0.1088  1.4558
   42CHL1  H15B 5534   2.644   0.297   9.172 -0.6700  0.4741  0.4948
   42CHL1   C16 5535   2.809   0.266   9.023 -0.5417  0.5194 -0.4825
   42CHL1  H16A 5536   2.787   0.190   8.945 -1.1565 -0.0273  0.2233
   42CHL1  H16B 5537   2.777   0.362   8.976 -0.3342  0.9785  0.3057
   42CHL1   C17 5538   2.965   0.256   9.049 -0.1472  0.0310 -0.1644
   42CHL1   H17 5539   3.006   0.359   9.041  1.1797 -0.4024  0.6885
   42CHL1   C13 5540   2.969   0.216   9.194  0.3214 -0.0349  0.5706
   42CHL1   C18 5541   2.978   0.067   9.214 -0.5580  0.2704 -0.2956
   42CHL1  H18A 5542   2.953   0.030   9.316 -0.2175  2.6717  0.7119
   42CHL1  H18B 5543   2.915   0.025   9.132 -0.7814 -0.2068  0.1095
   42CHL1  H18C 5544   3.077   0.023   9.191 -0.5207  0.4199 -0.4215
   42CHL1   C12 5545   3.085   0.277   9.280  1.5106 -0.1794  0.0589
   42CHL1  H12A 5546   3.190   0.251   9.253  2.7271  1.0142  3.1466
   42CHL1  H12B 5547   3.081   0.387   9.268  0.4697 -0.1890  0.2064
   42CHL1   C11 5548   3.083   0.235   9.432  0.3840  0.2192 -0.2862
   42CHL1  H11A 5549   3.105   0.127   9.443  0.4898  0.4072  1.7001
   42CHL1  H11B 5550   3.166   0.286   9.484  1.5630 -1.1843 -0.7313
   42CHL1    C9 5551   2.939   0.278   9.487  0.1251 -0.3312 -0.1497
   42CHL1    H9 5552   2.934   0.389   9.481  2.4791 -0.1826 -0.4082
   42CHL1   C10 5553   2.928   0.247   9.641 -0.3004 -0.2444 -0.0048
   42CHL1   C19 5554   2.994   0.104   9.663  0.5947 -0.0830  0.2613
   42CHL1  H19A 5555   2.964   0.063   9.761  1.5554 -2.7431 -0.4727
   42CHL1  H19B 5556   2.956   0.041   9.579  0.7197  1.3048 -0.8736
   42CHL1  H19C 5557   3.104   0.089   9.657  0.4611 -1.8633  1.5615
   42CHL1    C1 5558   3.010   0.350   9.715 -0.2828  0.3038 -0.4952
   42CHL1   H1A 5559   3.114   0.370   9.682  0.1283  0.7986  0.9875
   42CHL1   H1B 5560   2.969   0.451   9.693 -0.2585  0.0944 -1.5299
   42CHL1    C2 5561   3.010   0.333   9.865 -0.0583 -0.3248 -0.0368
   42CHL1   H2A 5562   3.068   0.413   9.914 -0.0971 -0.1090 -0.3387
   42CHL1   H2B 5563   3.061   0.240   9.899  2.1645  0.3080 -1.4100
   42CHL1   C20 5564   3.042   0.168   8.952 -0.0336  0.4692  0.3263
   42CHL1   H20 5565   3.017   0.060   8.961 -3.3000  1.2973  2.7939
   42CHL1   C21 5566   3.199   0.177   8.975  0.5868 -0.6107 -0.8164
   42CHL1  H21A 5567   3.214   0.285   8.995 -1.0213  0.3995 -4.1517
   42CHL1  H21B 5568   3.256   0.153   8.883  0.3054  3.0926 -2.1190
   42CHL1  H21C 5569   3.228   0.107   9.056 -2.1439  0.2939  1.0771
   42CHL1   C22 5570   3.013   0.206   8.807  0.3691  0.5069  0.1811
   42CHL1  H22A 5571   3.070   0.138   8.740 -0.4516 -1.2682  1.2107
   42CHL1  H22B 5572   2.912   0.170   8.780 -0.1203  0.6448  1.7130
   42CHL1   C23 5573   3.029   0.354   8.762 -0.3712 -1.0692 -0.1853
   42CHL1  H23A 5574   2.936   0.414   8.777  0.6372  0.1319  1.5029
   42CHL1  H23B 5575   3.113   0.410   8.807 -1.1146  1.1355 -1.3900
   42CHL1   C24 5576   3.063   0.363   8.609  0.7428  0.1948  0.1806
   42CHL1  H24A 5577   3.161   0.311   8.593  1.8303  1.8206  1.2861
   42CHL1  H24B 5578   2.994   0.291   8.561  3.1808 -2.2147  0.0137
   42CHL1   C25 5579   3.082   0.506   8.551  0.7359  0.0363  0.1568
   42CHL1   H25 5580   3.156   0.548   8.622  1.1919 -0.6025  0.0596
   42CHL1   C26 5581   3.146   0.516   8.414 -0.1243 -0.8209 -0.1685
   42CHL1  H26A 5582   3.244   0.464   8.401  0.2887 -0.0397 -0.2342
   42CHL1  H26B 5583   3.085   0.472   8.332  1.3649 -2.1410 -0.6322
   42CHL1  H26C 5584   3.147   0.622   8.381 -1.7009 -0.1200  1.8595
   42CHL1   C27 5585   2.954   0.596   8.551  0.4695 -0.4056  0.4816
   42CHL1  H27A 5586   2.894   0.585   8.644 -0.6961  0.0185 -0.1889
   42CHL1  H27B 5587   2.976   0.703   8.529 -0.1765 -0.3759 -0.0420
   42CHL1  H27C 5588   2.892   0.558   8.467 -1.0139  1.9810  0.3876
   43CHL1    C3 5589   2.863   0.880   9.812  0.5785  0.3113 -0.3349
   43CHL1    H3 5590   2.768   0.915   9.767  0.3932  1.0509  0.6129
   43CHL1    O3 5591   2.850   0.877   9.956 -0.5903 -0.8996  0.2858
   43CHL1   H3' 5592   2.811   0.959   9.985  0.4143 -0.2830 -0.0551
   43CHL1    C4 5593   2.909   0.743   9.760  0.3585  0.5664 -0.6120
   43CHL1   H4A 5594   2.993   0.711   9.826 -0.3215  0.2013  0.0979
   43CHL1   H4B 5595   2.829   0.668   9.780  2.0222 -1.5237 -1.4187
   43CHL1    C5 5596   2.922   0.747   9.613  0.2280 -0.3561  0.0427
   43CHL1    C6 5597   2.852   0.669   9.530  0.3835  0.4992  0.4799
   43CHL1    H6 5598   2.776   0.600   9.571 -1.1384  2.0758  0.4557
   43CHL1    C7 5599   2.865   0.671   9.379  0.3095  0.1828  0.2221
   43CHL1   H7A 5600   2.856   0.572   9.330 -3.2283  1.5721 -2.3250
   43CHL1   H7B 5601   2.780   0.730   9.339  0.0669 -1.3399 -1.6299
   43CHL1    C8 5602   3.004   0.731   9.339  0.6992 -0.0849 -0.5786
   43CHL1    H8 5603   3.084   0.657   9.358 -0.4784 -1.0599  0.7087
   43CHL1   C14 5604   2.992   0.764   9.193 -1.2070  0.4584 -0.5137
   43CHL1   H14 5605   2.899   0.825   9.183 -1.6654 -0.1559 -0.0510
   43CHL1   C15 5606   2.946   0.651   9.091 -0.3513  1.0078  0.6626
   43CHL1  H15A 5607   3.004   0.560   9.117 -1.2004  0.0704 -0.6386
   43CHL1  H15B 5608   2.840   0.620   9.089 -0.4067  1.0789 -2.6523
   43CHL1   C16 5609   2.980   0.715   8.950  0.4222  0.3658 -1.3970
   43CHL1  H16A 5610   3.030   0.639   8.886  0.3134 -0.1641 -0.8691
   43CHL1  H16B 5611   2.880   0.742   8.909  0.4560  1.2310 -0.9233
   43CHL1   C17 5612   3.064   0.848   8.981  1.0360 -0.0505  0.7444
   43CHL1   H17 5613   2.987   0.927   8.996  2.3287  1.3520  0.2845
   43CHL1   C13 5614   3.109   0.840   9.130  0.5894  1.1014  0.8072
   43CHL1   C18 5615   3.236   0.747   9.130  0.5766 -0.1341 -0.4734
   43CHL1  H18A 5616   3.269   0.729   9.235 -0.3065 -1.7153 -0.4218
   43CHL1  H18B 5617   3.222   0.645   9.086 -0.9962 -1.1462  2.1582
   43CHL1  H18C 5618   3.316   0.811   9.087 -1.7844  0.9053 -3.6901
   43CHL1   C12 5619   3.127   0.977   9.197  0.6472  1.1190  0.6172
   43CHL1  H12A 5620   3.221   1.017   9.154  0.1004  1.2298 -0.5134
   43CHL1  H12B 5621   3.040   1.041   9.171  0.1768  0.5784  0.8436
   43CHL1   C11 5622   3.138   0.955   9.351  0.0722 -0.5194 -0.0555
   43CHL1  H11A 5623   3.235   0.905   9.370  0.1254 -0.9104 -1.2547
   43CHL1  H11B 5624   3.135   1.057   9.396 -1.4128 -0.9231  0.8397
   43CHL1    C9 5625   3.021   0.868   9.410  0.3592 -0.0537 -0.5385
   43CHL1    H9 5626   2.930   0.930   9.395  1.0346  0.6404 -1.9793
   43CHL1   C10 5627   3.029   0.852   9.565 -0.5661 -0.4571  0.5447
   43CHL1   C19 5628   3.163   0.801   9.606  0.4940  0.6087 -0.4685
   43CHL1  H19A 5629   3.181   0.700   9.562  2.2031  1.2415 -1.3100
   43CHL1  H19B 5630   3.250   0.867   9.583  2.0377 -0.9427  0.6618
   43CHL1  H19C 5631   3.161   0.797   9.717 -0.8876 -3.0272 -0.5024
   43CHL1    C1 5632   2.998   0.987   9.638 -0.4318  0.3973  0.1472
   43CHL1   H1A 5633   3.082   1.060   9.636  0.7380 -0.8507  1.3989
   43CHL1   H1B 5634   2.904   1.030   9.597 -0.6102  1.4173  1.5766
   43CHL1    C2 5635   2.971   0.976   9.782  0.3780 -0.3627  0.9970
   43CHL1   H2A 5636   2.945   1.077   9.820 -0.8451 -0.9624  1.8069
   43CHL1   H2B 5637   3.065   0.951   9.836 -1.6728 -2.5181  3.8973
   43CHL1   C20 5638   3.163   0.902   8.875  0.0004 -0.3527  0.3173
   43CHL1   H20 5639   3.229   0.976   8.925  1.9692 -1.4362 -0.5760
   43CHL1   C21 5640   3.076   0.971   8.767  0.0614  0.5898  0.0979
   43CHL1  H21A 5641   3.007   1.053   8.795  0.9306  1.3589  0.0519
   43CHL1  H21B 5642   3.009   0.895   8.722 -0.3186  1.1022 -0.2142
   43CHL1  H21C 5643   3.139   1.014   8.686 -0.1539 -2.9076 -2.1441
   43CHL1   C22 5644   3.260   0.798   8.808  0.3511 -0.2522  0.5741
   43CHL1  H22A 5645   3.338   0.759   8.876  1.0410 -1.7056 -0.9932
   43CHL1  H22B 5646   3.206   0.706   8.778 -1.3231  1.1092 -0.8569
   43CHL1   C23 5647   3.328   0.842   8.683  0.2025 -0.1949 -0.3746
   43CHL1  H23A 5648   3.255   0.862   8.602  0.5560 -0.1280 -0.6777
   43CHL1  H23B 5649   3.378   0.938   8.708  2.0615 -1.2755  0.2446
   43CHL1   C24 5650   3.450   0.758   8.639 -0.0188 -0.2441 -0.2629
   43CHL1  H24A 5651   3.516   0.751   8.729  2.7249 -1.0225 -2.2011
   43CHL1  H24B 5652   3.416   0.653   8.622 -0.0096 -0.2362 -0.3283
   43CHL1   C25 5653   3.537   0.813   8.528 -0.4021  0.1918  0.3212
   43CHL1   H25 5654   3.592   0.726   8.485 -0.0994  0.6928 -0.3271
   43CHL1   C26 5655   3.442   0.861   8.422 -0.2322  0.6666 -0.3158
   43CHL1  H26A 5656   3.391   0.958   8.444 -2.2225 -0.7427  1.7271
   43CHL1  H26B 5657   3.500   0.872   8.328 -0.7234  0.7821 -0.6067
   43CHL1  H26C 5658   3.361   0.787   8.404 -0.5763  0.9095  0.2044
   43CHL1   C27 5659   3.639   0.912   8.573 -0.3623  0.1396 -0.0192
   43CHL1  H27A 5660   3.713   0.865   8.642  0.2440  0.7219 -0.2696
   43CHL1  H27B 5661   3.702   0.947   8.489 -0.1284 -0.7887 -0.2456
   43CHL1  H27C 5662   3.601   1.000   8.628  0.2315 -0.4512  1.4026
   44CHL1    C3 5663   2.220   0.326   9.987 -0.0403 -0.2970  0.5762
   44CHL1    H3 5664   2.166   0.422   9.978  0.8603  0.1446 -0.3912
   44CHL1    O3 5665   2.273   0.315  10.116  0.6524 -0.6286  0.7632
   44CHL1   H3' 5666   2.344   0.379  10.124 -0.5833  0.7414  1.1958
   44CHL1    C4 5667   2.129   0.207   9.954  0.2878  0.3325  0.5900
   44CHL1   H4A 5668   2.184   0.111   9.964 -1.8059 -1.0879 -0.7344
   44CHL1   H4B 5669   2.041   0.219  10.021  0.8034  3.7981  0.8430
   44CHL1    C5 5670   2.091   0.198   9.808  0.3291  0.4536 -0.0655
   44CHL1    C6 5671   1.958   0.181   9.782 -0.0663 -0.6260 -0.1312
   44CHL1    H6 5672   1.884   0.189   9.864 -1.8571 -1.4202 -1.6140
   44CHL1    C7 5673   1.895   0.178   9.646 -0.4304  0.9991 -0.0722
   44CHL1   H7A 5674   1.831   0.091   9.619  0.4502  0.5374 -0.7258
   44CHL1   H7B 5675   1.830   0.265   9.621 -0.0245  1.1372 -0.6708
   44CHL1    C8 5676   2.010   0.180   9.538  0.5580 -0.8858 -0.0646
   44CHL1    H8 5677   2.040   0.074   9.528 -0.6689 -1.2152 -0.3791
   44CHL1   C14 5678   1.952   0.219   9.400  0.4721  0.6091 -0.9538
   44CHL1   H14 5679   1.934   0.328   9.406  2.0163  0.9574 -2.0058
   44CHL1   C15 5680   1.827   0.147   9.344 -0.1982 -0.1092  0.4126
   44CHL1  H15A 5681   1.848   0.038   9.333 -2.3367 -0.4537 -0.8062
   44CHL1  H15B 5682   1.730   0.158   9.398 -1.3457 -1.0622 -1.3478
   44CHL1   C16 5683   1.822   0.206   9.197  0.0104 -0.0569 -1.0808
   44CHL1  H16A 5684   1.804   0.118   9.132 -1.1379 -0.9372  0.3650
   44CHL1  H16B 5685   1.735   0.274   9.183 -0.7634 -1.0074 -0.9479
   44CHL1   C17 5686   1.955   0.282   9.167 -0.3119  0.1264 -0.6787
   44CHL1   H17 5687   1.944   0.388   9.197  1.8043 -0.0697  1.0746
   44CHL1   C13 5688   2.051   0.227   9.281 -0.1226 -0.1995 -0.7991
   44CHL1   C18 5689   2.112   0.086   9.246 -0.1750  0.2875 -0.2492
   44CHL1  H18A 5690   2.158   0.034   9.333 -1.7780 -0.8522 -0.0392
   44CHL1  H18B 5691   2.036   0.022   9.195  1.9624 -0.8773 -2.1640
   44CHL1  H18C 5692   2.192   0.100   9.170  1.4377 -0.8923  1.1554
   44CHL1   C12 5693   2.164   0.317   9.316  1.0488  0.7897  0.5732
   44CHL1  H12A 5694   2.233   0.322   9.229 -2.6596  1.2922 -2.6018
   44CHL1  H12B 5695   2.126   0.420   9.332  0.9410  0.9816 -0.7959
   44CHL1   C11 5696   2.233   0.271   9.443  0.0528  0.1587 -0.1108
   44CHL1  H11A 5697   2.284   0.174   9.428  0.9515  0.0885  2.7007
   44CHL1  H11B 5698   2.302   0.355   9.466 -1.2464  0.8433  1.5149
   44CHL1    C9 5699   2.137   0.261   9.567  0.5345 -0.5831  0.6341
   44CHL1    H9 5700   2.090   0.360   9.584  1.5648 -0.4016  2.6552
   44CHL1   C10 5701   2.201   0.226   9.700 -0.1722 -0.0415  0.1876
   44CHL1   C19 5702   2.288   0.098   9.683 -0.3007  0.4914 -0.1842
   44CHL1  H19A 5703   2.225   0.020   9.636 -2.0722  1.6963  0.1213
   44CHL1  H19B 5704   2.370   0.103   9.609  0.6136 -0.4278  0.7236
   44CHL1  H19C 5705   2.336   0.063   9.777 -0.2065  2.6622  0.6307
   44CHL1    C1 5706   2.300   0.341   9.745  0.1260  0.0541 -0.4887
   44CHL1   H1A 5707   2.383   0.348   9.672 -0.6426  0.2869 -1.3487
   44CHL1   H1B 5708   2.251   0.440   9.752 -0.5829 -0.3701  1.1167
   44CHL1    C2 5709   2.345   0.322   9.895  0.4700 -0.6312 -0.4673
   44CHL1   H2A 5710   2.409   0.412   9.910 -2.0948  1.5124 -1.5594
   44CHL1   H2B 5711   2.411   0.234   9.910 -0.1945 -1.3057 -1.4181
   44CHL1   C20 5712   2.002   0.285   9.018  0.4763  0.7051 -0.7108
   44CHL1   H20 5713   2.091   0.219   9.011  0.6396  0.7586  0.6080
   44CHL1   C21 5714   2.028   0.426   8.975  0.5295  0.1943  0.0829
   44CHL1  H21A 5715   2.086   0.421   8.881 -1.1550 -3.0304 -0.9165
   44CHL1  H21B 5716   2.093   0.483   9.045  0.1244 -0.5223  1.0617
   44CHL1  H21C 5717   1.938   0.482   8.942 -0.9306 -2.2812 -0.3523
   44CHL1   C22 5718   1.906   0.211   8.911  0.2327 -0.1201 -0.1107
   44CHL1  H22A 5719   1.921   0.103   8.928  2.4605  0.2211  0.3768
   44CHL1  H22B 5720   1.798   0.235   8.927 -0.0747 -0.4737 -1.4836
   44CHL1   C23 5721   1.929   0.226   8.760 -0.2270 -0.4986 -0.4968
   44CHL1  H23A 5722   1.941   0.335   8.740  0.9467 -0.3463  0.8327
   44CHL1  H23B 5723   2.026   0.182   8.729  0.7722  3.3063 -3.4966
   44CHL1   C24 5724   1.822   0.165   8.674  0.6698  0.0234  0.2977
   44CHL1  H24A 5725   1.794   0.063   8.709  3.1683 -1.0173 -0.5667
   44CHL1  H24B 5726   1.739   0.237   8.693 -0.8907 -1.8133  0.7394
   44CHL1   C25 5727   1.854   0.154   8.523  0.3688 -1.1904  0.3762
   44CHL1   H25 5728   1.911   0.059   8.522 -0.0672 -1.4604 -0.5135
   44CHL1   C26 5729   1.726   0.113   8.430 -0.0533 -0.2570 -0.0418
   44CHL1  H26A 5730   1.654   0.198   8.421 -0.8124 -0.8293  0.5314
   44CHL1  H26B 5731   1.746   0.080   8.326  1.0660  1.4459 -0.4175
   44CHL1  H26C 5732   1.675   0.033   8.487 -0.5211  0.4367  0.5306
   44CHL1   C27 5733   1.920   0.279   8.451  0.2816  0.4233 -0.1226
   44CHL1  H27A 5734   1.844   0.360   8.458 -1.2074 -0.6820 -2.3939
   44CHL1  H27B 5735   2.016   0.293   8.504 -0.4775  0.3662  1.3269
   44CHL1  H27C 5736   1.949   0.254   8.347 -1.6155 -2.1141 -0.1493
   45CHL1    C3 5737   4.893   0.988  10.169 -0.6412 -0.3086  0.0522
   45CHL1    H3 5738   4.895   0.879  10.190  2.5435 -0.4345 -0.4775
   45CHL1    O3 5739   4.933   1.051  10.286  0.2130 -0.1190  0.3776
   45CHL1   H3' 5740   4.908   1.142  10.270 -0.7826 -0.3066  0.8402
   45CHL1    C4 5741   5.006   1.014  10.066  0.6557  0.4095 -0.7594
   45CHL1   H4A 5742   5.017   1.125  10.066 -1.7060  0.7478  1.5980
   45CHL1   H4B 5743   5.094   0.961  10.107  0.2940  0.3609 -0.0331
   45CHL1    C5 5744   4.962   0.967   9.926 -0.4593 -0.4111 -0.1604
   45CHL1    C6 5745   5.030   0.874   9.853  0.4456 -1.1331  0.1160
   45CHL1    H6 5746   5.130   0.840   9.883  1.1466 -2.2984 -3.1433
   45CHL1    C7 5747   4.981   0.819   9.715 -0.2676 -0.2825  0.0617
   45CHL1   H7A 5748   5.072   0.810   9.653 -0.2345 -0.6977  0.1675
   45CHL1   H7B 5749   4.929   0.721   9.727 -0.4527 -0.0565  1.1622
   45CHL1    C8 5750   4.881   0.916   9.654  0.1179 -0.3592 -0.1526
   45CHL1    H8 5751   4.835   0.862   9.569 -0.1582  2.5850 -1.9950
   45CHL1   C14 5752   4.947   1.037   9.575 -0.0039  0.2371 -0.5299
   45CHL1   H14 5753   5.023   1.089   9.636 -0.9839  1.7607 -0.5460
   45CHL1   C15 5754   5.026   0.978   9.455 -0.0371  1.1461  0.2423
   45CHL1  H15A 5755   5.135   0.997   9.461  0.2939 -0.2324 -0.7423
   45CHL1  H15B 5756   5.024   0.867   9.450  0.4704  1.1712 -0.8466
   45CHL1   C16 5757   4.960   1.029   9.321  0.1757 -0.0373 -0.2001
   45CHL1  H16A 5758   5.020   1.111   9.277 -1.2587  0.8381 -0.5666
   45CHL1  H16B 5759   4.962   0.945   9.249 -2.0668 -0.5595  0.2523
   45CHL1   C17 5760   4.819   1.074   9.379 -0.2533 -0.5094  0.2364
   45CHL1   H17 5761   4.765   0.978   9.395 -2.3109  0.5464 -0.0997
   45CHL1   C13 5762   4.843   1.132   9.517  0.3169 -0.0815  0.6877
   45CHL1   C18 5763   4.910   1.273   9.496  0.2777  1.3308 -0.8502
   45CHL1  H18A 5764   4.829   1.340   9.461 -2.8582 -0.9467  1.4262
   45CHL1  H18B 5765   4.934   1.310   9.598 -4.3164  0.1719  0.9116
   45CHL1  H18C 5766   5.004   1.276   9.438  0.0101 -0.5349 -1.4680
   45CHL1   C12 5767   4.698   1.146   9.579 -0.1919  0.7229 -1.0250
   45CHL1  H12A 5768   4.700   1.248   9.623  0.0046  0.4603 -0.4105
   45CHL1  H12B 5769   4.623   1.146   9.497 -0.0940 -0.6410 -1.1438
   45CHL1   C11 5770   4.662   1.030   9.672  0.2156  0.7535  0.5627
   45CHL1  H11A 5771   4.573   1.055   9.733  1.6722 -0.2793  3.2532
   45CHL1  H11B 5772   4.634   0.950   9.601  0.3232  2.1508 -1.1221
   45CHL1    C9 5773   4.771   0.962   9.748 -0.9904  0.3968  0.7469
   45CHL1    H9 5774   4.731   0.862   9.776 -0.3748 -0.9066 -2.5390
   45CHL1   C10 5775   4.831   1.028   9.879  0.1222  0.0316  0.3569
   45CHL1   C19 5776   4.860   1.182   9.862 -0.3335  0.2178 -1.0663
   45CHL1  H19A 5777   4.938   1.196   9.784  0.6503 -3.2266 -0.8899
   45CHL1  H19B 5778   4.764   1.235   9.845 -0.3272  0.2644 -0.9546
   45CHL1  H19C 5779   4.895   1.225   9.958  2.8292 -2.5307 -0.8112
   45CHL1    C1 5780   4.717   1.002   9.988 -0.8913 -0.0894 -0.3485
   45CHL1   H1A 5781   4.618   1.042   9.959 -0.3613  1.1010 -0.5657
   45CHL1   H1B 5782   4.715   0.891   9.989  0.5371 -0.1825 -2.6057
   45CHL1    C2 5783   4.758   1.046  10.128 -0.5717 -0.0983 -0.3637
   45CHL1   H2A 5784   4.678   1.001  10.189 -0.5267 -0.8269 -0.8324
   45CHL1   H2B 5785   4.770   1.157  10.132 -1.1347 -0.0083 -0.9942
   45CHL1   C20 5786   4.744   1.156   9.266 -0.5746  0.0552 -0.2005
   45CHL1   H20 5787   4.685   1.240   9.307 -2.6552 -1.7441  0.7151
   45CHL1   C21 5788   4.642   1.065   9.213 -0.1258 -0.3846  0.0761
   45CHL1  H21A 5789   4.687   0.990   9.144  0.3837  0.0193 -0.0289
   45CHL1  H21B 5790   4.572   1.121   9.148  0.7300  0.1484 -0.3970
   45CHL1  H21C 5791   4.579   1.014   9.289  0.0563 -0.0064  0.4807
   45CHL1   C22 5792   4.835   1.218   9.150 -0.3475 -1.0170 -0.0991
   45CHL1  H22A 5793   4.921   1.273   9.193  0.0154 -2.1832  0.7075
   45CHL1  H22B 5794   4.879   1.133   9.093  0.0626 -0.4655 -0.6210
   45CHL1   C23 5795   4.754   1.313   9.061 -0.2007  0.6701  0.4609
   45CHL1  H23A 5796   4.660   1.261   9.033 -2.0063  3.1793  1.4862
   45CHL1  H23B 5797   4.717   1.395   9.127 -0.6950 -1.9409  3.6760
   45CHL1   C24 5798   4.822   1.367   8.938  0.1773 -0.1595  0.3238
   45CHL1  H24A 5799   4.923   1.408   8.961 -0.2623 -0.1783  2.5888
   45CHL1  H24B 5800   4.848   1.274   8.883 -0.5585 -0.2606  0.1380
   45CHL1   C25 5801   4.746   1.455   8.834 -0.4758  0.7024  0.2731
   45CHL1   H25 5802   4.643   1.412   8.829 -0.4485  0.7460 -1.5187
   45CHL1   C26 5803   4.734   1.606   8.872  0.5937 -0.1536  0.2372
   45CHL1  H26A 5804   4.697   1.630   8.974  0.6220 -0.1075  0.2375
   45CHL1  H26B 5805   4.840   1.641   8.873  0.9871 -1.0975 -2.1581
   45CHL1  H26C 5806   4.668   1.652   8.796 -1.5551 -2.2012  0.7474
   45CHL1   C27 5807   4.804   1.441   8.693  0.7914  0.6151 -0.5183
   45CHL1  H27A 5808   4.747   1.507   8.624 -0.7484  0.8131  0.8787
   45CHL1  H27B 5809   4.912   1.467   8.695  1.3357 -1.4245 -1.5763
   45CHL1  H27C 5810   4.796   1.336   8.660 -0.5469  1.0504 -1.6897
   46CHL1    C3 5811   2.397   4.815  10.149  0.3516 -0.2660  0.6313
   46CHL1    H3 5812   2.506   4.798  10.137  0.1811  0.2715 -2.6431
   46CHL1    O3 5813   2.377   4.858  10.276  0.5394 -0.9922  0.0420
   46CHL1   H3' 5814   2.282   4.867  10.285  0.3188 -0.1604 -2.4590
   46CHL1    C4 5815   2.335   4.916  10.050 -0.7568 -0.3457 -0.1997
   46CHL1   H4A 5816   2.232   4.952  10.069 -0.6007  0.2829 -0.5045
   46CHL1   H4B 5817   2.395   5.008  10.067  0.7104 -1.4893  1.0384
   46CHL1    C5 5818   2.339   4.869   9.903  0.5341 -0.3032  0.5303
   46CHL1    C6 5819   2.387   4.950   9.801 -0.0545  0.0025 -0.1876
   46CHL1    H6 5820   2.422   5.051   9.822  2.2296 -0.9707  1.0175
   46CHL1    C7 5821   2.398   4.904   9.658 -0.3478  0.2101  0.1951
   46CHL1   H7A 5822   2.353   4.981   9.592 -1.1357 -0.2673  0.1672
   46CHL1   H7B 5823   2.507   4.895   9.638 -0.6099 -0.1122 -1.1610
   46CHL1    C8 5824   2.316   4.778   9.626 -0.1572 -0.1752 -0.6642
   46CHL1    H8 5825   2.211   4.809   9.611 -0.0894 -0.1469 -1.0709
   46CHL1   C14 5826   2.359   4.712   9.494 -0.4470 -0.2818 -0.4981
   46CHL1   H14 5827   2.459   4.673   9.524 -0.9227  0.7069  2.7826
   46CHL1   C15 5828   2.378   4.803   9.371  0.3746 -0.8713 -0.4846
   46CHL1  H15A 5829   2.294   4.874   9.354  0.9474 -0.1254 -0.2371
   46CHL1  H15B 5830   2.469   4.865   9.382 -0.6545  0.3863  1.5598
   46CHL1   C16 5831   2.372   4.713   9.249  0.3782  0.0376 -0.1080
   46CHL1  H16A 5832   2.293   4.751   9.181 -0.6606  0.4783  1.2945
   46CHL1  H16B 5833   2.471   4.708   9.200  0.0471 -0.1126 -0.7741
   46CHL1   C17 5834   2.339   4.575   9.304 -0.2733 -0.3951  0.3837
   46CHL1   H17 5835   2.438   4.528   9.323 -1.0505 -2.2663  0.1154
   46CHL1   C13 5836   2.281   4.590   9.448  0.9976  0.4552  0.4114
   46CHL1   C18 5837   2.131   4.625   9.438 -0.7041 -0.0804 -0.0042
   46CHL1  H18A 5838   2.104   4.709   9.370  1.1788  2.4352  2.1732
   46CHL1  H18B 5839   2.076   4.544   9.385 -1.0560  1.1089 -1.5533
   46CHL1  H18C 5840   2.085   4.646   9.536  0.6022  2.4153  0.1348
   46CHL1   C12 5841   2.306   4.481   9.553 -0.0369  0.7670 -0.2350
   46CHL1  H12A 5842   2.242   4.392   9.542  0.5343  0.5206 -1.7476
   46CHL1  H12B 5843   2.412   4.448   9.551 -0.3923 -0.4457  0.2297
   46CHL1   C11 5844   2.269   4.535   9.698 -0.0060 -0.4452 -0.0823
   46CHL1  H11A 5845   2.158   4.534   9.702 -0.2539 -4.5423 -2.1493
   46CHL1  H11B 5846   2.294   4.463   9.779  0.4557 -0.3434 -0.1367
   46CHL1    C9 5847   2.334   4.669   9.738 -0.1902 -0.3738  0.0109
   46CHL1    H9 5848   2.442   4.647   9.748 -0.5195 -1.9050  0.4461
   46CHL1   C10 5849   2.299   4.720   9.883  0.5460 -0.3686  0.1456
   46CHL1   C19 5850   2.147   4.715   9.891 -0.3130  0.1200 -0.0797
   46CHL1  H19A 5851   2.101   4.778   9.811  1.9860  1.2514 -0.5892
   46CHL1  H19B 5852   2.103   4.614   9.876 -1.7368  1.0528 -2.9976
   46CHL1  H19C 5853   2.127   4.757   9.992  0.7847  0.5821 -0.0434
   46CHL1    C1 5854   2.357   4.623   9.992  0.3580 -0.2714 -0.4480
   46CHL1   H1A 5855   2.317   4.519   9.999  0.6420 -0.3860 -0.5219
   46CHL1   H1B 5856   2.467   4.616   9.975  0.5913  1.0051  0.4037
   46CHL1    C2 5857   2.336   4.673  10.131 -0.4462 -0.3092 -0.7746
   46CHL1   H2A 5858   2.366   4.602  10.211 -1.8686  1.4365  1.4527
   46CHL1   H2B 5859   2.229   4.699  10.149 -0.5611  0.5661 -2.5293
   46CHL1   C20 5860   2.274   4.478   9.199 -0.1344  0.0076 -0.1202
   46CHL1   H20 5861   2.169   4.511   9.186  0.5022  1.4456 -1.9199
   46CHL1   C21 5862   2.267   4.336   9.252  0.1336  0.5931  0.0581
   46CHL1  H21A 5863   2.372   4.303   9.268 -0.1394  0.8752  2.9334
   46CHL1  H21B 5864   2.224   4.260   9.183  0.2016  0.1056  0.5476
   46CHL1  H21C 5865   2.220   4.320   9.352  1.4279  3.2708  1.1933
   46CHL1   C22 5866   2.343   4.480   9.055  0.1958  0.2578  0.2271
   46CHL1  H22A 5867   2.293   4.415   8.980 -2.7015  3.5775 -1.0082
   46CHL1  H22B 5868   2.321   4.582   9.016  0.9844  0.4148  0.1782
   46CHL1   C23 5869   2.495   4.445   9.060 -0.2880 -0.3705 -0.3490
   46CHL1  H23A 5870   2.550   4.508   9.134 -0.6545 -0.2284 -0.1966
   46CHL1  H23B 5871   2.508   4.339   9.091  1.5701  0.8132  3.6715
   46CHL1   C24 5872   2.572   4.457   8.925  0.2087 -0.3352  0.2215
   46CHL1  H24A 5873   2.525   4.382   8.857 -0.7549 -0.2518  0.7700
   46CHL1  H24B 5874   2.557   4.558   8.881 -1.7975 -0.4913  0.4159
   46CHL1   C25 5875   2.720   4.443   8.940 -0.2350  0.2752 -0.0647
   46CHL1   H25 5876   2.751   4.502   9.029 -1.9520 -1.7765  2.0228
   46CHL1   C26 5877   2.765   4.302   8.946 -0.9029 -0.1282 -0.0777
   46CHL1  H26A 5878   2.715   4.245   9.028 -1.3440 -0.2258 -0.4124
   46CHL1  H26B 5879   2.753   4.244   8.852 -1.7416 -0.3187  0.1374
   46CHL1  H26C 5880   2.874   4.298   8.971 -0.5535  0.9513 -1.3636
   46CHL1   C27 5881   2.798   4.511   8.820 -0.1940  0.4249 -0.3023
   46CHL1  H27A 5882   2.769   4.617   8.806 -0.8212  0.0708 -1.8620
   46CHL1  H27B 5883   2.909   4.509   8.833 -0.4059  0.1819  1.9338
   46CHL1  H27C 5884   2.773   4.453   8.729  0.4027 -0.0333 -0.1769
   47CHL1    C3 5885   1.835   0.478  10.060 -0.4171  0.3373  0.5884
   47CHL1    H3 5886   1.914   0.406  10.028 -1.3730  1.0863 -4.2637
   47CHL1    O3 5887   1.871   0.494  10.200 -0.4826  0.4613 -0.2037
   47CHL1   H3' 5888   1.816   0.433  10.251 -0.0852  1.0609  0.9753
   47CHL1    C4 5889   1.859   0.608   9.982  0.3882  0.6535  0.1218
   47CHL1   H4A 5890   1.794   0.685  10.028 -1.3341 -0.5550 -0.2004
   47CHL1   H4B 5891   1.966   0.637   9.986  1.2225 -2.2535  1.9980
   47CHL1    C5 5892   1.826   0.594   9.840  0.2026 -0.3093 -0.9059
   47CHL1    C6 5893   1.918   0.608   9.743  0.0967 -0.1494 -0.4705
   47CHL1    H6 5894   2.023   0.630   9.768  0.1689 -0.4679 -0.4927
   47CHL1    C7 5895   1.886   0.597   9.594  0.5884 -0.7168  0.3258
   47CHL1   H7A 5896   1.951   0.665   9.535  1.5612  0.7824  2.9798
   47CHL1   H7B 5897   1.908   0.490   9.574  1.1123 -0.7464  1.0213
   47CHL1    C8 5898   1.729   0.621   9.567  0.2964  0.4004  0.0555
   47CHL1    H8 5899   1.711   0.729   9.584  0.0914  0.1920  1.2311
   47CHL1   C14 5900   1.695   0.588   9.419 -0.0389 -0.7113 -0.0757
   47CHL1   H14 5901   1.727   0.482   9.411  0.4308 -0.5324 -0.6188
   47CHL1   C15 5902   1.780   0.654   9.312 -0.2843 -0.8933 -0.4303
   47CHL1  H15A 5903   1.776   0.763   9.329  0.0470 -0.8864 -0.3822
   47CHL1  H15B 5904   1.887   0.624   9.307 -0.4117 -1.1848 -1.9198
   47CHL1   C16 5905   1.704   0.608   9.185 -0.7595 -0.2295  0.3554
   47CHL1  H16A 5906   1.695   0.695   9.116  0.6823 -0.7792 -0.5664
   47CHL1  H16B 5907   1.757   0.525   9.133  0.9608  0.7199  0.5202
   47CHL1   C17 5908   1.559   0.562   9.221  1.1020 -0.2771 -0.4975
   47CHL1   H17 5909   1.559   0.454   9.196 -0.2463 -0.0197 -1.7498
   47CHL1   C13 5910   1.549   0.586   9.377  0.5537 -0.2797  0.1109
   47CHL1   C18 5911   1.500   0.737   9.393 -0.1813  0.2949 -0.1163
   47CHL1  H18A 5912   1.518   0.772   9.497  0.4016 -0.1412 -0.0697
   47CHL1  H18B 5913   1.556   0.802   9.322  0.3325 -1.3217 -1.2403
   47CHL1  H18C 5914   1.391   0.748   9.371 -0.4571 -1.0126  0.5117
   47CHL1   C12 5915   1.477   0.486   9.462  0.3668  0.0139 -0.1479
   47CHL1  H12A 5916   1.369   0.489   9.435  0.8676 -1.3849 -2.6722
   47CHL1  H12B 5917   1.527   0.390   9.439  0.7912 -0.3756  2.1266
   47CHL1   C11 5918   1.503   0.522   9.610 -0.0888  0.2061  0.7415
   47CHL1  H11A 5919   1.457   0.621   9.631  1.8611  1.1877  0.6890
   47CHL1  H11B 5920   1.452   0.452   9.679 -1.2684  1.7840  1.5330
   47CHL1    C9 5921   1.649   0.527   9.656 -0.5362  0.3013  0.3774
   47CHL1    H9 5922   1.702   0.431   9.636  2.6784  1.8304  0.8339
   47CHL1   C10 5923   1.681   0.546   9.808  0.0988  0.3661  0.1712
   47CHL1   C19 5924   1.591   0.663   9.851 -0.5321 -0.2363  0.4527
   47CHL1  H19A 5925   1.481   0.649   9.837 -0.3818 -1.6534  0.6115
   47CHL1  H19B 5926   1.602   0.694   9.957 -0.7497  0.8044  0.1871
   47CHL1  H19C 5927   1.621   0.756   9.798 -0.4792 -1.4663 -1.7644
   47CHL1    C1 5928   1.651   0.423   9.891  0.0761 -0.2934  0.2513
   47CHL1   H1A 5929   1.545   0.389   9.879  1.6054 -5.5909 -1.1579
   47CHL1   H1B 5930   1.710   0.339   9.849 -0.0021  0.4600 -1.4258
   47CHL1    C2 5931   1.689   0.437  10.041  0.0722 -0.5796  0.0322
   47CHL1   H2A 5932   1.680   0.337  10.089  0.2043 -1.2315 -1.2416
   47CHL1   H2B 5933   1.615   0.500  10.094 -1.1947 -0.0623 -2.1996
   47CHL1   C20 5934   1.446   0.613   9.124 -0.8289  0.1217 -0.6420
   47CHL1   H20 5935   1.440   0.724   9.119  0.2281  0.1537 -1.7470
   47CHL1   C21 5936   1.301   0.570   9.163  0.3532  0.0288 -0.7991
   47CHL1  H21A 5937   1.268   0.609   9.262  0.6792 -0.7052 -0.3875
   47CHL1  H21B 5938   1.313   0.459   9.170 -0.8021 -0.1366 -1.2907
   47CHL1  H21C 5939   1.224   0.601   9.090  0.4142  1.2393 -0.3664
   47CHL1   C22 5940   1.483   0.565   8.981  0.0256  0.4317 -0.0007
   47CHL1  H22A 5941   1.593   0.571   8.968 -0.0854 -1.1193 -2.1384
   47CHL1  H22B 5942   1.453   0.459   8.970 -1.4266  0.6006  1.7820
   47CHL1   C23 5943   1.417   0.647   8.873 -0.4231  1.0625 -0.0690
   47CHL1  H23A 5944   1.309   0.668   8.888 -0.0724  2.6919  0.3358
   47CHL1  H23B 5945   1.464   0.748   8.870  0.2725  0.7432 -0.2140
   47CHL1   C24 5946   1.446   0.598   8.726 -0.2167  0.2507  0.0288
   47CHL1  H24A 5947   1.411   0.497   8.699 -0.0653 -0.2496  1.6151
   47CHL1  H24B 5948   1.405   0.660   8.643 -0.7710 -0.2404 -0.0690
   47CHL1   C25 5949   1.591   0.588   8.680 -0.1696  0.2565 -0.2210
   47CHL1   H25 5950   1.638   0.511   8.745 -1.0739  0.2273  0.4167
   47CHL1   C26 5951   1.613   0.554   8.528 -1.0591 -0.3863 -0.7876
   47CHL1  H26A 5952   1.566   0.634   8.466 -1.1074  0.3721  0.1922
   47CHL1  H26B 5953   1.568   0.453   8.517  0.4745 -1.1971  0.0711
   47CHL1  H26C 5954   1.718   0.548   8.494 -0.6710 -1.3534  0.4929
   47CHL1   C27 5955   1.672   0.709   8.709 -0.2459  0.3178  0.2416
   47CHL1  H27A 5956   1.633   0.800   8.659  1.9802  0.5876 -1.1447
   47CHL1  H27B 5957   1.696   0.729   8.815  3.2268  0.1988 -0.3769
   47CHL1  H27C 5958   1.779   0.702   8.677 -0.7095 -0.8175 -1.1512
   48CHL1    C3 5959   3.540   0.206  10.201  0.4654 -0.3555  0.1546
   48CHL1    H3 5960   3.597   0.116  10.169 -0.5809 -0.1216 -2.6790
   48CHL1    O3 5961   3.515   0.195  10.335  0.3840  0.1949 -0.5166
   48CHL1   H3' 5962   3.601   0.194  10.377 -0.1365 -1.8007  0.6264
   48CHL1    C4 5963   3.633   0.334  10.173  0.7315  0.8338  0.2715
   48CHL1   H4A 5964   3.601   0.413  10.244 -0.8855  0.6229 -0.1850
   48CHL1   H4B 5965   3.736   0.316  10.210  0.7436 -0.8437 -0.4593
   48CHL1    C5 5966   3.641   0.374  10.028  0.2438  0.1847  1.7219
   48CHL1    C6 5967   3.760   0.407   9.975 -1.0831 -0.2834  0.7057
   48CHL1    H6 5968   3.850   0.401  10.038 -0.4182 -2.1461 -0.3409
   48CHL1    C7 5969   3.790   0.453   9.835  1.4743 -0.6776  0.4622
   48CHL1   H7A 5970   3.834   0.554   9.825  1.1330 -0.5639  0.0571
   48CHL1   H7B 5971   3.841   0.385   9.764 -1.3481  0.2158 -2.6830
   48CHL1    C8 5972   3.651   0.473   9.753  0.7372 -0.3899 -0.6873
   48CHL1    H8 5973   3.610   0.573   9.777 -1.5839 -1.7186  1.3517
   48CHL1   C14 5974   3.684   0.483   9.604  0.6386 -0.7440  0.7103
   48CHL1   H14 5975   3.717   0.377   9.591  2.3596 -0.3798  1.7469
   48CHL1   C15 5976   3.793   0.580   9.549  0.0303 -0.1537 -0.0534
   48CHL1  H15A 5977   3.782   0.679   9.599  2.1657 -0.9299  2.1307
   48CHL1  H15B 5978   3.891   0.530   9.564 -0.4187 -0.7593  1.0026
   48CHL1   C16 5979   3.758   0.583   9.398 -0.4541 -0.3276 -0.5846
   48CHL1  H16A 5980   3.743   0.692   9.386  0.9578 -0.0001  0.4617
   48CHL1  H16B 5981   3.843   0.560   9.330  0.3859  0.1118  0.3015
   48CHL1   C17 5982   3.637   0.487   9.379  0.4186 -0.1825 -0.1117
   48CHL1   H17 5983   3.675   0.385   9.360  2.9823  0.6273  0.2624
   48CHL1   C13 5984   3.555   0.499   9.511 -0.1722 -0.1764  0.2415
   48CHL1   C18 5985   3.492   0.643   9.521 -0.0601  0.7893 -0.5021
   48CHL1  H18A 5986   3.429   0.666   9.433 -0.5145  1.7368  0.0437
   48CHL1  H18B 5987   3.431   0.662   9.613 -0.1261  1.0430 -0.5964
   48CHL1  H18C 5988   3.572   0.720   9.512  1.4994 -0.9326 -2.0318
   48CHL1   C12 5989   3.465   0.383   9.551  0.4760  0.6142 -0.0100
   48CHL1  H12A 5990   3.370   0.377   9.492  0.4321  1.6113 -0.0621
   48CHL1  H12B 5991   3.527   0.294   9.528 -0.0222  0.5723 -1.3267
   48CHL1   C11 5992   3.418   0.390   9.700 -1.0560  0.3378  0.3585
   48CHL1  H11A 5993   3.363   0.483   9.722  1.6005  2.4272 -1.1568
   48CHL1  H11B 5994   3.351   0.305   9.725  2.1034 -1.8516  2.1393
   48CHL1    C9 5995   3.544   0.376   9.792  0.5209 -0.0924  1.1557
   48CHL1    H9 5996   3.581   0.277   9.760 -1.6592 -0.9562  1.1584
   48CHL1   C10 5997   3.511   0.363   9.944  1.2865 -0.0640  0.2982
   48CHL1   C19 5998   3.414   0.473   9.979 -0.6863 -0.3139 -0.0059
   48CHL1  H19A 5999   3.316   0.427   9.953  0.4318 -1.7774 -1.9643
   48CHL1  H19B 6000   3.412   0.500  10.086  1.3434 -1.1935  0.3011
   48CHL1  H19C 6001   3.438   0.565   9.922  1.3653  0.8468  2.5440
   48CHL1    C1 6002   3.437   0.219   9.974 -1.0100  0.5287 -0.2492
   48CHL1   H1A 6003   3.341   0.215   9.919  0.5768 -0.9836 -3.1591
   48CHL1   H1B 6004   3.500   0.139   9.931 -0.0378  0.0769  1.8849
   48CHL1    C2 6005   3.407   0.202  10.122  0.4622  0.2415 -0.0451
   48CHL1   H2A 6006   3.351   0.107  10.136  0.7915 -0.0802 -0.8416
   48CHL1   H2B 6007   3.344   0.286  10.158 -0.6812 -1.2794  1.7234
   48CHL1   C20 6008   3.560   0.524   9.245  0.6601  0.5220  0.6260
   48CHL1   H20 6009   3.527   0.630   9.250 -3.1033 -0.4712 -0.1406
   48CHL1   C21 6010   3.429   0.439   9.230 -0.1126 -0.2157 -0.3916
   48CHL1  H21A 6011   3.356   0.439   9.313  0.5437 -2.0166  0.2384
   48CHL1  H21B 6012   3.439   0.331   9.207 -2.3529 -0.6094  0.1858
   48CHL1  H21C 6013   3.372   0.484   9.146  0.6985 -1.3713 -1.6055
   48CHL1   C22 6014   3.642   0.491   9.121 -0.0499  0.2327  1.1976
   48CHL1  H22A 6015   3.733   0.554   9.125  1.2375 -1.0101 -3.1137
   48CHL1  H22B 6016   3.667   0.384   9.131 -2.3948 -0.4072  0.8958
   48CHL1   C23 6017   3.569   0.508   8.985  0.7271 -0.5650 -0.7050
   48CHL1  H23A 6018   3.494   0.426   8.975 -0.3422  0.0244  1.7522
   48CHL1  H23B 6019   3.517   0.606   8.983  1.5560 -0.0859  0.1733
   48CHL1   C24 6020   3.671   0.494   8.865 -0.3343  0.3756 -0.6861
   48CHL1  H24A 6021   3.710   0.598   8.872 -2.3057  1.1019  1.1792
   48CHL1  H24B 6022   3.746   0.422   8.903 -2.0611 -0.2742  1.7947
   48CHL1   C25 6023   3.620   0.442   8.731 -0.0352  0.0100  0.6031
   48CHL1   H25 6024   3.526   0.501   8.718  0.4493  0.5890 -0.3871
   48CHL1   C26 6025   3.730   0.466   8.622  0.3651  0.2695 -0.0623
   48CHL1  H26A 6026   3.821   0.413   8.658 -0.1255  0.1963  1.1375
   48CHL1  H26B 6027   3.700   0.431   8.521 -0.8749  0.6711  0.1527
   48CHL1  H26C 6028   3.738   0.577   8.622  1.2792  0.2101  0.1214
   48CHL1   C27 6029   3.588   0.287   8.734  0.1241  0.5086  0.1422
   48CHL1  H27A 6030   3.545   0.247   8.640  1.6480 -1.0925  0.0693
   48CHL1  H27B 6031   3.689   0.243   8.750 -0.1949 -0.4778 -0.4342
   48CHL1  H27C 6032   3.530   0.260   8.825  0.5446  0.6522  0.4551
   49CHL1    C3 6033   3.049   2.545  10.021  0.4379 -0.2215 -0.2054
   49CHL1    H3 6034   3.148   2.537   9.971  0.4739 -2.2512  0.1225
   49CHL1    O3 6035   3.073   2.548  10.164  0.5661  0.2955  0.3360
   49CHL1   H3' 6036   2.994   2.580  10.208  1.3364  1.4936  0.8785
   49CHL1    C4 6037   2.987   2.675   9.973 -0.2041 -0.9253  0.2732
   49CHL1   H4A 6038   2.889   2.696  10.021 -0.3458  0.6066 -0.5948
   49CHL1   H4B 6039   3.059   2.754  10.005 -1.2745  0.3690 -0.4004
   49CHL1    C5 6040   2.981   2.673   9.821 -0.2021 -0.2538 -0.7574
   49CHL1    C6 6041   3.045   2.758   9.743 -0.0424 -0.5480 -0.7911
   49CHL1    H6 6042   3.089   2.842   9.799 -1.3793 -1.1811  1.3265
   49CHL1    C7 6043   3.035   2.763   9.596 -0.2517 -0.5025 -0.6093
   49CHL1   H7A 6044   3.010   2.868   9.568  1.0725  0.0485  0.2148
   49CHL1   H7B 6045   3.131   2.741   9.545 -1.2965 -0.0214 -2.9629
   49CHL1    C8 6046   2.930   2.669   9.529 -0.4050  0.0525  0.0231
   49CHL1    H8 6047   2.835   2.725   9.535  0.0874  1.2025 -2.0941
   49CHL1   C14 6048   2.963   2.639   9.380 -0.1913  0.1854  0.1586
   49CHL1   H14 6049   3.055   2.578   9.395 -0.4754  0.0689  1.4534
   49CHL1   C15 6050   3.000   2.758   9.290  0.0440  0.1593 -0.0831
   49CHL1  H15A 6051   2.930   2.843   9.304 -1.6850 -1.4620  1.8853
   49CHL1  H15B 6052   3.103   2.793   9.310  0.3772 -1.0980  0.4881
   49CHL1   C16 6053   2.982   2.707   9.147 -0.0369 -0.3949  0.2598
   49CHL1  H16A 6054   2.911   2.768   9.087  1.4813  0.2730 -0.9714
   49CHL1  H16B 6055   3.073   2.711   9.082 -0.5588 -0.5803 -0.5014
   49CHL1   C17 6056   2.923   2.561   9.168 -0.1160  0.3433  1.1252
   49CHL1   H17 6057   3.014   2.497   9.171 -1.6056 -1.8725  0.6603
   49CHL1   C13 6058   2.862   2.551   9.308 -0.5754  0.2742 -0.1166
   49CHL1   C18 6059   2.720   2.619   9.301 -0.2606  0.0194 -0.1521
   49CHL1  H18A 6060   2.671   2.617   9.401  0.1751  0.0531  0.0658
   49CHL1  H18B 6061   2.731   2.727   9.276 -3.3678  0.9529  1.9435
   49CHL1  H18C 6062   2.644   2.578   9.231  0.1498 -1.0893  0.0461
   49CHL1   C12 6063   2.866   2.423   9.385 -0.2729  0.4645 -0.1505
   49CHL1  H12A 6064   2.799   2.344   9.345 -0.0089  0.4347 -0.5388
   49CHL1  H12B 6065   2.971   2.387   9.381 -0.0433  1.2421 -1.7004
   49CHL1   C11 6066   2.828   2.434   9.534 -0.1321 -0.0543 -0.4552
   49CHL1  H11A 6067   2.718   2.447   9.541 -0.4107 -2.5470  0.9376
   49CHL1  H11B 6068   2.858   2.338   9.581 -0.3572  0.5756  1.0574
   49CHL1    C9 6069   2.924   2.537   9.603  0.2043  0.2643  0.2795
   49CHL1    H9 6070   3.026   2.494   9.595  1.0002  1.8070  1.4896
   49CHL1   C10 6071   2.903   2.553   9.757 -0.0718 -0.3711 -0.6076
   49CHL1   C19 6072   2.757   2.561   9.785 -0.1892 -0.4912  0.0675
   49CHL1  H19A 6073   2.709   2.632   9.714  0.3460 -0.5167 -0.3197
   49CHL1  H19B 6074   2.713   2.460   9.774 -0.7112 -0.2603 -0.0287
   49CHL1  H19C 6075   2.729   2.602   9.885  0.4921  0.6199 -0.1816
   49CHL1    C1 6076   2.951   2.428   9.830  0.2428 -0.2071 -0.3218
   49CHL1   H1A 6077   2.893   2.340   9.796 -0.2951 -0.6299  1.5622
   49CHL1   H1B 6078   3.056   2.399   9.805  0.4191 -1.1786  1.3924
   49CHL1    C2 6079   2.955   2.427   9.980 -0.2923 -0.0780 -0.3344
   49CHL1   H2A 6080   2.998   2.330  10.013 -0.8052 -0.6403 -1.2897
   49CHL1   H2B 6081   2.857   2.433  10.031  0.0484  0.9629  0.2448
   49CHL1   C20 6082   2.847   2.520   9.041 -0.0296  1.1070  0.1192
   49CHL1   H20 6083   2.769   2.599   9.033 -1.2931 -0.1162 -0.0606
   49CHL1   C21 6084   2.785   2.379   9.066 -0.8680 -0.7344 -0.4429
   49CHL1  H21A 6085   2.737   2.339   8.974 -0.5277 -0.8860 -0.5553
   49CHL1  H21B 6086   2.718   2.364   9.154 -0.5546  2.8237  0.5334
   49CHL1  H21C 6087   2.872   2.316   9.096 -2.4866 -2.5269  0.7585
   49CHL1   C22 6088   2.937   2.525   8.916  0.3871  0.0700 -0.2852
   49CHL1  H22A 6089   2.997   2.618   8.916  0.9526 -0.2833  0.2124
   49CHL1  H22B 6090   3.010   2.441   8.915 -1.9858 -2.1484 -2.8229
   49CHL1   C23 6091   2.866   2.502   8.780 -0.4912 -0.0089 -0.7471
   49CHL1  H23A 6092   2.825   2.399   8.783  2.1457 -1.1394 -0.8336
   49CHL1  H23B 6093   2.780   2.571   8.769 -4.1666 -3.7930  1.2710
   49CHL1   C24 6094   2.963   2.513   8.666  0.3174 -0.0139  0.6497
   49CHL1  H24A 6095   3.013   2.611   8.672 -1.3473  0.8763  0.7049
   49CHL1  H24B 6096   3.038   2.432   8.678 -0.4051 -1.0008 -1.1242
   49CHL1   C25 6097   2.900   2.497   8.525  0.3930 -0.0181 -0.2654
   49CHL1   H25 6098   2.868   2.391   8.519  0.0643  0.1231 -1.1101
   49CHL1   C26 6099   2.784   2.591   8.495 -0.3912 -0.6132 -0.3989
   49CHL1  H26A 6100   2.822   2.690   8.462  1.6477 -1.3515 -0.3958
   49CHL1  H26B 6101   2.734   2.542   8.409  0.7381 -1.6761 -0.4818
   49CHL1  H26C 6102   2.707   2.595   8.574  2.6716 -1.7051  2.9204
   49CHL1   C27 6103   3.005   2.519   8.420  0.1229 -0.4667  1.4008
   49CHL1  H27A 6104   2.965   2.493   8.320  0.2668  2.3783  0.5388
   49CHL1  H27B 6105   3.032   2.627   8.418  1.3042 -0.7225 -1.5416
   49CHL1  H27C 6106   3.097   2.458   8.435  0.1865 -0.2221  2.0264
   50CHL1    C3 6107   4.149   6.575  10.048 -0.0379  0.8629  0.2058
   50CHL1    H3 6108   4.057   6.518  10.024  2.2670 -2.1077 -2.4261
   50CHL1    O3 6109   4.166   6.600  10.188  0.4474 -0.1649  0.2537
   50CHL1   H3' 6110   4.252   6.642  10.190  0.5466 -0.2680 -0.8682
   50CHL1    C4 6111   4.266   6.491  10.002 -1.0931 -0.1495  0.0435
   50CHL1   H4A 6112   4.358   6.544  10.035 -0.9638  1.3731 -2.4832
   50CHL1   H4B 6113   4.268   6.389  10.046 -1.4807 -0.1957 -0.0433
   50CHL1    C5 6114   4.290   6.490   9.856 -0.0736  0.5759  0.4942
   50CHL1    C6 6115   4.315   6.375   9.788  0.0913  0.5496  0.0673
   50CHL1    H6 6116   4.334   6.278   9.835 -0.4360 -0.9330 -2.6148
   50CHL1    C7 6117   4.334   6.362   9.640 -0.4511  0.7044 -0.6970
   50CHL1   H7A 6118   4.427   6.301   9.632 -0.0004  1.0329  1.3985
   50CHL1   H7B 6119   4.257   6.299   9.592  0.2884 -0.6826 -0.1166
   50CHL1    C8 6120   4.358   6.497   9.581  0.6446 -0.1109  0.5241
   50CHL1    H8 6121   4.464   6.527   9.593  0.5913  0.1465  0.3457
   50CHL1   C14 6122   4.329   6.483   9.422 -0.4035  0.2230 -0.4897
   50CHL1   H14 6123   4.219   6.471   9.411 -0.5948 -0.5735  1.7874
   50CHL1   C15 6124   4.405   6.376   9.343  0.3404 -0.4976 -0.6317
   50CHL1  H15A 6125   4.508   6.369   9.383 -0.3303 -1.5187  1.0018
   50CHL1  H15B 6126   4.350   6.282   9.362 -0.0768 -0.2630 -0.6610
   50CHL1   C16 6127   4.400   6.424   9.198  0.1662  0.0202  0.4082
   50CHL1  H16A 6128   4.503   6.447   9.163  0.2049 -1.4322 -0.4839
   50CHL1  H16B 6129   4.351   6.355   9.127  0.9548  2.1078 -2.3344
   50CHL1   C17 6130   4.325   6.567   9.195  0.1907  0.3526 -0.2808
   50CHL1   H17 6131   4.218   6.541   9.183  0.5351 -1.0336 -0.5084
   50CHL1   C13 6132   4.353   6.612   9.339 -0.5559  0.9431 -0.5691
   50CHL1   C18 6133   4.497   6.666   9.359 -0.2369 -0.8485  0.0779
   50CHL1  H18A 6134   4.524   6.692   9.463 -0.6476 -1.5040  0.3533
   50CHL1  H18B 6135   4.562   6.580   9.330  0.0338 -1.2707  1.8408
   50CHL1  H18C 6136   4.535   6.751   9.299  1.2858 -1.6252 -0.1164
   50CHL1   C12 6137   4.265   6.718   9.397  0.1053 -0.0429 -0.4088
   50CHL1  H12A 6138   4.295   6.816   9.355 -1.3027 -0.0955 -1.6288
   50CHL1  H12B 6139   4.158   6.697   9.374 -0.3515  1.9521 -0.3128
   50CHL1   C11 6140   4.289   6.736   9.549  0.7213  0.1966  0.9389
   50CHL1  H11A 6141   4.389   6.774   9.578  1.9317 -0.7628 -1.6649
   50CHL1  H11B 6142   4.216   6.815   9.579  0.3844  1.4319 -2.6047
   50CHL1    C9 6143   4.265   6.604   9.633 -0.8833 -0.3089  0.4542
   50CHL1    H9 6144   4.158   6.578   9.620 -0.3405 -2.6745  0.3037
   50CHL1   C10 6145   4.282   6.623   9.785 -0.2607 -0.0596 -0.5548
   50CHL1   C19 6146   4.409   6.707   9.819  0.3440  0.0175  0.1228
   50CHL1  H19A 6147   4.497   6.677   9.757 -1.2796 -4.9739 -0.2527
   50CHL1  H19B 6148   4.403   6.813   9.787 -1.1762 -0.5019 -1.5157
   50CHL1  H19C 6149   4.436   6.697   9.926 -0.4137 -1.5410  0.2072
   50CHL1    C1 6150   4.163   6.714   9.840 -0.0433  0.3601 -0.1726
   50CHL1   H1A 6151   4.179   6.818   9.805  0.3173  0.1669 -0.5956
   50CHL1   H1B 6152   4.068   6.676   9.796  0.2737  1.0672 -1.5297
   50CHL1    C2 6153   4.141   6.716   9.990  0.8849 -0.7617  0.3202
   50CHL1   H2A 6154   4.038   6.750  10.016  1.4791  0.1360  1.6076
   50CHL1   H2B 6155   4.210   6.788  10.037 -0.3675  1.3038 -0.8646
   50CHL1   C20 6156   4.377   6.653   9.079 -0.2428 -0.2146 -0.3183
   50CHL1   H20 6157   4.482   6.676   9.107 -0.7054  2.9521 -0.8125
   50CHL1   C21 6158   4.312   6.795   9.065 -0.1436  0.3759  0.6340
   50CHL1  H21A 6159   4.368   6.860   8.994 -1.1743  0.0265 -0.5183
   50CHL1  H21B 6160   4.332   6.852   9.159 -0.5222  1.5109  0.0463
   50CHL1  H21C 6161   4.203   6.790   9.046 -0.5199  0.1868  2.6600
   50CHL1   C22 6162   4.379   6.592   8.940 -0.3003 -0.5203 -0.0416
   50CHL1  H22A 6163   4.425   6.674   8.880 -1.2310  0.6436  0.7949
   50CHL1  H22B 6164   4.448   6.506   8.926  0.2083 -0.1121 -0.0899
   50CHL1   C23 6165   4.248   6.547   8.878  0.1765  0.0428  0.1321
   50CHL1  H23A 6166   4.219   6.463   8.944  0.1556  0.4885  0.6964
   50CHL1  H23B 6167   4.182   6.635   8.889  0.4896  0.2708  0.2093
   50CHL1   C24 6168   4.249   6.495   8.735 -0.3609  0.4369 -0.3799
   50CHL1  H24A 6169   4.283   6.573   8.664  2.6557 -2.4916 -2.4819
   50CHL1  H24B 6170   4.310   6.403   8.731 -0.8206  0.1413 -3.1450
   50CHL1   C25 6171   4.104   6.470   8.693 -0.7560 -0.2182 -0.5261
   50CHL1   H25 6172   4.039   6.549   8.737 -3.2435 -2.2249 -0.3765
   50CHL1   C26 6173   4.086   6.494   8.536 -0.8340 -0.0708 -0.5510
   50CHL1  H26A 6174   4.168   6.434   8.490 -0.5923 -2.4810  2.6857
   50CHL1  H26B 6175   3.987   6.461   8.496 -0.3288 -1.6219 -0.6100
   50CHL1  H26C 6176   4.097   6.603   8.519 -1.1047 -0.1397 -1.2408
   50CHL1   C27 6177   4.054   6.331   8.746  0.0914 -0.0589 -0.0042
   50CHL1  H27A 6178   4.081   6.265   8.660  0.6655 -0.6804  0.6441
   50CHL1  H27B 6179   4.098   6.303   8.844 -0.9936  0.9264  0.7889
   50CHL1  H27C 6180   3.945   6.340   8.762  0.2316  2.2222  0.0496
   51CHL1    C3 6181   6.761   1.478  10.287  0.0817 -0.0467 -0.2987
   51CHL1    H3 6182   6.659   1.460  10.247 -0.6614 -0.3362  1.6252
   51CHL1    O3 6183   6.734   1.490  10.423 -0.2486  0.2590  0.1376
   51CHL1   H3' 6184   6.814   1.468  10.472 -0.4395 -2.4679 -0.6358
   51CHL1    C4 6185   6.864   1.378  10.261 -0.4638 -0.4744  0.1393
   51CHL1   H4A 6186   6.959   1.400  10.314  0.6353 -0.0983 -1.9054
   51CHL1   H4B 6187   6.815   1.285  10.297 -2.9356  1.2582  1.5717
   51CHL1    C5 6188   6.881   1.367  10.109 -0.0559  0.4604 -0.2572
   51CHL1    C6 6189   6.852   1.254  10.048 -0.6617 -0.1711 -0.0466
   51CHL1    H6 6190   6.816   1.170  10.109 -1.0541  1.7723  2.5604
   51CHL1    C7 6191   6.869   1.234   9.898  0.2957 -0.3613 -0.0398
   51CHL1   H7A 6192   6.919   1.135   9.890 -0.4337 -0.6875 -0.6584
   51CHL1   H7B 6193   6.769   1.218   9.854  0.5159 -0.2166 -0.6079
   51CHL1    C8 6194   6.949   1.343   9.825 -0.5582  0.1781  0.1864
   51CHL1    H8 6195   7.057   1.328   9.848 -0.4281  1.4058  0.4732
   51CHL1   C14 6196   6.931   1.327   9.672 -0.1584 -0.1689 -0.7675
   51CHL1   H14 6197   6.821   1.324   9.655 -0.5126 -0.0617  1.2776
   51CHL1   C15 6198   6.969   1.195   9.607  0.3629  0.7135  0.9376
   51CHL1  H15A 6199   7.070   1.164   9.641  0.5254 -1.3863 -1.1749
   51CHL1  H15B 6200   6.901   1.107   9.612 -1.7465  2.1103 -0.8065
   51CHL1   C16 6201   6.980   1.242   9.458 -0.1366  0.5351 -0.7481
   51CHL1  H16A 6202   7.085   1.233   9.423  1.0645 -1.7390  2.8914
   51CHL1  H16B 6203   6.905   1.204   9.385 -1.3553  1.6650 -0.1322
   51CHL1   C17 6204   6.961   1.400   9.448 -0.5493  0.4919 -0.1107
   51CHL1   H17 6205   6.853   1.416   9.427 -0.0781  2.2149 -1.4492
   51CHL1   C13 6206   6.985   1.447   9.591 -0.0715 -0.6362  0.9343
   51CHL1   C18 6207   7.144   1.450   9.612  0.0355 -0.5827  0.6217
   51CHL1  H18A 6208   7.178   1.475   9.715  0.2657 -2.9942  1.1934
   51CHL1  H18B 6209   7.187   1.350   9.590  0.8464 -0.9044  3.2448
   51CHL1  H18C 6210   7.204   1.530   9.564 -0.5417 -0.5004  0.0315
   51CHL1   C12 6211   6.904   1.570   9.640 -0.1608  0.1911  0.0506
   51CHL1  H12A 6212   6.919   1.665   9.585 -2.2340  1.4212  1.5056
   51CHL1  H12B 6213   6.797   1.548   9.622 -0.2502  0.3300  0.4227
   51CHL1   C11 6214   6.947   1.594   9.788 -0.2952  0.2711  0.4636
   51CHL1  H11A 6215   7.053   1.624   9.801 -0.1003  0.2525 -0.8755
   51CHL1  H11B 6216   6.884   1.680   9.818 -0.6309  0.4816 -0.7647
   51CHL1    C9 6217   6.901   1.475   9.878  0.4135 -0.1557 -0.4870
   51CHL1    H9 6218   6.792   1.474   9.857  0.2483 -0.4427  0.3506
   51CHL1   C10 6219   6.921   1.492  10.028  0.0802 -0.4958  0.2496
   51CHL1   C19 6220   7.076   1.520  10.050  0.4479  0.6020  0.1737
   51CHL1  H19A 6221   7.094   1.571  10.147  1.3760 -2.5917  1.8153
   51CHL1  H19B 6222   7.128   1.422  10.053 -1.9188 -0.6949  1.4197
   51CHL1  H19C 6223   7.121   1.593   9.978 -2.2159  0.6385 -1.6194
   51CHL1    C1 6224   6.844   1.615  10.086 -0.3481 -0.0898  0.3443
   51CHL1   H1A 6225   6.900   1.709  10.063  0.3582 -0.7400 -0.6978
   51CHL1   H1B 6226   6.746   1.623  10.034  0.7214  0.3890 -1.6941
   51CHL1    C2 6227   6.815   1.611  10.244  0.5299 -0.8429 -0.5928
   51CHL1   H2A 6228   6.750   1.696  10.273  0.1026 -0.8977 -1.3598
   51CHL1   H2B 6229   6.916   1.620  10.289  0.3963  0.4971 -0.5471
   51CHL1   C20 6230   7.046   1.453   9.334 -0.0039 -0.1497  0.0908
   51CHL1   H20 6231   7.151   1.429   9.357 -0.8616 -1.3075  3.3520
   51CHL1   C21 6232   7.042   1.606   9.346  0.4314 -0.2489 -0.3204
   51CHL1  H21A 6233   7.112   1.647   9.270  0.2577 -1.1350 -0.9711
   51CHL1  H21B 6234   7.079   1.641   9.445  1.0528  1.5183 -1.1303
   51CHL1  H21C 6235   6.941   1.650   9.332  1.6011  2.1547 -2.0055
   51CHL1   C22 6236   6.999   1.413   9.192  0.0130  0.4368 -0.2192
   51CHL1  H22A 6237   6.993   1.302   9.186  2.1212  0.1584  1.2719
   51CHL1  H22B 6238   6.903   1.463   9.170  0.4407  0.4232 -2.2777
   51CHL1   C23 6239   7.094   1.460   9.080  0.0763 -0.4082  0.6046
   51CHL1  H23A 6240   7.099   1.570   9.067 -0.9834 -0.4990 -0.7103
   51CHL1  H23B 6241   7.198   1.423   9.095  0.7429 -0.9226 -3.8746
   51CHL1   C24 6242   7.045   1.402   8.949 -0.1592 -0.0996 -0.6478
   51CHL1  H24A 6243   7.054   1.291   8.952 -0.6273 -0.1271  1.3550
   51CHL1  H24B 6244   6.938   1.432   8.953 -0.2536 -0.5331  0.3816
   51CHL1   C25 6245   7.117   1.457   8.821 -0.5933 -0.7624  0.3993
   51CHL1   H25 6246   7.097   1.566   8.825  2.3946 -0.1775  2.5449
   51CHL1   C26 6247   7.270   1.441   8.823  0.1440  0.0045 -0.2162
   51CHL1  H26A 6248   7.291   1.333   8.807 -1.0325 -0.4251  0.8805
   51CHL1  H26B 6249   7.328   1.491   8.743 -0.9749  1.7141  0.0021
   51CHL1  H26C 6250   7.296   1.470   8.927 -2.9440  2.0336  0.1190
   51CHL1   C27 6251   7.042   1.385   8.703 -0.9334 -0.5174  0.5014
   51CHL1  H27A 6252   7.057   1.275   8.698 -2.1320 -0.6359 -1.4018
   51CHL1  H27B 6253   6.936   1.418   8.703  0.1914  3.6798  1.5571
   51CHL1  H27C 6254   7.081   1.423   8.606 -0.8444 -2.9504 -0.5045
   52CHL1    C3 6255   6.001   0.880  10.225 -0.9010 -0.4849 -0.3549
   52CHL1    H3 6256   6.017   0.770  10.216  0.1947 -0.3603  0.0146
   52CHL1    O3 6257   6.005   0.910  10.364 -0.1870 -0.5682  0.0556
   52CHL1   H3' 6258   6.082   0.867  10.403  0.1948 -1.5387 -1.6530
   52CHL1    C4 6259   6.119   0.958  10.169 -0.3750 -0.1893  0.3831
   52CHL1   H4A 6260   6.107   1.064  10.198 -0.4798 -0.3927  1.0935
   52CHL1   H4B 6261   6.214   0.932  10.221  0.6211  1.5667 -0.4837
   52CHL1    C5 6262   6.135   0.936  10.018  0.8618 -0.1220 -0.6513
   52CHL1    C6 6263   6.250   0.884   9.975  0.0288 -0.6790 -0.0275
   52CHL1    H6 6264   6.330   0.856  10.045  0.6731 -3.4486 -1.7293
   52CHL1    C7 6265   6.278   0.850   9.832  0.1167  0.1101  0.5657
   52CHL1   H7A 6266   6.377   0.877   9.790 -0.3555 -0.4034 -0.9283
   52CHL1   H7B 6267   6.265   0.743   9.809 -2.4618  0.2145  1.1892
   52CHL1    C8 6268   6.179   0.935   9.750  0.1491 -0.0937 -0.4859
   52CHL1    H8 6269   6.215   1.040   9.750 -0.5237  0.1499  0.3141
   52CHL1   C14 6270   6.187   0.894   9.605  0.3082 -0.5870 -0.2032
   52CHL1   H14 6271   6.140   0.793   9.598 -2.2164  0.6061 -2.8425
   52CHL1   C15 6272   6.329   0.878   9.541  0.2713 -0.1153 -0.1175
   52CHL1  H15A 6273   6.378   0.977   9.557 -1.9035  1.2950 -1.5687
   52CHL1  H15B 6274   6.391   0.798   9.587 -0.9994 -1.1481 -0.1402
   52CHL1   C16 6275   6.309   0.863   9.398  0.0701  1.4489  0.2323
   52CHL1  H16A 6276   6.378   0.933   9.345 -0.2535  1.3713 -0.3060
   52CHL1  H16B 6277   6.327   0.757   9.367 -0.0128  0.7246  2.5104
   52CHL1   C17 6278   6.162   0.906   9.375 -0.3991  0.1652  0.6160
   52CHL1   H17 6279   6.105   0.810   9.370  0.5999 -0.4247  0.3334
   52CHL1   C13 6280   6.109   0.969   9.501 -0.4276 -0.4610  0.3177
   52CHL1   C18 6281   6.150   1.121   9.501 -0.3029  0.5543  0.2033
   52CHL1  H18A 6282   6.256   1.128   9.469  0.4573 -1.4090  2.0680
   52CHL1  H18B 6283   6.080   1.171   9.431 -0.0650  0.2895 -0.2316
   52CHL1  H18C 6284   6.131   1.166   9.601 -1.9574  0.9602 -0.2685
   52CHL1   C12 6285   5.962   0.957   9.540  0.0099  0.0205 -0.1734
   52CHL1  H12A 6286   5.887   1.014   9.481 -0.8052  1.5046  2.1495
   52CHL1  H12B 6287   5.940   0.848   9.528 -0.8674 -0.0720  1.8463
   52CHL1   C11 6288   5.941   0.989   9.688  0.6504 -0.7127 -0.2730
   52CHL1  H11A 6289   5.947   1.099   9.703  0.0722 -0.6730 -0.3046
   52CHL1  H11B 6290   5.842   0.960   9.729  1.2220 -0.6685  1.2143
   52CHL1    C9 6291   6.033   0.918   9.792 -0.4677  0.0632  0.0389
   52CHL1    H9 6292   6.003   0.811   9.783 -0.7973  0.1663 -0.0955
   52CHL1   C10 6293   6.006   0.963   9.938 -0.3550  0.1718  0.3875
   52CHL1   C19 6294   5.979   1.113   9.951 -0.5165 -0.0895  0.3136
   52CHL1  H19A 6295   5.968   1.151  10.055  0.6332 -2.8932  1.5549
   52CHL1  H19B 6296   6.053   1.179   9.900 -1.1881 -0.3822 -1.0720
   52CHL1  H19C 6297   5.881   1.142   9.909  0.2431  1.4469 -0.4748
   52CHL1    C1 6298   5.883   0.884  10.003 -0.1894  0.0536 -0.1593
   52CHL1   H1A 6299   5.788   0.927   9.966  1.3912  3.5454 -0.4966
   52CHL1   H1B 6300   5.887   0.774   9.984  2.3042  0.2956 -1.4951
   52CHL1    C2 6301   5.870   0.905  10.156 -0.0622 -0.7014 -0.1234
   52CHL1   H2A 6302   5.790   0.844  10.204  0.1006 -0.0870  0.9543
   52CHL1   H2B 6303   5.838   1.010  10.173 -0.6752 -0.7035 -1.1652
   52CHL1   C20 6304   6.135   0.980   9.245  0.0212 -0.3980 -0.0784
   52CHL1   H20 6305   6.198   1.073   9.246 -2.5512  1.5031  2.6632
   52CHL1   C21 6306   5.988   1.028   9.228 -0.6391 -0.0832  0.1753
   52CHL1  H21A 6307   5.974   1.088   9.135 -1.9505 -2.3624 -1.1843
   52CHL1  H21B 6308   5.951   1.089   9.314  0.2632 -1.1469  1.3448
   52CHL1  H21C 6309   5.930   0.935   9.212  1.7597 -1.4442 -1.0634
   52CHL1   C22 6310   6.172   0.899   9.121 -0.3625 -0.1319 -0.1554
   52CHL1  H22A 6311   6.251   0.823   9.135 -1.2189 -0.7513  1.6028
   52CHL1  H22B 6312   6.085   0.830   9.110 -0.1148 -0.6299  0.9297
   52CHL1   C23 6313   6.189   0.987   8.994 -0.7417  0.0978 -0.5425
   52CHL1  H23A 6314   6.100   1.050   8.970 -0.3509  1.6648  1.7747
   52CHL1  H23B 6315   6.284   1.043   8.992 -0.7659  0.1546 -0.1070
   52CHL1   C24 6316   6.196   0.890   8.873  0.4474  0.1504  0.3259
   52CHL1  H24A 6317   6.287   0.829   8.889  0.3543  0.3607  1.7796
   52CHL1  H24B 6318   6.106   0.825   8.874  0.6250 -0.1349 -0.8487
   52CHL1   C25 6319   6.186   0.962   8.735 -0.1986  0.2896 -0.5769
   52CHL1   H25 6320   6.257   1.047   8.730 -0.0659  0.1523 -1.0895
   52CHL1   C26 6321   6.236   0.863   8.626 -0.7972 -0.3284 -0.5236
   52CHL1  H26A 6322   6.339   0.828   8.647  1.0695  2.6324 -3.7175
   52CHL1  H26B 6323   6.163   0.779   8.635 -3.0318  1.6752  1.2968
   52CHL1  H26C 6324   6.235   0.915   8.528 -0.3604  2.0463  0.6650
   52CHL1   C27 6325   6.037   1.006   8.712 -0.4471 -0.0505 -0.1527
   52CHL1  H27A 6326   5.965   0.921   8.704 -2.9431  2.0387 -1.8687
   52CHL1  H27B 6327   6.003   1.077   8.790  4.0966  2.2204  0.0728
   52CHL1  H27C 6328   6.029   1.057   8.613 -1.8858  1.2054  0.5631
   53CHL1    C3 6329   4.200   0.961   9.860 -0.6838 -0.3280 -0.1187
   53CHL1    H3 6330   4.194   1.070   9.839  0.7621 -0.0183  0.9003
   53CHL1    O3 6331   4.216   0.939  10.001 -0.0790  0.4353 -0.3310
   53CHL1   H3' 6332   4.152   0.869  10.018  1.3294 -0.6705  0.6358
   53CHL1    C4 6333   4.064   0.898   9.817  0.3426 -0.4606  0.2900
   53CHL1   H4A 6334   4.051   0.797   9.862  0.9082 -0.0390  1.4541
   53CHL1   H4B 6335   3.983   0.963   9.858  3.2666  2.3418  2.1086
   53CHL1    C5 6336   4.053   0.897   9.664 -0.7815 -0.3007  0.2627
   53CHL1    C6 6337   3.948   0.956   9.602  0.8839  0.2826 -0.1232
   53CHL1    H6 6338   3.867   0.999   9.662 -1.0051 -1.5723 -1.1926
   53CHL1    C7 6339   3.919   0.960   9.456  0.6591 -0.0430  0.1072
   53CHL1   H7A 6340   3.815   0.922   9.441 -0.0904  0.9942  2.1839
   53CHL1   H7B 6341   3.936   1.062   9.415  0.0728 -0.3364 -0.8882
   53CHL1    C8 6342   4.015   0.862   9.379  0.5205  0.6691 -0.0867
   53CHL1    H8 6343   3.986   0.756   9.396 -0.8291  0.8913 -0.8759
   53CHL1   C14 6344   3.999   0.893   9.228 -0.8258  0.1537 -0.6478
   53CHL1   H14 6345   4.022   1.002   9.219  1.3313 -0.2965 -1.1621
   53CHL1   C15 6346   3.856   0.894   9.167  0.0897 -0.3850 -0.3715
   53CHL1  H15A 6347   3.800   0.800   9.186  1.0663 -0.6952  1.1061
   53CHL1  H15B 6348   3.785   0.972   9.202 -1.0688 -1.8784  0.7144
   53CHL1   C16 6349   3.883   0.904   9.013  0.2611 -0.1209 -0.6070
   53CHL1  H16A 6350   3.820   0.829   8.960 -0.3629 -1.4936  1.9446
   53CHL1  H16B 6351   3.872   1.010   8.981 -2.1224  0.8907  3.0556
   53CHL1   C17 6352   4.032   0.865   8.996 -0.5016  0.2755 -0.0470
   53CHL1   H17 6353   4.090   0.959   8.993  2.1230 -1.2459 -0.6619
   53CHL1   C13 6354   4.083   0.816   9.134 -0.0305  0.2343  0.2847
   53CHL1   C18 6355   4.059   0.666   9.150  1.1815  0.5014  0.8633
   53CHL1  H18A 6356   4.131   0.602   9.095 -0.3343 -0.7396  0.2184
   53CHL1  H18B 6357   4.053   0.640   9.258  2.4495 -2.0677  0.3870
   53CHL1  H18C 6358   3.962   0.636   9.105  2.3030 -1.3290 -0.4839
   53CHL1   C12 6359   4.227   0.838   9.179  0.1154 -0.5272  0.0264
   53CHL1  H12A 6360   4.302   0.780   9.121  0.0350  0.8423 -1.5146
   53CHL1  H12B 6361   4.258   0.943   9.157  3.2995 -0.9298  1.8873
   53CHL1   C11 6362   4.265   0.810   9.328  0.2013 -0.6678  0.4894
   53CHL1  H11A 6363   4.274   0.700   9.341 -1.1113 -1.1348 -1.8913
   53CHL1  H11B 6364   4.363   0.853   9.358  0.0980  0.7534 -1.0221
   53CHL1    C9 6365   4.163   0.870   9.425 -0.7499  0.4868 -0.2057
   53CHL1    H9 6366   4.190   0.978   9.429  1.4044 -0.0199  0.2333
   53CHL1   C10 6367   4.176   0.840   9.578 -0.0028  0.3656  0.7884
   53CHL1   C19 6368   4.166   0.684   9.609  0.1386 -0.3214 -0.2575
   53CHL1  H19A 6369   4.087   0.636   9.548 -1.2992 -0.7979  1.8468
   53CHL1  H19B 6370   4.261   0.644   9.568  0.8821  2.3529 -1.3943
   53CHL1  H19C 6371   4.155   0.663   9.718 -0.1336  0.8569 -0.0439
   53CHL1    C1 6372   4.307   0.904   9.634 -0.5151  0.6832 -0.2633
   53CHL1   H1A 6373   4.395   0.852   9.590 -1.1879  1.5769 -2.8416
   53CHL1   H1B 6374   4.316   1.011   9.604 -2.4853  0.7259 -0.8099
   53CHL1    C2 6375   4.321   0.902   9.789 -0.2145  0.1291 -0.3919
   53CHL1   H2A 6376   4.404   0.971   9.817  0.4683 -1.1784  0.9462
   53CHL1   H2B 6377   4.358   0.802   9.821 -0.5985 -0.0701 -0.5654
   53CHL1   C20 6378   4.064   0.786   8.863  0.1592 -0.0805 -0.1452
   53CHL1   H20 6379   4.016   0.686   8.861  0.3904 -0.2753  1.6373
   53CHL1   C21 6380   4.216   0.758   8.849 -0.4278 -0.5551  0.7816
   53CHL1  H21A 6381   4.230   0.674   8.921 -0.1752 -0.7787  0.4769
   53CHL1  H21B 6382   4.280   0.847   8.866  0.2968 -0.6841 -1.0293
   53CHL1  H21C 6383   4.233   0.706   8.752 -1.4491 -1.2845  0.9792
   53CHL1   C22 6384   4.020   0.870   8.745 -0.1963 -0.6429 -0.6005
   53CHL1  H22A 6385   3.921   0.918   8.763 -0.6384 -2.0956  1.1260
   53CHL1  H22B 6386   4.090   0.955   8.728  0.2286 -0.5889  1.2167
   53CHL1   C23 6387   4.010   0.783   8.618  0.4469  0.2149 -0.3276
   53CHL1  H23A 6388   4.101   0.720   8.614 -0.2993 -1.2274  2.5660
   53CHL1  H23B 6389   3.935   0.702   8.633  0.9372 -0.1950 -0.0318
   53CHL1   C24 6390   3.981   0.858   8.497  0.1722 -0.2059  0.2392
   53CHL1  H24A 6391   3.899   0.931   8.516  0.2654  0.1334 -0.6199
   53CHL1  H24B 6392   4.076   0.914   8.482 -0.3963  0.8222  0.3192
   53CHL1   C25 6393   3.951   0.774   8.367 -0.7120  0.2835  0.8756
   53CHL1   H25 6394   3.852   0.727   8.383 -0.8580  0.6844  1.1621
   53CHL1   C26 6395   3.930   0.873   8.252 -0.2153 -0.0932  0.4593
   53CHL1  H26A 6396   3.905   0.816   8.160 -0.3214 -0.6484  0.8290
   53CHL1  H26B 6397   3.849   0.945   8.277 -0.1723  0.8264 -1.7862
   53CHL1  H26C 6398   4.015   0.941   8.230 -2.2982  2.1061 -1.3173
   53CHL1   C27 6399   4.062   0.674   8.332 -0.5204 -0.5083 -0.3642
   53CHL1  H27A 6400   4.086   0.598   8.409 -0.2164 -0.7873 -0.7283
   53CHL1  H27B 6401   4.053   0.618   8.236  1.4000  0.5047 -1.1991
   53CHL1  H27C 6402   4.150   0.739   8.313  0.0059 -1.4315 -1.1757
   54CHL1    C3 6403   4.228   1.863  10.129 -0.3977 -0.3099 -0.4194
   54CHL1    H3 6404   4.119   1.880  10.139  0.1065  2.4882  1.7127
   54CHL1    O3 6405   4.281   1.818  10.247  0.3199  0.1365 -0.1611
   54CHL1   H3' 6406   4.262   1.896  10.299 -1.3248 -0.4433  0.1545
   54CHL1    C4 6407   4.266   1.777  10.011  0.7448 -0.4000 -0.2102
   54CHL1   H4A 6408   4.374   1.755  10.021  0.5554 -2.3430 -1.6714
   54CHL1   H4B 6409   4.213   1.681  10.032  0.3653  0.0653  1.0337
   54CHL1    C5 6410   4.240   1.828   9.874  0.0932 -0.8258  0.1476
   54CHL1    C6 6411   4.169   1.762   9.782  0.2863 -0.2536 -0.9453
   54CHL1    H6 6412   4.139   1.659   9.808  2.1796 -0.1617  2.2104
   54CHL1    C7 6413   4.134   1.823   9.643 -0.4519  0.0444  0.4357
   54CHL1   H7A 6414   4.132   1.753   9.556 -1.9351  0.3853  0.1655
   54CHL1   H7B 6415   4.042   1.885   9.647  0.7295  2.0346 -1.5093
   54CHL1    C8 6416   4.247   1.923   9.604 -0.6497 -0.1624 -0.5347
   54CHL1    H8 6417   4.339   1.861   9.595 -1.0734 -0.9930  0.5764
   54CHL1   C14 6418   4.205   1.989   9.473 -0.3993  0.4177 -0.6557
   54CHL1   H14 6419   4.115   2.048   9.497 -1.5415 -1.3165 -0.5232
   54CHL1   C15 6420   4.159   1.901   9.359  0.2784 -0.3832  0.1690
   54CHL1  H15A 6421   4.216   1.806   9.346 -1.2659 -1.2646 -0.4951
   54CHL1  H15B 6422   4.050   1.879   9.355 -0.4862  3.0488 -0.3043
   54CHL1   C16 6423   4.182   2.001   9.238  0.2907  0.3178  0.5375
   54CHL1  H16A 6424   4.243   1.936   9.172 -0.6944  1.2548 -1.3918
   54CHL1  H16B 6425   4.085   2.025   9.189  0.8878 -0.3694 -1.0848
   54CHL1   C17 6426   4.255   2.118   9.290 -0.1691  0.1267  0.0350
   54CHL1   H17 6427   4.185   2.199   9.318  1.2484  0.7682  1.8932
   54CHL1   C13 6428   4.318   2.077   9.425 -0.1231  0.3100  1.0315
   54CHL1   C18 6429   4.455   1.993   9.404 -0.4260  0.6501 -0.2363
   54CHL1  H18A 6430   4.527   2.041   9.335  2.0102  1.0294  2.3826
   54CHL1  H18B 6431   4.509   1.966   9.497  1.1982  2.8895 -0.4601
   54CHL1  H18C 6432   4.430   1.896   9.355 -0.8793  0.3258  0.6078
   54CHL1   C12 6433   4.330   2.194   9.523 -0.2606 -0.0142  0.2142
   54CHL1  H12A 6434   4.394   2.283   9.499 -0.9064  0.1560 -0.9198
   54CHL1  H12B 6435   4.229   2.238   9.537 -0.4764 -0.5998  0.5200
   54CHL1   C11 6436   4.353   2.156   9.672  0.0308 -0.1214  0.6209
   54CHL1  H11A 6437   4.461   2.133   9.666  0.1831  0.8826 -2.1083
   54CHL1  H11B 6438   4.340   2.244   9.739  2.4466 -0.3327  1.4476
   54CHL1    C9 6439   4.267   2.034   9.714  0.9659  0.1380 -0.9898
   54CHL1    H9 6440   4.166   2.077   9.730 -0.1234 -1.8352 -2.1413
   54CHL1   C10 6441   4.299   1.967   9.854 -0.4245 -0.3186  0.1623
   54CHL1   C19 6442   4.453   1.953   9.853 -0.2928 -0.0249 -0.1605
   54CHL1  H19A 6443   4.506   2.050   9.863  0.4790 -0.2946 -1.4059
   54CHL1  H19B 6444   4.489   1.903   9.946 -0.2554 -0.1291 -0.2311
   54CHL1  H19C 6445   4.491   1.893   9.768 -0.3936  0.4417 -0.5424
   54CHL1    C1 6446   4.254   2.063   9.968 -0.1156 -0.3127 -0.3012
   54CHL1   H1A 6447   4.283   2.170   9.964  0.9199 -0.5501  0.4866
   54CHL1   H1B 6448   4.143   2.062   9.981 -0.0819 -1.1881 -0.0549
   54CHL1    C2 6449   4.295   2.006  10.108 -0.1584 -0.0031 -1.0828
   54CHL1   H2A 6450   4.263   2.075  10.190 -0.5470  0.3385 -1.5191
   54CHL1   H2B 6451   4.406   2.001  10.112  0.0262  2.1470 -2.0511
   54CHL1   C20 6452   4.349   2.179   9.183  0.1238 -0.0854  0.0742
   54CHL1   H20 6453   4.422   2.108   9.141  0.5734 -0.0076  0.7165
   54CHL1   C21 6454   4.446   2.289   9.224 -0.1587 -0.1571 -0.3660
   54CHL1  H21A 6455   4.400   2.377   9.272  0.3751 -0.2574  0.3540
   54CHL1  H21B 6456   4.490   2.326   9.130 -1.0406  0.2520 -0.6235
   54CHL1  H21C 6457   4.527   2.252   9.291  0.4001  0.3449 -0.7569
   54CHL1   C22 6458   4.250   2.222   9.061 -0.2441 -0.2648 -0.4456
   54CHL1  H22A 6459   4.328   2.243   8.984 -0.0925 -0.6673 -0.4012
   54CHL1  H22B 6460   4.198   2.134   9.018 -0.6772  0.0432 -0.5578
   54CHL1   C23 6461   4.152   2.337   9.076  0.5725  0.3761  0.8624
   54CHL1  H23A 6462   4.070   2.298   9.140 -2.0379  2.9219 -0.6665
   54CHL1  H23B 6463   4.190   2.427   9.128 -1.5732  1.4715  0.6420
   54CHL1   C24 6464   4.071   2.372   8.950 -0.1856 -0.5499  0.6544
   54CHL1  H24A 6465   4.018   2.277   8.925  0.9548 -0.9185 -0.5224
   54CHL1  H24B 6466   4.002   2.453   8.979  0.7865  0.2654  0.7683
   54CHL1   C25 6467   4.155   2.418   8.830 -0.2190  0.6723 -0.2903
   54CHL1   H25 6468   4.210   2.329   8.794  0.3552  0.7551  0.3706
   54CHL1   C26 6469   4.074   2.463   8.712 -0.2925  0.0001  0.4288
   54CHL1  H26A 6470   4.007   2.549   8.734 -0.2326  0.3040 -0.5072
   54CHL1  H26B 6471   4.133   2.497   8.624 -1.3660  2.7583  0.6804
   54CHL1  H26C 6472   4.011   2.379   8.675 -1.1905  1.8635 -2.6121
   54CHL1   C27 6473   4.259   2.524   8.867 -0.6537  0.0789 -0.9058
   54CHL1  H27A 6474   4.322   2.557   8.782  1.1891  2.8199  1.3378
   54CHL1  H27B 6475   4.208   2.612   8.911 -0.3309 -0.8521  1.5030
   54CHL1  H27C 6476   4.326   2.485   8.947 -2.6194  0.3088  0.9484
   55CHL1    C3 6477   0.120   3.904  10.167  0.3769 -0.7563  0.2530
   55CHL1    H3 6478   0.163   4.002  10.135  0.8389 -0.8234  0.6546
   55CHL1    O3 6479   0.096   3.907  10.305 -0.5966  0.4668 -0.1922
   55CHL1   H3' 6480   0.161   3.967  10.344  0.5491  0.6775 -2.2732
   55CHL1    C4 6481  -0.008   3.865  10.095  0.3590  0.6930  0.0568
   55CHL1   H4A 6482  -0.044   3.769  10.138 -0.5126  0.4592 -1.1213
   55CHL1   H4B 6483  -0.093   3.934  10.116 -0.4092 -0.2120 -0.0123
   55CHL1    C5 6484   0.010   3.837   9.947  0.0526  0.1056  0.0131
   55CHL1    C6 6485  -0.063   3.904   9.860  0.1689  0.3845 -0.2279
   55CHL1    H6 6486  -0.135   3.976   9.902  1.8802  2.3655 -0.4965
   55CHL1    C7 6487  -0.059   3.886   9.713  0.3501  0.2221 -0.6892
   55CHL1   H7A 6488  -0.166   3.884   9.683 -0.4082 -2.0894  1.7247
   55CHL1   H7B 6489  -0.005   3.966   9.659 -0.1537  1.3284  0.4100
   55CHL1    C8 6490   0.008   3.746   9.680 -0.1661  0.0747  0.4572
   55CHL1    H8 6491  -0.068   3.671   9.709 -2.1541  1.9203  0.3186
   55CHL1   C14 6492   0.044   3.753   9.534  0.1456 -0.0649  0.2884
   55CHL1   H14 6493   0.121   3.832   9.524 -1.7239  1.5937 -2.0387
   55CHL1   C15 6494  -0.067   3.783   9.437  0.1877  0.0867  1.1812
   55CHL1  H15A 6495  -0.156   3.718   9.456 -0.7121  0.7704 -0.4849
   55CHL1  H15B 6496  -0.084   3.893   9.438  1.1911  0.2553  0.2595
   55CHL1   C16 6497  -0.006   3.738   9.301  0.3038 -0.5961  0.4704
   55CHL1  H16A 6498  -0.065   3.657   9.252  0.1362  0.8087 -1.7415
   55CHL1  H16B 6499  -0.009   3.824   9.232  1.3683  1.2192  2.5593
   55CHL1   C17 6500   0.128   3.669   9.330  0.5371  0.1486  0.1734
   55CHL1   H17 6501   0.199   3.754   9.321 -1.0019  1.4154 -0.5554
   55CHL1   C13 6502   0.118   3.630   9.479 -0.5599 -0.5577  0.0855
   55CHL1   C18 6503   0.032   3.513   9.482 -0.0850  0.4757  0.5859
   55CHL1  H18A 6504  -0.063   3.522   9.426  1.2007  1.6249 -1.5486
   55CHL1  H18B 6505   0.077   3.416   9.452 -1.7713 -1.1874  3.0972
   55CHL1  H18C 6506   0.000   3.493   9.587  2.4563 -1.5849  1.0724
   55CHL1   C12 6507   0.250   3.623   9.562  0.0421  0.7785  0.6737
   55CHL1  H12A 6508   0.301   3.528   9.537  1.6516  1.9053 -0.5336
   55CHL1  H12B 6509   0.315   3.698   9.513  2.3454 -1.0433  0.7985
   55CHL1   C11 6510   0.226   3.611   9.708 -0.0607  0.2023  0.2289
   55CHL1  H11A 6511   0.170   3.517   9.728 -0.6412  0.3009 -0.8530
   55CHL1  H11B 6512   0.325   3.599   9.756 -0.1664  0.3042  0.4755
   55CHL1    C9 6513   0.135   3.731   9.767  0.4372 -0.0067  0.0763
   55CHL1    H9 6514   0.190   3.826   9.752  1.5832 -0.6002  0.4629
   55CHL1   C10 6515   0.118   3.729   9.916  0.0560  0.4360  0.0911
   55CHL1   C19 6516   0.069   3.586   9.946  0.1316  0.0654 -0.2622
   55CHL1  H19A 6517   0.159   3.524   9.967 -1.0442 -0.5527  3.9941
   55CHL1  H19B 6518   0.024   3.578  10.048  0.7199  1.6646  0.1598
   55CHL1  H19C 6519  -0.004   3.558   9.868  0.6694  0.4816 -0.9195
   55CHL1    C1 6520   0.243   3.769   9.992  0.2063  0.2138 -0.6718
   55CHL1   H1A 6521   0.314   3.686   9.970 -0.4945  0.0304 -2.4392
   55CHL1   H1B 6522   0.284   3.862   9.948  0.1609  1.7925  2.4152
   55CHL1    C2 6523   0.218   3.788  10.147 -0.4393 -0.5067  0.8962
   55CHL1   H2A 6524   0.319   3.824  10.177  0.3405  1.5383 -3.3364
   55CHL1   H2B 6525   0.183   3.690  10.186 -1.8879 -1.1607 -1.7648
   55CHL1   C20 6526   0.166   3.565   9.230  0.1879  0.1426 -0.1996
   55CHL1   H20 6527   0.090   3.485   9.222 -0.8861  1.1187  0.0299
   55CHL1   C21 6528   0.300   3.498   9.267 -0.0835  0.1892 -1.2717
   55CHL1  H21A 6529   0.286   3.419   9.344 -1.7879  2.5572  1.0274
   55CHL1  H21B 6530   0.365   3.579   9.305 -1.6673  0.8072  0.2515
   55CHL1  H21C 6531   0.352   3.446   9.184  2.7387  0.1219  0.4109
   55CHL1   C22 6532   0.176   3.625   9.085  0.0497  0.3725 -0.2880
   55CHL1  H22A 6533   0.167   3.536   9.019  1.9192  0.1082 -0.2284
   55CHL1  H22B 6534   0.086   3.684   9.057  0.5598  1.1933 -0.2412
   55CHL1   C23 6535   0.299   3.712   9.053 -0.4888 -0.7883  0.5141
   55CHL1  H23A 6536   0.309   3.803   9.117 -1.1807 -1.0307  0.9791
   55CHL1  H23B 6537   0.393   3.654   9.063  0.4139  0.6291  0.6067
   55CHL1   C24 6538   0.281   3.764   8.913 -0.1426  0.0448  0.4411
   55CHL1  H24A 6539   0.260   3.681   8.842  1.3023  3.0875 -4.0137
   55CHL1  H24B 6540   0.187   3.823   8.900 -0.5503 -0.9791 -1.6827
   55CHL1   C25 6541   0.395   3.856   8.858  0.3231  0.4342  0.4280
   55CHL1   H25 6542   0.372   3.887   8.753  0.7023 -3.5600 -0.9940
   55CHL1   C26 6543   0.417   3.986   8.940 -0.3879 -0.5413  0.2885
   55CHL1  H26A 6544   0.326   4.048   8.924  1.3237  2.0990  0.2074
   55CHL1  H26B 6545   0.439   3.957   9.045  1.6355 -2.3023 -0.5602
   55CHL1  H26C 6546   0.503   4.045   8.904 -1.3318 -0.0685 -1.3140
   55CHL1   C27 6547   0.521   3.773   8.828  0.4158 -0.8154  0.1939
   55CHL1  H27A 6548   0.485   3.701   8.752 -1.7691  0.5838 -0.1800
   55CHL1  H27B 6549   0.609   3.823   8.784  0.5467 -1.5655 -0.4200
   55CHL1  H27C 6550   0.566   3.718   8.914  0.4738 -1.2012 -0.0792
   56CHL1    C3 6551   3.810   6.243   9.960 -0.1280 -0.1765 -0.4590
   56CHL1    H3 6552   3.780   6.138   9.980 -2.2307  0.0932 -1.7784
   56CHL1    O3 6553   3.799   6.322  10.084  0.2731  0.6037  0.2890
   56CHL1   H3' 6554   3.859   6.277  10.143 -1.3386 -3.2008 -0.6712
   56CHL1    C4 6555   3.953   6.248   9.910 -0.6504  0.6087  0.3331
   56CHL1   H4A 6556   3.965   6.359   9.905  0.2902  0.5070  0.2740
   56CHL1   H4B 6557   4.019   6.207   9.989  0.6011 -0.6026 -1.2699
   56CHL1    C5 6558   3.978   6.188   9.772  0.1971  0.6428 -0.4469
   56CHL1    C6 6559   4.068   6.089   9.739  0.0719  0.7527 -0.4584
   56CHL1    H6 6560   4.115   6.035   9.822 -1.9216 -1.0414 -0.4132
   56CHL1    C7 6561   4.087   6.029   9.602 -0.6361  0.3810  0.1152
   56CHL1   H7A 6562   4.192   6.021   9.566 -0.6125 -0.4931  0.3643
   56CHL1   H7B 6563   4.046   5.926   9.595  0.9586 -0.3029  0.5186
   56CHL1    C8 6564   4.016   6.113   9.495  0.3202 -0.2180  0.5245
   56CHL1    H8 6565   4.073   6.207   9.474 -1.6925  0.6393 -1.4958
   56CHL1   C14 6566   4.003   6.036   9.359 -0.3590  0.5988 -0.3659
   56CHL1   H14 6567   3.952   5.945   9.396  0.3706  0.2182 -0.2701
   56CHL1   C15 6568   4.134   5.973   9.305  0.4259 -0.8794 -0.3943
   56CHL1  H15A 6569   4.208   6.054   9.295 -0.1611 -0.0534  1.5414
   56CHL1  H15B 6570   4.167   5.877   9.352  0.6221  0.1966  1.7719
   56CHL1   C16 6571   4.088   5.932   9.164 -0.1778 -0.0086  0.0440
   56CHL1  H16A 6572   4.159   5.961   9.084  0.7378  0.4451  0.9860
   56CHL1  H16B 6573   4.083   5.822   9.150  1.1024 -0.0470 -0.2289
   56CHL1   C17 6574   3.947   5.991   9.133  0.8915  0.4282  0.0577
   56CHL1   H17 6575   3.873   5.912   9.158 -0.3516  1.4808 -0.1434
   56CHL1   C13 6576   3.930   6.103   9.239  1.0524  0.3195  0.1883
   56CHL1   C18 6577   4.003   6.229   9.187  0.0241  0.2190 -0.4126
   56CHL1  H18A 6578   4.049   6.286   9.270 -0.4135  0.3356 -0.2471
   56CHL1  H18B 6579   4.076   6.185   9.116 -0.1612  0.5532 -0.8141
   56CHL1  H18C 6580   3.947   6.292   9.114  1.3509 -0.2668 -1.9032
   56CHL1   C12 6581   3.781   6.120   9.286  0.8417  0.2002  0.2576
   56CHL1  H12A 6582   3.714   6.179   9.220  2.2564  2.1049  0.4183
   56CHL1  H12B 6583   3.741   6.024   9.323  3.3438 -0.6938  0.8804
   56CHL1   C11 6584   3.785   6.205   9.421 -0.0238  0.1815  0.2004
   56CHL1  H11A 6585   3.828   6.307   9.405  0.0164  0.7429  3.3232
   56CHL1  H11B 6586   3.679   6.213   9.452  0.0425  1.7507  0.1281
   56CHL1    C9 6587   3.875   6.149   9.540 -0.6646 -0.2799 -0.2037
   56CHL1    H9 6588   3.819   6.060   9.576 -1.3069  0.8409  1.6884
   56CHL1   C10 6589   3.880   6.237   9.664  0.2804 -0.7853 -0.1067
   56CHL1   C19 6590   3.923   6.387   9.625 -0.7132 -0.3187 -0.1710
   56CHL1  H19A 6591   3.855   6.438   9.554 -1.2639 -0.7024  0.0771
   56CHL1  H19B 6592   3.922   6.447   9.718 -1.6405  3.1507 -2.2565
   56CHL1  H19C 6593   4.029   6.381   9.592 -0.6731  1.7913 -0.5253
   56CHL1    C1 6594   3.738   6.238   9.726  0.9757  0.4835 -0.1476
   56CHL1   H1A 6595   3.671   6.297   9.660  2.6123  2.3290 -0.2501
   56CHL1   H1B 6596   3.700   6.134   9.732  1.3036  0.3197 -0.7613
   56CHL1    C2 6597   3.722   6.311   9.855  1.2698  0.2964  0.6396
   56CHL1   H2A 6598   3.616   6.313   9.886  1.2777  1.6987  0.6227
   56CHL1   H2B 6599   3.753   6.415   9.829  3.3883 -0.9443 -2.4563
   56CHL1   C20 6600   3.915   6.017   8.981 -0.3549  0.2926 -0.1444
   56CHL1   H20 6601   3.984   6.101   8.955  0.4880 -0.3062  0.1273
   56CHL1   C21 6602   3.778   6.055   8.950  0.5279 -0.0219  0.3014
   56CHL1  H21A 6603   3.698   5.983   8.976 -1.0047  1.5516  0.1105
   56CHL1  H21B 6604   3.771   6.077   8.841 -1.6783 -0.2891  0.3457
   56CHL1  H21C 6605   3.752   6.152   8.997 -0.1500  0.8851 -1.8178
   56CHL1   C22 6606   3.955   5.903   8.885  0.4370 -0.8993  0.0405
   56CHL1  H22A 6607   4.050   5.851   8.911  1.0111  0.4274  0.7294
   56CHL1  H22B 6608   3.872   5.829   8.889  1.1973 -1.7205  1.0382
   56CHL1   C23 6609   3.979   5.944   8.738  1.0371 -0.7709 -0.1392
   56CHL1  H23A 6610   3.896   6.011   8.708  2.0601  1.0268  0.9104
   56CHL1  H23B 6611   4.074   6.002   8.736 -0.2729  1.5184  0.2367
   56CHL1   C24 6612   3.978   5.832   8.630  0.4445 -0.5752 -0.1189
   56CHL1  H24A 6613   4.076   5.781   8.643  1.8452  1.8043 -0.7605
   56CHL1  H24B 6614   3.905   5.750   8.649  0.8241 -1.4393 -2.1403
   56CHL1   C25 6615   3.970   5.884   8.487  0.4798  0.8031  0.2115
   56CHL1   H25 6616   3.877   5.944   8.476 -0.2142 -0.1042  0.9028
   56CHL1   C26 6617   4.099   5.960   8.439  0.7196  0.6493  0.2186
   56CHL1  H26A 6618   4.187   5.903   8.473  1.1153  0.9085 -0.3647
   56CHL1  H26B 6619   4.116   5.968   8.330 -0.0655 -0.6480 -0.0193
   56CHL1  H26C 6620   4.117   6.058   8.488  1.2256  0.1475  1.0580
   56CHL1   C27 6621   3.966   5.758   8.403 -0.0218 -1.2841 -0.1831
   56CHL1  H27A 6622   3.865   5.713   8.415 -1.0568  1.0980  0.7053
   56CHL1  H27B 6623   3.979   5.773   8.294  2.5364 -1.4364  0.0337
   56CHL1  H27C 6624   4.043   5.682   8.429  2.2804  0.6645 -0.9149
   57CHL1    C3 6625   6.243   6.302  10.183 -0.0824 -0.2478 -0.4917
   57CHL1    H3 6626   6.135   6.296  10.157 -0.5395  2.8610  0.2267
   57CHL1    O3 6627   6.252   6.343  10.318  0.1890 -0.7884  0.1787
   57CHL1   H3' 6628   6.346   6.347  10.337  0.3007 -5.1084  1.6303
   57CHL1    C4 6629   6.326   6.179  10.164  0.4097  0.0972  0.1299
   57CHL1   H4A 6630   6.429   6.199  10.198  0.2603 -2.2602  2.2468
   57CHL1   H4B 6631   6.298   6.102  10.239  2.7502 -0.0288  0.9345
   57CHL1    C5 6632   6.323   6.118  10.021  0.2204  0.2579  0.3015
   57CHL1    C6 6633   6.278   5.999   9.994  0.5838  0.3330 -0.3816
   57CHL1    H6 6634   6.252   5.929  10.074  2.9530 -1.1685 -0.8331
   57CHL1    C7 6635   6.265   5.961   9.853  1.3096 -0.7131 -0.2421
   57CHL1   H7A 6636   6.291   5.855   9.835 -0.1033 -0.8781 -1.5231
   57CHL1   H7B 6637   6.159   5.970   9.819  0.7715  0.7483  1.5789
   57CHL1    C8 6638   6.340   6.034   9.746  0.4658 -0.6072  0.5618
   57CHL1    H8 6639   6.448   6.012   9.760  1.3912 -2.2545 -5.7958
   57CHL1   C14 6640   6.294   5.999   9.606  1.1395 -0.1165  0.1534
   57CHL1   H14 6641   6.189   6.036   9.606  0.9692 -0.4569 -1.6971
   57CHL1   C15 6642   6.306   5.851   9.562 -0.5878 -0.0343  0.5552
   57CHL1  H15A 6643   6.407   5.813   9.590  0.0369  0.1167 -1.3214
   57CHL1  H15B 6644   6.220   5.786   9.588 -0.2553 -1.3389 -1.4254
   57CHL1   C16 6645   6.314   5.862   9.406 -0.6095 -0.1513  0.0741
   57CHL1  H16A 6646   6.414   5.826   9.372  0.0330  2.6809 -1.3265
   57CHL1  H16B 6647   6.233   5.800   9.363  2.1655 -3.7386 -0.4822
   57CHL1   C17 6648   6.301   6.012   9.375 -0.1392 -0.3836  0.1561
   57CHL1   H17 6649   6.191   6.031   9.375  0.0036  0.5968  1.2817
   57CHL1   C13 6650   6.367   6.076   9.496  0.7019  0.1863 -0.7030
   57CHL1   C18 6651   6.523   6.060   9.515  0.4458  0.4002  0.1334
   57CHL1  H18A 6652   6.569   6.123   9.435 -0.1663  0.6820  0.0026
   57CHL1  H18B 6653   6.561   6.093   9.614  1.9905 -0.6043 -0.0777
   57CHL1  H18C 6654   6.563   5.958   9.492 -0.5849  0.0894 -0.3836
   57CHL1   C12 6655   6.339   6.221   9.513  0.2610 -0.0512 -0.6755
   57CHL1  H12A 6656   6.382   6.283   9.432 -0.7594  1.6449  0.0340
   57CHL1  H12B 6657   6.230   6.237   9.515  0.2849  0.0651  0.2429
   57CHL1   C11 6658   6.381   6.271   9.655 -0.1024 -0.3527  0.2805
   57CHL1  H11A 6659   6.491   6.276   9.669 -0.3096  0.8161  1.6726
   57CHL1  H11B 6660   6.343   6.375   9.667 -2.2849 -1.1176  0.3955
   57CHL1    C9 6661   6.319   6.185   9.771 -0.0100  0.6282 -0.2436
   57CHL1    H9 6662   6.210   6.203   9.760 -0.1302  1.4179  1.8089
   57CHL1   C10 6663   6.361   6.223   9.914 -0.0990 -0.5139  0.4984
   57CHL1   C19 6664   6.519   6.245   9.910  0.0626  0.4654  0.9074
   57CHL1  H19A 6665   6.566   6.162   9.853 -2.1644 -1.8304  2.2461
   57CHL1  H19B 6666   6.544   6.341   9.859  1.3148 -0.4638 -0.3080
   57CHL1  H19C 6667   6.553   6.245  10.015 -2.4808  1.4006  1.7995
   57CHL1    C1 6668   6.300   6.366   9.948 -0.3407  0.6093  0.4012
   57CHL1   H1A 6669   6.362   6.438   9.891  0.1465  0.0020  0.1592
   57CHL1   H1B 6670   6.192   6.360   9.922 -0.9359 -1.2854  2.9142
   57CHL1    C2 6671   6.318   6.403  10.096 -0.0887  0.5189  0.9899
   57CHL1   H2A 6672   6.279   6.505  10.119  2.7937  1.6879  1.0827
   57CHL1   H2B 6673   6.424   6.393  10.125 -0.1208  0.6735  1.1601
   57CHL1   C20 6674   6.353   6.047   9.231  0.1206  0.3016 -0.2112
   57CHL1   H20 6675   6.464   6.047   9.226  0.1111 -0.9679 -0.7822
   57CHL1   C21 6676   6.289   6.178   9.189 -1.0048  0.9644  0.7974
   57CHL1  H21A 6677   6.348   6.257   9.241 -1.5652  1.0902  1.2482
   57CHL1  H21B 6678   6.187   6.189   9.231 -0.8063  3.7350  0.7486
   57CHL1  H21C 6679   6.290   6.194   9.079 -0.3065  0.4737  0.7304
   57CHL1   C22 6680   6.296   5.937   9.128 -0.4581 -0.4423  0.1497
   57CHL1  H22A 6681   6.292   5.832   9.163 -2.1133 -0.5739 -0.3737
   57CHL1  H22B 6682   6.190   5.964   9.113 -0.7063 -1.3985  0.1542
   57CHL1   C23 6683   6.364   5.927   8.990 -0.0681 -0.3428 -0.6333
   57CHL1  H23A 6684   6.378   6.023   8.934 -1.7786  0.7829  0.7830
   57CHL1  H23B 6685   6.470   5.902   9.011 -0.3350 -0.1029  1.0753
   57CHL1   C24 6686   6.302   5.827   8.889  0.0162  0.2584  0.4952
   57CHL1  H24A 6687   6.325   5.721   8.915  1.0822  0.5860  0.9574
   57CHL1  H24B 6688   6.193   5.840   8.873 -0.1235 -0.5733  0.7008
   57CHL1   C25 6689   6.369   5.841   8.745 -0.0155  0.1138  0.2426
   57CHL1   H25 6690   6.375   5.949   8.722  3.1998 -0.0593 -0.0839
   57CHL1   C26 6691   6.517   5.786   8.742  0.4954  0.1315  0.4338
   57CHL1  H26A 6692   6.524   5.676   8.725 -1.2125  0.2729 -1.4676
   57CHL1  H26B 6693   6.572   5.828   8.655  1.8528  2.1765  2.1798
   57CHL1  H26C 6694   6.581   5.809   8.830  3.1050  1.1040 -1.5728
   57CHL1   C27 6695   6.288   5.771   8.634 -1.1586  0.0440 -0.6993
   57CHL1  H27A 6696   6.347   5.783   8.540 -0.9409  0.9864 -0.4556
   57CHL1  H27B 6697   6.286   5.663   8.660  0.2176  0.1758  0.0727
   57CHL1  H27C 6698   6.184   5.803   8.614 -1.4565 -1.2325 -1.3057
   58CHL1    C3 6699   0.849   5.372   9.980 -0.0098  0.4441  0.1963
   58CHL1    H3 6700   0.748   5.332   9.958 -0.4736  0.6885  1.7572
   58CHL1    O3 6701   0.864   5.377  10.117  0.0895 -0.1707 -0.3978
   58CHL1   H3' 6702   0.958   5.367  10.133  0.5425  0.6532 -2.2769
   58CHL1    C4 6703   0.950   5.273   9.913  0.2625 -0.2552 -0.1463
   58CHL1   H4A 6704   1.052   5.301   9.946 -0.2241  3.0415 -1.1105
   58CHL1   H4B 6705   0.926   5.170   9.949  2.2167 -1.0165 -0.8932
   58CHL1    C5 6706   0.949   5.274   9.760 -0.3915  0.2244  0.4053
   58CHL1    C6 6707   0.944   5.153   9.692  0.5081 -0.1385 -0.2689
   58CHL1    H6 6708   0.943   5.060   9.751 -0.6700  0.2971  0.4458
   58CHL1    C7 6709   0.928   5.161   9.542  0.1393  0.2304 -0.3016
   58CHL1   H7A 6710   0.985   5.075   9.501  2.3801  1.2264  0.6180
   58CHL1   H7B 6711   0.820   5.134   9.533  0.3885 -0.4059 -1.8034
   58CHL1    C8 6712   0.957   5.291   9.463  0.8757 -0.0712 -0.6014
   58CHL1    H8 6713   1.067   5.306   9.467  0.5877  2.0498  1.6587
   58CHL1   C14 6714   0.901   5.298   9.329  0.1750 -1.2600  0.8832
   58CHL1   H14 6715   0.791   5.289   9.334  0.1735 -0.9008  1.6568
   58CHL1   C15 6716   0.943   5.181   9.241 -0.3241 -0.7976  0.5327
   58CHL1  H15A 6717   1.050   5.155   9.259 -0.1206 -0.9026 -0.7485
   58CHL1  H15B 6718   0.880   5.090   9.250  0.1997 -1.0312  2.0927
   58CHL1   C16 6719   0.930   5.244   9.103  0.0325 -0.4312  0.1614
   58CHL1  H16A 6720   1.034   5.233   9.067  1.0870  1.6797  2.2916
   58CHL1  H16B 6721   0.868   5.186   9.031 -0.7249 -0.0008  0.4551
   58CHL1   C17 6722   0.889   5.389   9.113 -0.4207  0.1075  0.0696
   58CHL1   H17 6723   0.780   5.405   9.120 -0.6194 -0.5855 -1.1220
   58CHL1   C13 6724   0.941   5.429   9.247 -0.1808  0.1571  0.6163
   58CHL1   C18 6725   1.097   5.450   9.247 -0.3017 -0.0299 -0.6030
   58CHL1  H18A 6726   1.129   5.552   9.216 -0.6258  0.3162  0.1890
   58CHL1  H18B 6727   1.139   5.444   9.349 -3.0108  2.1974  0.7634
   58CHL1  H18C 6728   1.153   5.374   9.189  0.9843  1.0331 -0.7956
   58CHL1   C12 6729   0.866   5.539   9.321  0.2652 -0.2280  0.7774
   58CHL1  H12A 6730   0.889   5.635   9.268 -0.0026  1.0917  2.9146
   58CHL1  H12B 6731   0.758   5.517   9.327 -0.8294  4.1504  1.0060
   58CHL1   C11 6732   0.907   5.550   9.473 -0.1113  0.2520 -0.9074
   58CHL1  H11A 6733   1.009   5.594   9.473 -0.0560  0.1315 -0.4053
   58CHL1  H11B 6734   0.837   5.619   9.525 -0.5454  0.9226 -2.3431
   58CHL1    C9 6735   0.897   5.414   9.546  0.1578  0.5786 -0.0325
   58CHL1    H9 6736   0.788   5.390   9.541  0.7097 -2.3159 -0.2096
   58CHL1   C10 6737   0.939   5.408   9.696  0.5360 -0.1663 -0.0234
   58CHL1   C19 6738   1.085   5.460   9.713  0.1755  0.0589  0.6149
   58CHL1  H19A 6739   1.109   5.470   9.820  0.3435 -2.9726  0.9500
   58CHL1  H19B 6740   1.165   5.398   9.667  0.4849  0.6657  0.3227
   58CHL1  H19C 6741   1.085   5.557   9.659  1.1233 -0.1076  0.2970
   58CHL1    C1 6742   0.842   5.494   9.770 -0.8942 -0.4034  0.5204
   58CHL1   H1A 6743   0.827   5.594   9.725  0.8655 -0.0995  0.5495
   58CHL1   H1B 6744   0.740   5.457   9.746 -0.4067 -1.7484  0.4256
   58CHL1    C2 6745   0.862   5.507   9.916  0.6861 -0.2128 -0.2347
   58CHL1   H2A 6746   0.787   5.579   9.955 -0.5968 -1.9340  0.5666
   58CHL1   H2B 6747   0.960   5.560   9.921  0.5139  0.4793 -2.7452
   58CHL1   C20 6748   0.945   5.473   8.990  0.6078  0.3170 -0.0945
   58CHL1   H20 6749   1.053   5.454   9.002  0.0246 -4.6523 -0.7651
   58CHL1   C21 6750   0.913   5.617   8.998  0.3813 -1.2418 -0.3977
   58CHL1  H21A 6751   0.976   5.660   9.079  0.9372 -1.9238 -0.4620
   58CHL1  H21B 6752   0.803   5.624   9.011  0.6055  1.7915  0.7258
   58CHL1  H21C 6753   0.937   5.663   8.899  3.9945  0.2432  1.0165
   58CHL1   C22 6754   0.909   5.432   8.849  0.4438  0.0373  0.0230
   58CHL1  H22A 6755   0.956   5.506   8.782  1.8831 -1.0531 -0.2080
   58CHL1  H22B 6756   0.954   5.333   8.827  1.4139  0.2319  1.0213
   58CHL1   C23 6757   0.752   5.424   8.828  0.0518  0.8484 -0.2126
   58CHL1  H23A 6758   0.694   5.391   8.917 -0.8617 -1.5476 -1.6180
   58CHL1  H23B 6759   0.723   5.530   8.811 -2.5331  0.2000 -0.2540
   58CHL1   C24 6760   0.708   5.328   8.713 -0.3233 -0.5179 -0.0426
   58CHL1  H24A 6761   0.758   5.341   8.615 -3.1552 -2.6909 -1.9613
   58CHL1  H24B 6762   0.723   5.221   8.738 -4.6898 -1.3797 -0.3221
   58CHL1   C25 6763   0.561   5.331   8.682  0.6142 -0.3296 -0.1884
   58CHL1   H25 6764   0.504   5.344   8.777  1.4022 -0.5584  0.3242
   58CHL1   C26 6765   0.532   5.456   8.594 -0.2031 -1.0452  0.1289
   58CHL1  H26A 6766   0.422   5.469   8.587  0.0134 -0.1840 -3.0592
   58CHL1  H26B 6767   0.576   5.538   8.655 -0.4823  0.0686 -1.1084
   58CHL1  H26C 6768   0.575   5.459   8.491 -1.0227  1.2153 -0.1895
   58CHL1   C27 6769   0.518   5.207   8.606  0.4389 -0.2470 -0.3481
   58CHL1  H27A 6770   0.407   5.198   8.604  0.5842 -2.7988 -2.5678
   58CHL1  H27B 6771   0.552   5.196   8.501  5.3099 -2.6696  1.1989
   58CHL1  H27C 6772   0.550   5.115   8.659 -0.8309 -0.8806 -0.6311
   59CHL1    C3 6773   1.692   3.985  10.389 -0.0252  0.6473  0.2015
   59CHL1    H3 6774   1.776   3.925  10.348  0.2749  1.3739 -0.2527
   59CHL1    O3 6775   1.739   4.006  10.528 -0.0997 -0.1141  0.5210
   59CHL1   H3' 6776   1.827   4.040  10.510 -0.2734  0.0875  0.0417
   59CHL1    C4 6777   1.678   4.119  10.309 -0.5247  0.4918  0.1673
   59CHL1   H4A 6778   1.607   4.187  10.360  0.3727  1.2679  0.4215
   59CHL1   H4B 6779   1.774   4.175  10.308 -1.2281  1.7458 -1.0153
   59CHL1    C5 6780   1.639   4.085  10.168  0.3136  0.0984  0.2610
   59CHL1    C6 6781   1.717   4.113  10.061  0.2161  0.3388  0.0577
   59CHL1    H6 6782   1.812   4.163  10.088  0.9087 -1.8983  2.0103
   59CHL1    C7 6783   1.669   4.102   9.919 -0.4708 -0.8021 -0.2975
   59CHL1   H7A 6784   1.705   4.197   9.873 -0.2925 -0.6879  0.0710
   59CHL1   H7B 6785   1.725   4.012   9.884  1.4433  0.8168 -1.6407
   59CHL1    C8 6786   1.519   4.079   9.915 -0.2080 -0.0376 -0.0815
   59CHL1    H8 6787   1.463   4.171   9.940 -1.1051 -0.7548  0.6502
   59CHL1   C14 6788   1.490   4.027   9.769 -0.7924 -0.2259 -0.5132
   59CHL1   H14 6789   1.535   3.926   9.756 -0.0761 -0.1177  0.8883
   59CHL1   C15 6790   1.541   4.096   9.642  0.2582  1.3816  0.3821
   59CHL1  H15A 6791   1.510   4.203   9.641 -0.2321  1.2576 -1.9279
   59CHL1  H15B 6792   1.648   4.082   9.619  0.3190  1.8818  0.3377
   59CHL1   C16 6793   1.464   4.023   9.531  0.4694  0.2565 -0.6866
   59CHL1  H16A 6794   1.418   4.106   9.471 -1.4591  0.3395  0.7955
   59CHL1  H16B 6795   1.533   3.967   9.465 -0.8001  0.0205 -1.8808
   59CHL1   C17 6796   1.345   3.947   9.596  1.3102  0.1516 -0.0883
   59CHL1   H17 6797   1.374   3.841   9.613 -0.9325 -0.0906  3.0958
   59CHL1   C13 6798   1.342   4.000   9.745 -0.6109 -0.1061 -0.2226
   59CHL1   C18 6799   1.264   4.137   9.754  0.2053 -0.0696  0.5014
   59CHL1  H18A 6800   1.272   4.194   9.849 -1.1491 -1.1803  1.3207
   59CHL1  H18B 6801   1.292   4.211   9.676 -1.4201 -1.5688 -1.6014
   59CHL1  H18C 6802   1.154   4.130   9.746  0.0291  0.3040  2.1720
   59CHL1   C12 6803   1.293   3.895   9.851 -0.6092 -0.1528  0.1673
   59CHL1  H12A 6804   1.182   3.885   9.846 -0.6634 -1.0045  2.0756
   59CHL1  H12B 6805   1.333   3.793   9.837  1.2757  0.8466 -2.4320
   59CHL1   C11 6806   1.325   3.942   9.996 -0.6426 -0.1387 -0.0895
   59CHL1  H11A 6807   1.249   4.021  10.007 -0.8560 -0.2983 -0.4257
   59CHL1  H11B 6808   1.304   3.854  10.061  0.7048 -1.5143 -1.3991
   59CHL1    C9 6809   1.476   3.972  10.009  0.3540  0.1810 -1.0291
   59CHL1    H9 6810   1.534   3.878   9.993  1.4015  0.6441 -0.1211
   59CHL1   C10 6811   1.503   4.019  10.161 -0.4512 -0.1096  1.3729
   59CHL1   C19 6812   1.401   4.122  10.208  0.8115  0.1055 -0.3435
   59CHL1  H19A 6813   1.410   4.149  10.315 -3.0575 -2.6664  0.9411
   59CHL1  H19B 6814   1.404   4.217  10.151  0.8514  0.3275  0.0244
   59CHL1  H19C 6815   1.298   4.080  10.204  0.5958  0.5592  0.3086
   59CHL1    C1 6816   1.506   3.893  10.252  0.0292  0.0606  0.5448
   59CHL1   H1A 6817   1.406   3.851  10.274  0.1391 -0.5306 -0.0607
   59CHL1   H1B 6818   1.568   3.816  10.203  0.6524  0.6890  0.3311
   59CHL1    C2 6819   1.563   3.909  10.394 -0.3136 -0.5805  0.5560
   59CHL1   H2A 6820   1.579   3.812  10.446  0.4600 -0.8962 -0.2566
   59CHL1   H2B 6821   1.484   3.967  10.445 -0.7902  0.2777 -1.1046
   59CHL1   C20 6822   1.218   3.953   9.512 -0.2252  0.5053  0.1867
   59CHL1   H20 6823   1.187   4.059   9.520  1.4355  0.8523  2.9732
   59CHL1   C21 6824   1.102   3.878   9.579 -0.4413 -0.8661  0.4706
   59CHL1  H21A 6825   1.018   3.881   9.506  1.4527  0.8039 -1.8049
   59CHL1  H21B 6826   1.071   3.939   9.667  1.0719 -1.0056  1.1212
   59CHL1  H21C 6827   1.122   3.770   9.599 -2.9103 -0.8905  3.8007
   59CHL1   C22 6828   1.220   3.915   9.368  0.3272 -0.5049 -0.5707
   59CHL1  H22A 6829   1.120   3.913   9.321  0.0666 -0.5518 -0.0252
   59CHL1  H22B 6830   1.281   3.995   9.322 -0.6794  1.7115  1.7194
   59CHL1   C23 6831   1.274   3.775   9.329 -0.6322 -0.3287 -1.1719
   59CHL1  H23A 6832   1.374   3.757   9.375 -1.6616 -0.5713  1.1252
   59CHL1  H23B 6833   1.208   3.709   9.389 -0.3150  1.1190  0.9036
   59CHL1   C24 6834   1.281   3.736   9.182  0.0685 -0.5866 -1.5199
   59CHL1  H24A 6835   1.284   3.625   9.184  2.8823 -0.5740 -0.3934
   59CHL1  H24B 6836   1.186   3.775   9.140  0.2010  2.5686  0.8306
   59CHL1   C25 6837   1.396   3.790   9.094 -0.5550  0.4461 -0.2079
   59CHL1   H25 6838   1.388   3.901   9.093 -0.7947  0.4306 -1.1945
   59CHL1   C26 6839   1.537   3.761   9.145 -0.0796 -0.0848 -0.1199
   59CHL1  H26A 6840   1.557   3.655   9.118 -1.1506  0.1483 -1.9934
   59CHL1  H26B 6841   1.613   3.822   9.092  0.5757  0.2326  1.1432
   59CHL1  H26C 6842   1.539   3.777   9.255  0.6890  0.6312 -0.2261
   59CHL1   C27 6843   1.399   3.736   8.953 -0.4415  0.8650  0.7247
   59CHL1  H27A 6844   1.468   3.786   8.882 -0.4689 -0.4402 -0.2422
   59CHL1  H27B 6845   1.427   3.629   8.959 -2.9325  0.2125  1.9672
   59CHL1  H27C 6846   1.296   3.738   8.910 -1.3825 -3.0037  2.4257
   60CHL1    C3 6847   0.139   2.687  10.386  0.8807 -0.4716 -0.4267
   60CHL1    H3 6848   0.240   2.641  10.376  0.6400 -1.1335  0.1451
   60CHL1    O3 6849   0.109   2.720  10.520  0.1725  0.5658  0.1972
   60CHL1   H3' 6850   0.033   2.778  10.506 -0.3758 -0.4521 -1.1825
   60CHL1    C4 6851   0.125   2.814  10.305  0.0031 -0.0229 -0.0427
   60CHL1   H4A 6852   0.028   2.867  10.316  0.5925  0.9849  0.4268
   60CHL1   H4B 6853   0.205   2.881  10.343  1.0503 -2.0090  1.4826
   60CHL1    C5 6854   0.140   2.789  10.158 -1.3901 -0.5777 -0.1949
   60CHL1    C6 6855   0.240   2.860  10.090  0.1845 -0.1504  0.0356
   60CHL1    H6 6856   0.309   2.931  10.137 -0.5645  0.4559  0.2554
   60CHL1    C7 6857   0.268   2.829   9.945  0.0836 -0.9810  0.1087
   60CHL1   H7A 6858   0.276   2.925   9.890  0.5242 -0.0370  1.7780
   60CHL1   H7B 6859   0.363   2.772   9.939  0.0391 -1.4932  2.8900
   60CHL1    C8 6860   0.158   2.753   9.872  0.4098 -0.3099  0.3452
   60CHL1    H8 6861   0.068   2.816   9.853  0.1014 -0.9541 -0.3769
   60CHL1   C14 6862   0.211   2.701   9.743 -0.3996  0.7207  0.0942
   60CHL1   H14 6863   0.287   2.628   9.780 -0.6671  0.7206  0.6525
   60CHL1   C15 6864   0.302   2.789   9.654 -0.8947 -0.1787  0.6825
   60CHL1  H15A 6865   0.247   2.883   9.633 -0.3335  0.2747  1.2270
   60CHL1  H15B 6866   0.394   2.816   9.710 -1.7765  1.4939  1.4218
   60CHL1   C16 6867   0.311   2.719   9.517  0.0757 -0.0190 -0.0810
   60CHL1  H16A 6868   0.298   2.792   9.435  0.5766  0.5064  0.2962
   60CHL1  H16B 6869   0.420   2.698   9.528  0.6951  3.5616  2.1587
   60CHL1   C17 6870   0.215   2.594   9.530 -0.3689 -0.4736 -0.4051
   60CHL1   H17 6871   0.278   2.506   9.553  1.2609 -0.0054 -2.7744
   60CHL1   C13 6872   0.115   2.629   9.649 -0.1124 -0.2393  0.1794
   60CHL1   C18 6873   0.012   2.727   9.603 -0.1602 -0.1865  0.2507
   60CHL1  H18A 6874   0.065   2.806   9.544 -0.4356  0.1934  0.5076
   60CHL1  H18B 6875  -0.066   2.675   9.543 -1.0168 -0.0532  1.2221
   60CHL1  H18C 6876  -0.049   2.779   9.679 -2.9430  0.6813 -2.3883
   60CHL1   C12 6877   0.056   2.509   9.732  0.3504 -0.1005  0.2660
   60CHL1  H12A 6878  -0.031   2.468   9.678  0.6537  1.3671 -1.4208
   60CHL1  H12B 6879   0.121   2.419   9.729 -1.7881 -1.7087 -0.5372
   60CHL1   C11 6880   0.004   2.555   9.869 -0.0495  0.1969 -0.2909
   60CHL1  H11A 6881  -0.093   2.607   9.852 -0.3451 -0.1266  0.3876
   60CHL1  H11B 6882  -0.027   2.464   9.925 -2.8394 -0.0739 -2.0655
   60CHL1    C9 6883   0.101   2.636   9.948 -1.0471  0.3694 -0.3445
   60CHL1    H9 6884   0.187   2.567   9.963 -1.3722 -0.4358 -1.9363
   60CHL1   C10 6885   0.052   2.680  10.091  0.1198  0.3726  0.4814
   60CHL1   C19 6886  -0.093   2.739  10.088 -0.3907 -0.1502 -0.0857
   60CHL1  H19A 6887  -0.130   2.753  10.192  0.8018  1.5582  0.1596
   60CHL1  H19B 6888  -0.098   2.841  10.043 -1.3612  0.6442  1.7325
   60CHL1  H19C 6889  -0.164   2.669  10.039 -0.5112 -0.3170  0.3269
   60CHL1    C1 6890   0.068   2.547  10.178  0.0281  0.1173  0.4241
   60CHL1   H1A 6891  -0.006   2.469  10.148  0.8800 -1.1260  1.4812
   60CHL1   H1B 6892   0.169   2.503  10.167 -0.9560 -2.6025  1.3919
   60CHL1    C2 6893   0.040   2.570  10.330  0.2694 -0.3086  0.0894
   60CHL1   H2A 6894   0.038   2.486  10.402 -1.4298 -1.6803 -1.4383
   60CHL1   H2B 6895  -0.059   2.617  10.350  1.1479  1.1961  1.0995
   60CHL1   C20 6896   0.138   2.561   9.388 -0.7562 -0.0666 -0.2253
   60CHL1   H20 6897   0.089   2.652   9.348  2.1552  0.2664 -3.5166
   60CHL1   C21 6898   0.037   2.441   9.413  0.1500 -0.1786  0.0155
   60CHL1  H21A 6899   0.091   2.361   9.468  1.2096  0.3664 -0.2067
   60CHL1  H21B 6900  -0.017   2.404   9.324 -2.8033  1.7387  0.8662
   60CHL1  H21C 6901  -0.050   2.482   9.469  0.4094  0.2062  0.1431
   60CHL1   C22 6902   0.238   2.534   9.274  0.6610 -0.1456 -0.2589
   60CHL1  H22A 6903   0.311   2.617   9.265  2.1270 -1.5040 -1.3325
   60CHL1  H22B 6904   0.288   2.439   9.302 -0.4471 -0.5509  0.4346
   60CHL1   C23 6905   0.173   2.532   9.137  0.0060  0.6724  0.8714
   60CHL1  H23A 6906   0.091   2.457   9.130  2.4788 -2.1303  0.0752
   60CHL1  H23B 6907   0.120   2.629   9.124 -0.1284  0.5022  0.1160
   60CHL1   C24 6908   0.269   2.507   9.012 -0.2957  0.3778 -0.9873
   60CHL1  H24A 6909   0.345   2.587   8.995  0.5402 -0.3660 -0.8039
   60CHL1  H24B 6910   0.325   2.419   9.051 -3.1494 -0.7072  1.0113
   60CHL1   C25 6911   0.208   2.464   8.884  1.0027 -0.0852  0.1021
   60CHL1   H25 6912   0.147   2.377   8.916  3.4783 -1.6608  0.8961
   60CHL1   C26 6913   0.132   2.583   8.822 -0.4759 -0.4308 -0.6044
   60CHL1  H26A 6914   0.201   2.661   8.783 -1.0128  0.2830 -0.1262
   60CHL1  H26B 6915   0.069   2.537   8.743  0.1967 -2.6622  0.0898
   60CHL1  H26C 6916   0.082   2.628   8.910  0.8175 -0.5044  0.2021
   60CHL1   C27 6917   0.301   2.401   8.776  0.2031 -0.0089  0.7050
   60CHL1  H27A 6918   0.365   2.321   8.819 -0.3038 -2.6761 -3.0699
   60CHL1  H27B 6919   0.248   2.356   8.689  0.3542 -0.7509  0.9844
   60CHL1  H27C 6920   0.360   2.486   8.738 -1.2059  0.4650 -0.5202
   61CHL1    C3 6921   5.833   3.241  10.350  0.0617 -0.3143 -0.0417
   61CHL1    H3 6922   5.891   3.151  10.381 -0.5014 -0.4453  0.6591
   61CHL1    O3 6923   5.790   3.294  10.474  0.4601 -0.2662 -0.0981
   61CHL1   H3' 6924   5.871   3.341  10.497  1.1268 -1.6707  0.5668
   61CHL1    C4 6925   5.906   3.347  10.275  0.3856 -0.4991 -0.4793
   61CHL1   H4A 6926   5.832   3.430  10.267  0.0025 -0.7140  0.6515
   61CHL1   H4B 6927   5.997   3.388  10.324 -0.5214  0.0868  0.7844
   61CHL1    C5 6928   5.954   3.300  10.139 -0.1113  0.1303 -0.1699
   61CHL1    C6 6929   6.083   3.301  10.108  0.4448 -0.9194 -0.1498
   61CHL1    H6 6930   6.160   3.344  10.174  1.4463 -0.2032 -1.7287
   61CHL1    C7 6931   6.134   3.258   9.975 -0.3683 -0.1058  0.0176
   61CHL1   H7A 6932   6.211   3.327   9.935  0.3491 -1.7461 -1.5936
   61CHL1   H7B 6933   6.189   3.162   9.982  0.2870  0.1931 -0.7954
   61CHL1    C8 6934   6.020   3.237   9.875  0.7225 -0.1068 -0.1243
   61CHL1    H8 6935   5.991   3.338   9.839 -0.0062 -0.3219 -0.1603
   61CHL1   C14 6936   6.069   3.144   9.758  0.1992  0.0249  0.1053
   61CHL1   H14 6937   6.106   3.047   9.798 -0.4006  0.2620  1.2767
   61CHL1   C15 6938   6.189   3.204   9.683 -0.2499  0.1071 -0.7286
   61CHL1  H15A 6939   6.165   3.310   9.662  1.0659  0.5696 -0.0149
   61CHL1  H15B 6940   6.283   3.197   9.741 -0.7763 -2.9554 -0.0331
   61CHL1   C16 6941   6.198   3.118   9.550  0.8915 -0.0294  0.3894
   61CHL1  H16A 6942   6.223   3.181   9.462  1.6769  0.4197  0.9193
   61CHL1  H16B 6943   6.276   3.040   9.547  0.0447 -0.8552 -0.8255
   61CHL1   C17 6944   6.064   3.043   9.547 -0.0006  0.4493 -0.3538
   61CHL1   H17 6945   6.083   2.943   9.593 -1.0027  1.3991  2.3254
   61CHL1   C13 6946   5.966   3.111   9.651  0.4707 -0.8636  0.1504
   61CHL1   C18 6947   5.916   3.247   9.592  0.1479 -0.2296  0.0706
   61CHL1  H18A 6948   5.996   3.320   9.568 -0.1161 -0.6140 -2.2430
   61CHL1  H18B 6949   5.872   3.226   9.492  2.1114 -0.3349 -0.8102
   61CHL1  H18C 6950   5.843   3.298   9.658 -2.4116 -3.7277  0.2244
   61CHL1   C12 6951   5.866   3.027   9.726  0.1144  0.8104  1.1793
   61CHL1  H12A 6952   5.781   2.985   9.668  2.1511  1.8454 -2.8903
   61CHL1  H12B 6953   5.912   2.933   9.762  1.1844  0.7188 -0.3790
   61CHL1   C11 6954   5.798   3.100   9.846  0.2188  0.4897  0.5688
   61CHL1  H11A 6955   5.734   3.178   9.801  1.0583 -0.1585 -1.8996
   61CHL1  H11B 6956   5.736   3.028   9.904 -0.4544  1.1890  0.7412
   61CHL1    C9 6957   5.903   3.168   9.943 -0.1384 -0.6929 -0.2464
   61CHL1    H9 6958   5.958   3.083   9.987  1.1175  0.3792  0.3281
   61CHL1   C10 6959   5.844   3.238  10.067  0.2638  0.2532  0.2682
   61CHL1   C19 6960   5.758   3.352  10.010  0.3557  0.8840 -0.8367
   61CHL1  H19A 6961   5.809   3.425   9.943 -0.0428  0.9979 -1.0181
   61CHL1  H19B 6962   5.671   3.308   9.957  0.8057  1.9136 -2.5065
   61CHL1  H19C 6963   5.715   3.413  10.092  0.5697 -0.2446  0.1319
   61CHL1    C1 6964   5.748   3.134  10.138  0.4183 -0.1594 -0.5948
   61CHL1   H1A 6965   5.654   3.127  10.079  0.6521 -0.2946 -0.9526
   61CHL1   H1B 6966   5.787   3.031  10.151 -0.1180 -0.4034 -0.8984
   61CHL1    C2 6967   5.704   3.190  10.274  0.1533 -0.0523 -0.8103
   61CHL1   H2A 6968   5.633   3.131  10.335  0.2473  1.6828  1.0715
   61CHL1   H2B 6969   5.647   3.284  10.258  1.6413  0.8004 -1.3823
   61CHL1   C20 6970   6.011   3.034   9.406 -0.2648  0.3368  0.0827
   61CHL1   H20 6971   5.990   3.133   9.360 -0.6893  1.8169  3.1969
   61CHL1   C21 6972   5.884   2.948   9.410 -0.4343 -0.1361 -0.4523
   61CHL1  H21A 6973   5.858   2.912   9.308 -2.7918 -0.8254  0.3103
   61CHL1  H21B 6974   5.803   3.019   9.439  0.4503  0.6563  0.1569
   61CHL1  H21C 6975   5.901   2.861   9.477  2.9190  0.0153 -0.9642
   61CHL1   C22 6976   6.109   2.965   9.304  0.0309 -0.4980 -0.3075
   61CHL1  H22A 6977   6.213   3.000   9.318  0.4196 -1.1850 -1.2894
   61CHL1  H22B 6978   6.110   2.855   9.324  0.0376 -0.9662 -2.5477
   61CHL1   C23 6979   6.068   2.975   9.157  0.3446  0.1592 -0.1275
   61CHL1  H23A 6980   5.975   2.918   9.137 -0.5027  1.3268  0.3949
   61CHL1  H23B 6981   6.043   3.083   9.150 -2.1688 -0.3581  0.1259
   61CHL1   C24 6982   6.178   2.927   9.066 -0.6219 -0.4734 -0.2257
   61CHL1  H24A 6983   6.271   2.981   9.094 -2.1501  1.0857  2.1366
   61CHL1  H24B 6984   6.191   2.817   9.070 -0.7948 -0.5611 -1.5753
   61CHL1   C25 6985   6.128   2.964   8.928 -0.8675  0.0050  0.4499
   61CHL1   H25 6986   6.032   2.917   8.898  0.1250  0.3510 -4.0633
   61CHL1   C26 6987   6.119   3.117   8.901  0.0498 -0.0228  0.1914
   61CHL1  H26A 6988   6.211   3.175   8.918  0.0183  0.2073 -0.4066
   61CHL1  H26B 6989   6.092   3.134   8.795 -1.6749 -2.4413  0.1519
   61CHL1  H26C 6990   6.030   3.158   8.955 -1.5521  1.5644 -3.3633
   61CHL1   C27 6991   6.240   2.904   8.834  0.2810 -0.1897 -0.0076
   61CHL1  H27A 6992   6.214   2.914   8.727  0.7635  1.3883  0.0042
   61CHL1  H27B 6993   6.336   2.952   8.861 -0.0845 -0.1056  1.2260
   61CHL1  H27C 6994   6.251   2.797   8.862 -0.8534  0.5051  3.6937
   62CHL1    C3 6995   3.333   6.646   9.987 -0.5642 -0.6959  0.1351
   62CHL1    H3 6996   3.432   6.696   9.998 -0.9759  0.1554  0.0044
   62CHL1    O3 6997   3.284   6.663  10.116  0.1552  0.1193  0.2580
   62CHL1   H3' 6998   3.238   6.580  10.129  2.3032 -0.8458  2.7654
   62CHL1    C4 6999   3.242   6.717   9.883  0.4219 -0.0731 -0.2301
   62CHL1   H4A 7000   3.144   6.665   9.878  0.3823 -0.0566  0.3565
   62CHL1   H4B 7001   3.221   6.819   9.921  0.9415  0.8863 -2.3681
   62CHL1    C5 7002   3.306   6.726   9.747 -0.3097 -0.1184 -0.4555
   62CHL1    C6 7003   3.338   6.843   9.695 -0.2612  0.0801  0.3057
   62CHL1    H6 7004   3.305   6.937   9.741  0.8706  0.2273  0.8703
   62CHL1    C7 7005   3.403   6.854   9.561  0.1009 -0.4383 -0.0103
   62CHL1   H7A 7006   3.344   6.926   9.500  1.6283  1.4529  0.6571
   62CHL1   H7B 7007   3.505   6.897   9.571 -0.1575  0.9178 -2.5117
   62CHL1    C8 7008   3.406   6.722   9.478 -0.4244 -0.7736  0.5745
   62CHL1    H8 7009   3.305   6.695   9.441  0.0363  0.5770 -1.8730
   62CHL1   C14 7010   3.499   6.731   9.359 -0.0874  0.5422  0.2461
   62CHL1   H14 7011   3.600   6.732   9.405 -1.1275  0.6758  2.7346
   62CHL1   C15 7012   3.504   6.858   9.265 -0.0833  0.0437 -0.5136
   62CHL1  H15A 7013   3.400   6.897   9.254  0.9610  3.9459  1.8439
   62CHL1  H15B 7014   3.562   6.938   9.314  2.3755 -0.7780 -1.9256
   62CHL1   C16 7015   3.558   6.812   9.131  0.3012  0.2268 -0.3937
   62CHL1  H16A 7016   3.475   6.808   9.058  0.3075 -3.1076 -0.3800
   62CHL1  H16B 7017   3.648   6.863   9.090  0.9307 -1.0309 -0.6176
   62CHL1   C17 7018   3.585   6.661   9.146 -0.4034  0.2538  0.3431
   62CHL1   H17 7019   3.692   6.655   9.175  0.3478 -2.4867 -2.4679
   62CHL1   C13 7020   3.505   6.604   9.272  0.8308 -0.3598 -0.5543
   62CHL1   C18 7021   3.363   6.577   9.220  0.3843 -0.0407  0.1731
   62CHL1  H18A 7022   3.317   6.667   9.175  0.2250 -0.6630 -0.9635
   62CHL1  H18B 7023   3.357   6.495   9.145 -2.8961  0.7424 -0.5615
   62CHL1  H18C 7024   3.289   6.543   9.295 -0.5209 -0.6543 -0.9571
   62CHL1   C12 7025   3.551   6.487   9.358 -0.0262 -0.3222 -0.6376
   62CHL1  H12A 7026   3.535   6.395   9.299  1.9651 -0.7851 -0.5060
   62CHL1  H12B 7027   3.657   6.498   9.386 -0.4117  1.9383  0.1653
   62CHL1   C11 7028   3.470   6.470   9.492  0.1979  0.4927 -0.2162
   62CHL1  H11A 7029   3.371   6.430   9.460 -0.5968  0.2171  2.4012
   62CHL1  H11B 7030   3.514   6.395   9.561  0.0520  1.3393  0.8096
   62CHL1    C9 7031   3.446   6.604   9.565 -0.5843  0.0766 -0.0915
   62CHL1    H9 7032   3.545   6.634   9.606 -1.3494  1.5076  0.7793
   62CHL1   C10 7033   3.354   6.588   9.686 -0.4615 -0.1742  0.4901
   62CHL1   C19 7034   3.221   6.510   9.645  0.1314 -0.2268  0.4420
   62CHL1  H19A 7035   3.138   6.523   9.717  0.0308  0.4930  0.1987
   62CHL1  H19B 7036   3.193   6.542   9.543 -0.5248 -1.4347  0.2305
   62CHL1  H19C 7037   3.227   6.400   9.635 -0.5636 -0.1713 -0.6470
   62CHL1    C1 7038   3.437   6.518   9.799 -0.0539  0.4654 -0.6249
   62CHL1   H1A 7039   3.472   6.417   9.768  0.1091  0.3372 -0.0230
   62CHL1   H1B 7040   3.532   6.568   9.826  0.8929 -1.9155  0.7279
   62CHL1    C2 7041   3.371   6.498   9.938  0.8063  0.2697 -0.4130
   62CHL1   H2A 7042   3.449   6.456  10.004  1.9468  1.0289 -1.2337
   62CHL1   H2B 7043   3.277   6.439   9.937  1.0249 -0.1157  0.7095
   62CHL1   C20 7044   3.590   6.579   9.008  0.3685  0.4093 -0.8013
   62CHL1   H20 7045   3.482   6.563   8.990  0.0833  0.2670  0.8982
   62CHL1   C21 7046   3.666   6.442   9.031  0.2743 -0.0862 -0.0542
   62CHL1  H21A 7047   3.591   6.378   9.082  0.7460 -0.4759  0.1610
   62CHL1  H21B 7048   3.754   6.459   9.096 -0.7141 -1.0585  1.6034
   62CHL1  H21C 7049   3.702   6.397   8.936 -0.9728  1.0937 -1.1266
   62CHL1   C22 7050   3.640   6.657   8.887 -0.2319 -0.2329  0.4575
   62CHL1  H22A 7051   3.595   6.758   8.877  1.5235  0.6038  0.6043
   62CHL1  H22B 7052   3.747   6.677   8.906 -0.0158  0.2371 -1.1127
   62CHL1   C23 7053   3.633   6.598   8.749  0.6707  0.6914  1.3565
   62CHL1  H23A 7054   3.673   6.496   8.761 -0.9638  0.0423  1.6228
   62CHL1  H23B 7055   3.524   6.596   8.726  0.4757  0.0885  2.2801
   62CHL1   C24 7056   3.706   6.672   8.643 -0.3632  0.8800 -0.6372
   62CHL1  H24A 7057   3.656   6.769   8.622  1.5686  1.3692 -3.6077
   62CHL1  H24B 7058   3.808   6.684   8.684  0.1646  1.3197 -2.0186
   62CHL1   C25 7059   3.724   6.596   8.509  0.3837 -0.3035  0.0771
   62CHL1   H25 7060   3.774   6.502   8.539  0.7289  0.5042  2.1996
   62CHL1   C26 7061   3.587   6.555   8.450 -0.3008  0.8939 -0.1759
   62CHL1  H26A 7062   3.610   6.483   8.369  1.0460 -0.2413  1.1467
   62CHL1  H26B 7063   3.520   6.505   8.523 -0.4156 -1.1752 -1.6197
   62CHL1  H26C 7064   3.544   6.646   8.403 -0.3017  0.1855 -1.5912
   62CHL1   C27 7065   3.798   6.681   8.403  0.1144  0.0177  0.0459
   62CHL1  H27A 7066   3.898   6.707   8.443 -0.1169  2.0111 -0.5573
   62CHL1  H27B 7067   3.820   6.629   8.307  0.9208  1.4040 -0.5488
   62CHL1  H27C 7068   3.730   6.767   8.385  2.1651  2.4266  2.8602
   63CHL1    C3 7069   1.498   1.922  10.404 -0.1652  0.2566  0.1394
   63CHL1    H3 7070   1.554   2.017  10.392  2.4669 -1.3545 -1.3192
   63CHL1    O3 7071   1.486   1.899  10.544  0.0585 -0.5797  0.5121
   63CHL1   H3' 7072   1.437   1.816  10.547 -1.6901  0.4034  0.9730
   63CHL1    C4 7073   1.363   1.926  10.333 -0.2898  0.1852  0.5639
   63CHL1   H4A 7074   1.294   1.840  10.342 -3.6030  2.6260  0.4555
   63CHL1   H4B 7075   1.294   2.000  10.380 -2.1327 -0.4160 -1.0616
   63CHL1    C5 7076   1.387   1.959  10.187 -0.1558 -1.0402 -0.8348
   63CHL1    C6 7077   1.333   2.069  10.129 -0.3128 -0.1034 -0.5565
   63CHL1    H6 7078   1.271   2.135  10.192 -1.1209 -1.6910  0.3663
   63CHL1    C7 7079   1.343   2.099   9.985 -0.5193  0.5940  1.0192
   63CHL1   H7A 7080   1.243   2.115   9.939 -0.1907  0.6370  0.3048
   63CHL1   H7B 7081   1.411   2.185   9.967 -1.0696  1.3479  2.3736
   63CHL1    C8 7082   1.408   1.989   9.899 -0.1082  0.3714 -0.5207
   63CHL1    H8 7083   1.320   1.921   9.891 -0.6252  0.9693  0.0294
   63CHL1   C14 7084   1.462   2.031   9.765  0.0623 -0.5879 -0.2948
   63CHL1   H14 7085   1.543   2.102   9.792  0.4640 -1.0443 -0.2960
   63CHL1   C15 7086   1.356   2.116   9.681  0.6079  0.2031 -0.6601
   63CHL1  H15A 7087   1.259   2.062   9.681  0.8715 -0.5577  2.9446
   63CHL1  H15B 7088   1.344   2.219   9.721  0.7893 -0.0394  0.0318
   63CHL1   C16 7089   1.430   2.124   9.549  0.0604  0.5177 -0.6286
   63CHL1  H16A 7090   1.374   2.066   9.472 -0.2981  0.7113 -0.5170
   63CHL1  H16B 7091   1.447   2.225   9.506  2.2984  1.0849  1.4472
   63CHL1   C17 7092   1.565   2.043   9.560  0.1316 -0.7579 -0.2344
   63CHL1   H17 7093   1.651   2.107   9.590  1.5047 -1.7266 -1.8948
   63CHL1   C13 7094   1.536   1.942   9.675 -0.2317  0.1183 -0.3417
   63CHL1   C18 7095   1.448   1.822   9.622 -0.1956 -0.8182 -0.7867
   63CHL1  H18A 7096   1.496   1.773   9.535 -1.3958 -1.3306 -1.1908
   63CHL1  H18B 7097   1.421   1.741   9.693 -2.2056  0.3083 -0.1836
   63CHL1  H18C 7098   1.351   1.870   9.597  0.3596  2.1059  2.0031
   63CHL1   C12 7099   1.658   1.887   9.753 -0.0548 -0.8539 -0.5983
   63CHL1  H12A 7100   1.706   1.811   9.688 -1.5753 -1.9833 -0.4887
   63CHL1  H12B 7101   1.723   1.972   9.780  0.8236 -2.0119  1.1424
   63CHL1   C11 7102   1.614   1.832   9.887 -0.1938  0.3222 -0.4699
   63CHL1  H11A 7103   1.550   1.747   9.859  1.3080 -0.3493 -2.0644
   63CHL1  H11B 7104   1.708   1.797   9.937  0.6029 -1.8628 -3.2706
   63CHL1    C9 7105   1.524   1.926   9.975 -0.1513  0.4333 -0.1120
   63CHL1    H9 7106   1.592   2.011   9.996  0.9722 -0.0090 -1.7963
   63CHL1   C10 7107   1.482   1.863  10.110  0.1340 -0.2260 -0.2207
   63CHL1   C19 7108   1.397   1.729  10.099 -0.0498 -0.1278  0.3841
   63CHL1  H19A 7109   1.474   1.650  10.088  0.6591  0.6099 -0.0214
   63CHL1  H19B 7110   1.346   1.696  10.192 -1.1961 -0.2738 -0.2765
   63CHL1  H19C 7111   1.324   1.731  10.016 -0.7734  1.0182  1.0285
   63CHL1    C1 7112   1.607   1.842  10.204  0.1844  0.3127 -0.4801
   63CHL1   H1A 7113   1.665   1.753  10.170 -0.3407 -0.6985  1.1459
   63CHL1   H1B 7114   1.659   1.940  10.199  0.9537  0.4129  4.5100
   63CHL1    C2 7115   1.574   1.808  10.342  0.4703  0.6807  0.5690
   63CHL1   H2A 7116   1.665   1.787  10.402 -0.3279  1.3194  2.0581
   63CHL1   H2B 7117   1.510   1.717  10.352 -0.3059  0.7900 -2.3985
   63CHL1   C20 7118   1.612   1.997   9.415 -0.4804 -0.6363  0.3987
   63CHL1   H20 7119   1.544   1.922   9.370  0.9659 -1.3495 -0.6890
   63CHL1   C21 7120   1.745   1.925   9.426  1.3052 -0.1863  0.3354
   63CHL1  H21A 7121   1.769   1.876   9.329  0.7221 -0.5374  0.3660
   63CHL1  H21B 7122   1.767   1.856   9.510  1.3871 -0.2638  0.2510
   63CHL1  H21C 7123   1.816   2.002   9.463 -0.7850  1.7923  0.4467
   63CHL1   C22 7124   1.621   2.121   9.324  0.4930  0.5821  0.1736
   63CHL1  H22A 7125   1.514   2.149   9.328  0.7416  1.4750  1.6081
   63CHL1  H22B 7126   1.687   2.197   9.372  0.8025  0.6588 -0.3662
   63CHL1   C23 7127   1.669   2.079   9.186  0.1487 -0.4424  0.1926
   63CHL1  H23A 7128   1.780   2.076   9.194  0.1764  1.5405  1.0112
   63CHL1  H23B 7129   1.636   1.978   9.151  4.5743 -1.5498 -1.4257
   63CHL1   C24 7130   1.628   2.193   9.095  0.6216  0.1002 -0.4177
   63CHL1  H24A 7131   1.518   2.207   9.107  1.1287  2.7207  2.3397
   63CHL1  H24B 7132   1.671   2.291   9.125  2.1481 -0.9545  1.0162
   63CHL1   C25 7133   1.652   2.166   8.942  0.5311  0.4798 -0.3663
   63CHL1   H25 7134   1.587   2.082   8.911 -2.5685  2.8348 -0.7231
   63CHL1   C26 7135   1.604   2.290   8.862  0.3696  0.0155  0.6008
   63CHL1  H26A 7136   1.607   2.276   8.752 -1.6023 -1.0526  0.6518
   63CHL1  H26B 7137   1.494   2.292   8.874  0.0106 -1.1812 -1.7897
   63CHL1  H26C 7138   1.652   2.387   8.889 -1.4592  1.2230 -0.3121
   63CHL1   C27 7139   1.803   2.133   8.924 -0.5194  0.2094  0.1145
   63CHL1  H27A 7140   1.809   2.034   8.975 -0.5587  0.3234  0.3452
   63CHL1  H27B 7141   1.835   2.123   8.819 -0.4713 -2.0935  0.2950
   63CHL1  H27C 7142   1.863   2.211   8.975  0.0904 -0.5828  0.6233
   64CHL1    C3 7143   6.150   0.012  10.003 -0.1120 -0.0526  0.2242
   64CHL1    H3 7144   6.183   0.117  10.020  1.0869 -0.2265 -0.8844
   64CHL1    O3 7145   6.107  -0.046  10.126  0.4351  0.0996 -0.5761
   64CHL1   H3' 7146   6.193  -0.061  10.167 -0.1002 -1.0726  0.2085
   64CHL1    C4 7147   6.030  -0.000   9.907  0.0137  0.3828  0.2715
   64CHL1   H4A 7148   5.989  -0.101   9.930  3.1186 -0.8159  1.1845
   64CHL1   H4B 7149   5.960   0.082   9.935 -0.3956  0.3279 -0.5613
   64CHL1    C5 7150   6.074   0.018   9.762 -0.6463 -0.2039  0.4700
   64CHL1    C6 7151   6.036   0.108   9.664  0.7203  0.7213 -0.5701
   64CHL1    H6 7152   5.959   0.177   9.701 -0.7624  0.0148 -2.1656
   64CHL1    C7 7153   6.087   0.126   9.526 -0.3411 -0.1857 -0.5593
   64CHL1   H7A 7154   6.010   0.176   9.464  2.2526  1.5875 -2.5308
   64CHL1   H7B 7155   6.167   0.202   9.532  2.1910 -2.8129  1.2947
   64CHL1    C8 7156   6.140  -0.010   9.470 -0.6122 -0.4405  0.4157
   64CHL1    H8 7157   6.054  -0.078   9.452 -0.4207 -0.2306 -1.4695
   64CHL1   C14 7158   6.208   0.008   9.332  0.2981  0.3184 -0.5803
   64CHL1   H14 7159   6.293   0.079   9.342  0.3412  0.3270 -1.0019
   64CHL1   C15 7160   6.125   0.072   9.222 -0.5208 -0.7153 -0.1891
   64CHL1  H15A 7161   6.025   0.024   9.216 -0.1758 -2.0138  2.6193
   64CHL1  H15B 7162   6.123   0.182   9.238 -0.4692 -0.9731  2.0064
   64CHL1   C16 7163   6.215   0.040   9.102 -0.2019 -0.5603 -0.3015
   64CHL1  H16A 7164   6.148   0.014   9.017  1.3328 -0.0487 -1.7366
   64CHL1  H16B 7165   6.278   0.127   9.072 -0.6790  0.4359  1.4475
   64CHL1   C17 7166   6.304  -0.078   9.139 -0.0050  0.1329 -0.0408
   64CHL1   H17 7167   6.410  -0.044   9.148 -0.5334  1.9518 -0.4164
   64CHL1   C13 7168   6.251  -0.126   9.277  0.5255 -0.9228  0.6079
   64CHL1   C18 7169   6.143  -0.234   9.265  0.6551  0.5826 -0.6993
   64CHL1  H18A 7170   6.180  -0.336   9.240  1.2642 -0.4567  3.7203
   64CHL1  H18B 7171   6.090  -0.248   9.361 -2.3275 -0.4646 -2.3565
   64CHL1  H18C 7172   6.072  -0.204   9.185  1.0473  1.3045 -0.7893
   64CHL1   C12 7173   6.359  -0.181   9.373 -0.7762  0.4834 -0.5780
   64CHL1  H12A 7174   6.403  -0.277   9.340 -0.0539  1.0339 -1.2621
   64CHL1  H12B 7175   6.440  -0.107   9.388  0.4465 -0.7403 -0.9058
   64CHL1   C11 7176   6.305  -0.200   9.518  0.1137 -0.1574  0.2043
   64CHL1  H11A 7177   6.237  -0.287   9.508  0.1075  0.0498 -1.9254
   64CHL1  H11B 7178   6.385  -0.228   9.591  0.8354 -1.0785 -0.9107
   64CHL1    C9 7179   6.234  -0.070   9.569 -0.2231  0.2087  0.0863
   64CHL1    H9 7180   6.322  -0.002   9.572 -1.1778  1.5778 -1.4437
   64CHL1   C10 7181   6.178  -0.088   9.717  0.6401 -0.1770  0.4969
   64CHL1   C19 7182   6.117  -0.231   9.727  0.0498  0.9966 -0.1570
   64CHL1  H19A 7183   6.193  -0.312   9.723 -2.3468 -1.3549 -1.5710
   64CHL1  H19B 7184   6.061  -0.243   9.822  1.0912 -0.9160  0.2695
   64CHL1  H19C 7185   6.058  -0.247   9.634 -0.7045 -0.2897  0.5130
   64CHL1    C1 7186   6.303  -0.066   9.808 -0.2678  0.9567 -0.6810
   64CHL1   H1A 7187   6.373  -0.147   9.778 -0.8096  0.0157  0.4890
   64CHL1   H1B 7188   6.352   0.033   9.796  1.5686  0.0684 -0.8324
   64CHL1    C2 7189   6.265  -0.081   9.951  0.4128  0.0417 -0.2628
   64CHL1   H2A 7190   6.349  -0.078  10.023 -0.2105  1.1685  0.4379
   64CHL1   H2B 7191   6.200  -0.171   9.957 -1.5507  1.4235  0.0473
   64CHL1   C20 7192   6.300  -0.181   9.028  0.5614 -0.6899  0.5469
   64CHL1   H20 7193   6.203  -0.234   9.018  1.2320 -1.8979  0.2408
   64CHL1   C21 7194   6.409  -0.280   9.066  0.0527 -0.1438  0.2336
   64CHL1  H21A 7195   6.435  -0.342   8.977  1.0303 -2.7371  2.1754
   64CHL1  H21B 7196   6.370  -0.358   9.135  0.1540 -0.4346 -0.0292
   64CHL1  H21C 7197   6.499  -0.226   9.101  0.8482 -0.9829 -0.4538
   64CHL1   C22 7198   6.326  -0.126   8.885 -1.0525 -0.6423  0.0626
   64CHL1  H22A 7199   6.341  -0.212   8.816 -1.9394 -1.8406  1.3110
   64CHL1  H22B 7200   6.237  -0.063   8.864 -1.2525 -0.4384  1.4646
   64CHL1   C23 7201   6.449  -0.035   8.876 -0.1727  0.4805  0.1193
   64CHL1  H23A 7202   6.431   0.060   8.931  1.3871 -0.4003  2.2872
   64CHL1  H23B 7203   6.537  -0.089   8.916 -0.6908 -1.0082 -0.6821
   64CHL1   C24 7204   6.476  -0.011   8.720  0.5810 -0.2402  0.2521
   64CHL1  H24A 7205   6.571   0.043   8.702  2.2375 -2.9656  0.2357
   64CHL1  H24B 7206   6.487  -0.116   8.684 -1.6483  0.1331 -1.7363
   64CHL1   C25 7207   6.352   0.042   8.642 -0.5074 -0.5633 -0.7391
   64CHL1   H25 7208   6.277  -0.039   8.650 -0.5199 -0.5946 -1.1701
   64CHL1   C26 7209   6.291   0.174   8.699  0.7201 -0.4187 -0.0769
   64CHL1  H26A 7210   6.249   0.173   8.801  0.8404  0.7983  0.0095
   64CHL1  H26B 7211   6.370   0.253   8.694  0.3096  0.0224  0.3505
   64CHL1  H26C 7212   6.199   0.204   8.645  0.1020 -1.3210  0.4687
   64CHL1   C27 7213   6.386   0.062   8.496 -0.3692 -0.1344 -0.0411
   64CHL1  H27A 7214   6.411  -0.036   8.452 -1.3647 -1.2152  1.6675
   64CHL1  H27B 7215   6.295   0.095   8.441 -0.9318  1.4362  1.6948
   64CHL1  H27C 7216   6.478   0.121   8.477  0.3936 -0.6767  1.7938
   65CHL1    C3 7217   0.569   3.324  10.052 -0.3920 -0.2930 -0.1325
   65CHL1    H3 7218   0.571   3.429  10.016 -0.5288 -0.5752 -0.9652
   65CHL1    O3 7219   0.530   3.336  10.189 -0.3542  0.1669  0.3701
   65CHL1   H3' 7220   0.555   3.253  10.231 -3.3244  0.2533  2.5974
   65CHL1    C4 7221   0.458   3.234   9.981 -0.1073 -0.7824 -0.0818
   65CHL1   H4A 7222   0.451   3.138  10.036  1.2892 -0.8354  0.0492
   65CHL1   H4B 7223   0.366   3.291  10.005  1.8225  2.9464 -0.7627
   65CHL1    C5 7224   0.486   3.216   9.834 -0.4188 -0.0482 -0.1535
   65CHL1    C6 7225   0.398   3.249   9.739 -0.7962 -0.5702  0.7738
   65CHL1    H6 7226   0.298   3.281   9.771  0.1093  0.1734  3.0910
   65CHL1    C7 7227   0.419   3.241   9.589 -0.6217 -0.5173  0.9240
   65CHL1   H7A 7228   0.331   3.213   9.528 -0.5735  0.2771  0.4688
   65CHL1   H7B 7229   0.455   3.337   9.546 -0.0756 -1.5800 -1.1275
   65CHL1    C8 7230   0.538   3.142   9.551  0.7089 -0.1244 -0.6169
   65CHL1    H8 7231   0.485   3.047   9.572  0.2379  0.1611 -0.5080
   65CHL1   C14 7232   0.580   3.147   9.410 -0.8811 -0.3765  0.6001
   65CHL1   H14 7233   0.631   3.245   9.401 -0.4787 -0.6496 -0.1462
   65CHL1   C15 7234   0.480   3.161   9.295 -0.4725  0.4398  0.3445
   65CHL1  H15A 7235   0.413   3.073   9.298  1.2712 -0.9588 -0.2859
   65CHL1  H15B 7236   0.419   3.254   9.292 -0.6350  0.3164 -1.1598
   65CHL1   C16 7237   0.570   3.142   9.173 -0.4939 -0.4444  0.3365
   65CHL1  H16A 7238   0.521   3.070   9.103  1.1170 -1.7303  0.4771
   65CHL1  H16B 7239   0.584   3.238   9.119  0.1226 -1.8228 -2.0928
   65CHL1   C17 7240   0.709   3.090   9.216 -0.0539 -0.2425 -0.2484
   65CHL1   H17 7241   0.781   3.174   9.233 -0.1643 -0.4095  1.0916
   65CHL1   C13 7242   0.681   3.040   9.363  0.5982  0.1601  0.0880
   65CHL1   C18 7243   0.624   2.896   9.365 -0.2302 -0.3202  0.1162
   65CHL1  H18A 7244   0.709   2.824   9.359 -0.6420 -0.6744 -2.8166
   65CHL1  H18B 7245   0.560   2.880   9.454 -1.6130  0.6904 -0.6528
   65CHL1  H18C 7246   0.557   2.885   9.277 -2.4729 -0.8432  1.7948
   65CHL1   C12 7247   0.798   3.047   9.458  0.1223  0.7201  0.1353
   65CHL1  H12A 7248   0.877   2.970   9.440 -0.3986  0.1621  0.2125
   65CHL1  H12B 7249   0.847   3.146   9.443  1.5280  0.2360  1.2486
   65CHL1   C11 7250   0.756   3.039   9.604  0.2513  0.3891 -0.7315
   65CHL1  H11A 7251   0.725   2.937   9.636 -1.0684  0.8665 -0.4158
   65CHL1  H11B 7252   0.845   3.060   9.668 -0.1634  0.9777 -0.3381
   65CHL1    C9 7253   0.658   3.154   9.652 -0.8265 -0.1076  0.1580
   65CHL1    H9 7254   0.706   3.249   9.622 -1.1799 -0.3310 -1.2085
   65CHL1   C10 7255   0.625   3.163   9.810  0.6615  0.2636 -0.6449
   65CHL1   C19 7256   0.649   3.021   9.866 -0.3511  0.0744 -0.1993
   65CHL1  H19A 7257   0.662   3.005   9.975 -0.5003  1.3705  0.0271
   65CHL1  H19B 7258   0.561   2.965   9.827  0.8694 -1.2652 -1.1231
   65CHL1  H19C 7259   0.746   2.977   9.835  0.2058  1.8839 -1.1994
   65CHL1    C1 7260   0.725   3.255   9.887 -0.0907 -0.1853 -0.1543
   65CHL1   H1A 7261   0.825   3.214   9.860  0.9709  1.8725  0.4097
   65CHL1   H1B 7262   0.709   3.360   9.856 -0.3105  0.2534  1.3470
   65CHL1    C2 7263   0.709   3.260  10.042  0.6624 -0.0012  0.0773
   65CHL1   H2A 7264   0.786   3.324  10.089  0.2505 -0.5129  1.5161
   65CHL1   H2B 7265   0.716   3.155  10.079  1.6803  0.0592  0.0666
   65CHL1   C20 7266   0.778   3.007   9.104  0.0460 -0.1380  0.1646
   65CHL1   H20 7267   0.720   2.915   9.079 -0.6164  0.3490 -0.0883
   65CHL1   C21 7268   0.917   2.963   9.150 -0.4506  0.3727  0.3793
   65CHL1  H21A 7269   0.919   2.885   9.229 -1.0556 -1.9411 -1.7434
   65CHL1  H21B 7270   0.977   3.054   9.170  0.6864 -0.2282 -0.1956
   65CHL1  H21C 7271   0.972   2.908   9.070 -0.1415  0.5924  0.4421
   65CHL1   C22 7272   0.791   3.081   8.976 -0.2690  0.7542 -0.0671
   65CHL1  H22A 7273   0.692   3.101   8.929 -0.5428  0.4893  0.3968
   65CHL1  H22B 7274   0.840   3.180   8.988  3.6748 -1.0359 -0.0403
   65CHL1   C23 7275   0.880   3.019   8.866  0.8927  0.1929  0.2075
   65CHL1  H23A 7276   0.987   3.034   8.893  0.2436  1.8023  2.1787
   65CHL1  H23B 7277   0.851   2.912   8.873 -0.7079  0.6588  1.2110
   65CHL1   C24 7278   0.851   3.082   8.725 -0.2306  0.1811  0.2472
   65CHL1  H24A 7279   0.745   3.064   8.695  0.4856 -1.0011 -1.7232
   65CHL1  H24B 7280   0.868   3.190   8.745 -2.6150  0.5073  0.8052
   65CHL1   C25 7281   0.954   3.029   8.621 -0.1913  0.0825  0.1589
   65CHL1   H25 7282   1.054   3.049   8.665  0.1331 -0.6868 -0.2170
   65CHL1   C26 7283   0.949   2.872   8.600 -0.5097  0.0206 -0.5080
   65CHL1  H26A 7284   0.859   2.841   8.543 -0.0115 -1.4403 -0.5429
   65CHL1  H26B 7285   1.029   2.843   8.529 -0.7634 -3.4462  0.4259
   65CHL1  H26C 7286   0.971   2.811   8.690  1.5565 -1.3107 -1.8305
   65CHL1   C27 7287   0.935   3.105   8.490 -0.1701  0.2975  0.1566
   65CHL1  H27A 7288   0.999   3.064   8.409  0.4077  2.6342 -0.6547
   65CHL1  H27B 7289   0.828   3.093   8.462 -0.6286 -0.4828  2.1330
   65CHL1  H27C 7290   0.962   3.211   8.508 -1.4909  0.2092  3.0973
   66CHL1    C3 7291   5.777   2.846  10.504 -0.1032 -0.5063 -0.2355
   66CHL1    H3 7292   5.777   2.948  10.461 -0.7738  0.0872  1.0991
   66CHL1    O3 7293   5.758   2.843  10.642 -0.1651  0.6486 -0.0424
   66CHL1   H3' 7294   5.705   2.764  10.656  0.9150  0.0247  0.7220
   66CHL1    C4 7295   5.675   2.761  10.434  0.8721  0.4695 -0.3369
   66CHL1   H4A 7296   5.652   2.662  10.479 -0.4800  1.1446  0.4957
   66CHL1   H4B 7297   5.579   2.816  10.444  0.8728  0.6081 -1.0276
   66CHL1    C5 7298   5.704   2.740  10.288 -0.0855  0.2133 -0.2233
   66CHL1    C6 7299   5.610   2.773  10.200 -0.2154  0.4523  0.4361
   66CHL1    H6 7300   5.509   2.806  10.228 -1.4702  1.1001 -4.0517
   66CHL1    C7 7301   5.630   2.742  10.059 -0.0908 -0.0684  0.3860
   66CHL1   H7A 7302   5.539   2.688  10.025  0.2948 -0.2771 -0.3207
   66CHL1   H7B 7303   5.637   2.831   9.992 -2.6206 -0.3492 -0.3712
   66CHL1    C8 7304   5.745   2.649  10.030  0.1602  0.5157 -0.2851
   66CHL1    H8 7305   5.711   2.549  10.062  2.1686 -0.2648 -0.4349
   66CHL1   C14 7306   5.774   2.650   9.880  0.7028 -0.5435 -0.1548
   66CHL1   H14 7307   5.797   2.756   9.853  0.0139 -0.1371  0.7712
   66CHL1   C15 7308   5.658   2.620   9.785 -0.8165  0.5212  0.2488
   66CHL1  H15A 7309   5.608   2.530   9.828 -1.7261  1.1505  0.5423
   66CHL1  H15B 7310   5.579   2.699   9.788 -1.5842 -0.0406 -2.2508
   66CHL1   C16 7311   5.729   2.606   9.650  1.5362 -0.3459 -0.2514
   66CHL1  H16A 7312   5.691   2.512   9.605 -1.4208  0.7365 -0.1765
   66CHL1  H16B 7313   5.707   2.679   9.570  0.5401 -0.0713  0.2661
   66CHL1   C17 7314   5.883   2.595   9.676  0.0191 -0.5240  0.6361
   66CHL1   H17 7315   5.930   2.695   9.664 -0.5311 -0.4693 -1.3390
   66CHL1   C13 7316   5.892   2.568   9.830  0.0916  0.0407  0.3735
   66CHL1   C18 7317   5.873   2.413   9.849  0.4122  1.0059 -0.4318
   66CHL1  H18A 7318   5.971   2.364   9.835 -0.4713 -0.1880 -3.0152
   66CHL1  H18B 7319   5.828   2.381   9.946  0.2500 -0.7814 -1.0565
   66CHL1  H18C 7320   5.813   2.378   9.762  2.3368 -1.7117 -0.7880
   66CHL1   C12 7321   6.012   2.621   9.906 -0.5999 -0.8861  0.1323
   66CHL1  H12A 7322   6.109   2.577   9.874  0.1243  1.5947 -1.4130
   66CHL1  H12B 7323   6.030   2.726   9.872  2.5420 -1.8108 -1.4720
   66CHL1   C11 7324   5.992   2.596  10.054 -0.5179  0.1494  0.4659
   66CHL1  H11A 7325   5.968   2.491  10.080  1.5284 -0.5985 -0.5003
   66CHL1  H11B 7326   6.086   2.615  10.110 -0.4764 -2.1659  1.2839
   66CHL1    C9 7327   5.868   2.680  10.106  0.4009  0.7221  0.0166
   66CHL1    H9 7328   5.889   2.787  10.085 -0.4957  1.5042  2.7137
   66CHL1   C10 7329   5.846   2.674  10.259 -0.2711 -0.0880  0.5564
   66CHL1   C19 7330   5.830   2.529  10.307  0.1462  0.4868 -0.1244
   66CHL1  H19A 7331   5.787   2.453  10.239 -0.1586 -2.7770  3.3502
   66CHL1  H19B 7332   5.932   2.490  10.329 -0.1528  0.9056  2.3197
   66CHL1  H19C 7333   5.781   2.512  10.406 -0.1217 -1.6708 -0.5707
   66CHL1    C1 7334   5.948   2.754  10.338 -0.3478 -0.3906 -0.3474
   66CHL1   H1A 7335   6.045   2.700  10.327  0.5206  1.3627 -1.7036
   66CHL1   H1B 7336   5.961   2.858  10.303 -2.6555 -0.3146 -1.1481
   66CHL1    C2 7337   5.914   2.778  10.483 -0.4363 -0.3814  0.5861
   66CHL1   H2A 7338   5.994   2.835  10.536  0.4319 -0.3859 -0.6646
   66CHL1   H2B 7339   5.910   2.677  10.527 -1.1540  0.2704  2.0876
   66CHL1   C20 7340   5.960   2.498   9.576 -0.2574  0.6138 -0.3190
   66CHL1   H20 7341   5.931   2.394   9.602 -1.9719  1.1200 -0.1165
   66CHL1   C21 7342   6.112   2.514   9.594 -0.7321  0.0229 -1.1652
   66CHL1  H21A 7343   6.143   2.472   9.692  0.3965 -0.3174 -1.6540
   66CHL1  H21B 7344   6.146   2.620   9.589 -0.8645  0.0053 -2.9302
   66CHL1  H21C 7345   6.166   2.450   9.521  0.9199 -0.4745  0.4101
   66CHL1   C22 7346   5.915   2.528   9.429  0.2536 -0.2705 -0.7263
   66CHL1  H22A 7347   5.804   2.526   9.423  0.0665  1.3579  1.0844
   66CHL1  H22B 7348   5.945   2.629   9.395 -2.6601 -0.0571 -3.1189
   66CHL1   C23 7349   5.976   2.430   9.324  1.0479  0.1245 -0.1731
   66CHL1  H23A 7350   6.087   2.423   9.329  0.9330 -1.2346  1.2759
   66CHL1  H23B 7351   5.939   2.334   9.364  1.1752  1.0719  2.4578
   66CHL1   C24 7352   5.933   2.457   9.182  0.5931  0.0311 -0.5025
   66CHL1  H24A 7353   5.823   2.459   9.191  0.4223  0.0681 -2.1985
   66CHL1  H24B 7354   5.966   2.557   9.145 -0.3122 -0.2844 -2.2641
   66CHL1   C25 7355   5.961   2.351   9.076  0.2428  0.4444 -0.0662
   66CHL1   H25 7356   5.938   2.251   9.119  2.2307 -0.2378 -0.4843
   66CHL1   C26 7357   5.868   2.363   8.962 -0.5723  0.1093  0.3609
   66CHL1  H26A 7358   5.773   2.305   8.973  1.4785 -3.8480 -0.8909
   66CHL1  H26B 7359   5.840   2.470   8.947 -1.2306 -0.0265  0.5618
   66CHL1  H26C 7360   5.919   2.329   8.870 -0.8392  0.8760 -0.0773
   66CHL1   C27 7361   6.117   2.354   9.045 -0.5414 -0.4493  0.1242
   66CHL1  H27A 7362   6.136   2.289   8.958 -2.0762 -1.0167  0.1854
   66CHL1  H27B 7363   6.143   2.462   9.032 -0.8297 -0.4429 -0.4128
   66CHL1  H27C 7364   6.172   2.310   9.131  1.0644 -2.0531 -1.6316
   67CHL1    C3 7365   5.194   3.153  10.249  0.9577 -1.1030  0.9482
   67CHL1    H3 7366   5.236   3.253  10.271  0.0748 -0.6541  0.6210
   67CHL1    O3 7367   5.139   3.104  10.372 -0.6675  0.0276 -0.3930
   67CHL1   H3' 7368   5.121   3.012  10.348 -2.5000  0.0522  0.6961
   67CHL1    C4 7369   5.080   3.166  10.141  0.1187 -0.3272  0.3444
   67CHL1   H4A 7370   5.016   3.076  10.132 -0.5964  0.2442 -0.5227
   67CHL1   H4B 7371   5.020   3.253  10.177  0.6994  0.3322 -0.2485
   67CHL1    C5 7372   5.137   3.205  10.009 -0.1205 -0.1073 -0.7320
   67CHL1    C6 7373   5.093   3.308   9.933 -0.1870  0.0276 -0.2644
   67CHL1    H6 7374   5.010   3.368   9.974 -0.3877 -0.7801  0.5606
   67CHL1    C7 7375   5.142   3.346   9.795 -0.2939 -0.0245 -0.5284
   67CHL1   H7A 7376   5.061   3.387   9.731  0.5747  1.7439 -0.5428
   67CHL1   H7B 7377   5.209   3.433   9.806  0.4912 -0.6402 -0.3704
   67CHL1    C8 7378   5.220   3.224   9.726 -0.1127  0.0868  0.0346
   67CHL1    H8 7379   5.144   3.145   9.710  1.9558 -1.6369 -1.8558
   67CHL1   C14 7380   5.280   3.274   9.599  0.0834 -0.6427  0.5415
   67CHL1   H14 7381   5.349   3.354   9.632  0.5891 -0.9053  0.1539
   67CHL1   C15 7382   5.192   3.354   9.498 -0.6431  0.0199 -0.0766
   67CHL1  H15A 7383   5.095   3.301   9.491 -2.0337  2.5891 -1.9487
   67CHL1  H15B 7384   5.166   3.459   9.527  2.9801  0.7690  1.0134
   67CHL1   C16 7385   5.268   3.331   9.364 -0.5926 -0.3971 -0.1958
   67CHL1  H16A 7386   5.201   3.277   9.293 -0.8141 -1.5498  0.8629
   67CHL1  H16B 7387   5.283   3.431   9.318 -1.3958 -0.5499 -0.8242
   67CHL1   C17 7388   5.400   3.256   9.402  0.6369  0.3495 -0.2048
   67CHL1   H17 7389   5.473   3.330   9.441  1.7215 -0.8971  0.2082
   67CHL1   C13 7390   5.364   3.173   9.529 -0.3000  0.3495  0.3718
   67CHL1   C18 7391   5.279   3.057   9.479  0.1904  0.3191  0.9593
   67CHL1  H18A 7392   5.341   2.977   9.432  0.4480  1.2893 -0.3988
   67CHL1  H18B 7393   5.235   3.015   9.572 -0.2231  1.0129  1.0830
   67CHL1  H18C 7394   5.194   3.089   9.416  0.8438  3.8025  1.6652
   67CHL1   C12 7395   5.472   3.122   9.624 -0.4060 -0.7700 -0.4164
   67CHL1  H12A 7396   5.540   3.052   9.571  0.5219 -0.3474  0.1881
   67CHL1  H12B 7397   5.535   3.212   9.640  0.8429 -1.4060 -1.5021
   67CHL1   C11 7398   5.423   3.067   9.758 -0.3650  0.5697 -1.3918
   67CHL1  H11A 7399   5.381   2.965   9.748 -0.2555 -0.2474  3.7898
   67CHL1  H11B 7400   5.511   3.048   9.823 -1.4030  1.6857  0.4433
   67CHL1    C9 7401   5.326   3.167   9.825  0.4213 -0.2050 -0.0177
   67CHL1    H9 7402   5.383   3.256   9.860 -1.3924  1.0643 -0.1362
   67CHL1   C10 7403   5.253   3.110   9.951 -0.4784  0.4781  0.4223
   67CHL1   C19 7404   5.187   2.970   9.922 -0.4827  0.0175  1.0765
   67CHL1  H19A 7405   5.116   2.930   9.998 -0.1601 -1.2764  0.7262
   67CHL1  H19B 7406   5.125   2.979   9.831  1.5373 -0.0571 -0.3881
   67CHL1  H19C 7407   5.272   2.898   9.914 -0.3627  0.2600  0.1181
   67CHL1    C1 7408   5.359   3.100  10.062  0.0731 -0.0554 -0.3622
   67CHL1   H1A 7409   5.429   3.019  10.032  1.6867  0.8120  0.8710
   67CHL1   H1B 7410   5.410   3.199  10.070  1.2484 -0.6660 -0.1135
   67CHL1    C2 7411   5.307   3.060  10.201 -0.7882 -0.2823 -0.4278
   67CHL1   H2A 7412   5.392   3.081  10.270  0.0285 -2.8491 -0.5505
   67CHL1   H2B 7413   5.279   2.953  10.210  0.6589 -0.6146  0.6384
   67CHL1   C20 7414   5.460   3.179   9.282  0.0398  0.8305 -0.2199
   67CHL1   H20 7415   5.389   3.102   9.245  0.6471 -0.4979  1.2773
   67CHL1   C21 7416   5.592   3.113   9.310 -0.1549  0.5813  0.7934
   67CHL1  H21A 7417   5.575   3.009   9.343 -1.0967  0.9276  1.4563
   67CHL1  H21B 7418   5.650   3.171   9.385 -0.0461  0.0774  1.1030
   67CHL1  H21C 7419   5.647   3.109   9.214 -1.3320 -0.4048  0.1290
   67CHL1   C22 7420   5.470   3.277   9.158  0.1105  0.3811  0.5705
   67CHL1  H22A 7421   5.502   3.218   9.070 -0.4345  0.1737  0.5103
   67CHL1  H22B 7422   5.369   3.319   9.136  0.1342  0.9674  1.4991
   67CHL1   C23 7423   5.558   3.399   9.176  0.7218  0.5793 -0.4931
   67CHL1  H23A 7424   5.539   3.439   9.278 -3.1802  3.8374 -2.2060
   67CHL1  H23B 7425   5.661   3.360   9.164  1.0843  1.0019  1.0170
   67CHL1   C24 7426   5.527   3.511   9.076 -0.4111  0.0632 -0.0400
   67CHL1  H24A 7427   5.484   3.460   8.987 -1.2649 -1.1338  1.0174
   67CHL1  H24B 7428   5.454   3.584   9.118  0.4900  0.4122  0.9695
   67CHL1   C25 7429   5.640   3.603   9.033 -0.6614 -0.4043  0.0283
   67CHL1   H25 7430   5.690   3.637   9.126 -0.0070  1.0469 -0.8158
   67CHL1   C26 7431   5.746   3.526   8.955 -0.2957 -0.1097 -0.2610
   67CHL1  H26A 7432   5.704   3.492   8.857  0.8251  0.0022 -0.7946
   67CHL1  H26B 7433   5.823   3.602   8.932 -2.4836  2.0239 -1.0415
   67CHL1  H26C 7434   5.795   3.445   9.013 -0.4745 -0.1675 -0.1891
   67CHL1   C27 7435   5.595   3.727   8.953 -0.6304 -0.5120 -0.0525
   67CHL1  H27A 7436   5.678   3.798   8.931 -2.7465  1.1713 -3.1875
   67CHL1  H27B 7437   5.553   3.695   8.856 -0.6756 -2.2700  0.5206
   67CHL1  H27C 7438   5.522   3.788   9.009 -0.3084 -1.5560  1.5747
   68CHL1    C3 7439   3.127   3.021  10.139  0.3030  0.1262 -0.4410
   68CHL1    H3 7440   3.188   2.937  10.098 -2.2118 -1.0604 -1.9862
   68CHL1    O3 7441   3.137   3.009  10.281 -0.0607  0.0737  0.3435
   68CHL1   H3' 7442   3.094   2.931  10.317  1.6073 -0.9598  0.2224
   68CHL1    C4 7443   3.193   3.155  10.107 -0.3607 -0.1804  0.1072
   68CHL1   H4A 7444   3.156   3.237  10.173 -1.7247 -1.2687  0.7597
   68CHL1   H4B 7445   3.300   3.141  10.134  0.4314  0.2707 -2.4628
   68CHL1    C5 7446   3.174   3.192   9.962 -0.0572 -0.0292  0.5237
   68CHL1    C6 7447   3.274   3.211   9.874 -0.5090 -0.0332 -0.0188
   68CHL1    H6 7448   3.377   3.194   9.907 -0.1416 -0.3068 -1.2580
   68CHL1    C7 7449   3.257   3.248   9.732 -0.2999 -0.3920 -0.2041
   68CHL1   H7A 7450   3.331   3.325   9.703 -1.0732  1.5493  2.6016
   68CHL1   H7B 7451   3.277   3.150   9.684 -2.4637 -0.4508 -1.1171
   68CHL1    C8 7452   3.112   3.282   9.696 -0.4066  0.2200 -0.5792
   68CHL1    H8 7453   3.091   3.383   9.737 -0.9024 -0.3676  0.6919
   68CHL1   C14 7454   3.102   3.285   9.547  0.5639  0.4654  0.7694
   68CHL1   H14 7455   3.132   3.185   9.510 -0.2657  0.6220 -0.3730
   68CHL1   C15 7456   3.182   3.384   9.467  0.5210  0.0665  0.4151
   68CHL1  H15A 7457   3.171   3.488   9.504 -1.7999 -0.2524  0.8022
   68CHL1  H15B 7458   3.289   3.358   9.459  0.0539 -1.4024 -2.0595
   68CHL1   C16 7459   3.118   3.398   9.320  0.5462  0.2474  0.1238
   68CHL1  H16A 7460   3.093   3.504   9.299  0.7399  0.2656 -0.0229
   68CHL1  H16B 7461   3.193   3.364   9.245  0.3654 -0.6138  0.3190
   68CHL1   C17 7462   2.998   3.302   9.329  0.0149  0.1227 -0.7106
   68CHL1   H17 7463   3.042   3.202   9.314 -0.5246  0.0553 -1.9173
   68CHL1   C13 7464   2.967   3.302   9.480  0.2606 -0.2018  0.3795
   68CHL1   C18 7465   2.903   3.433   9.513  0.1418 -0.0359  0.7908
   68CHL1  H18A 7466   2.796   3.440   9.486  0.5586  1.2690 -0.6697
   68CHL1  H18B 7467   2.926   3.466   9.617  1.8362  0.5143  0.2698
   68CHL1  H18C 7468   2.948   3.516   9.454 -0.5044  1.2397  2.0345
   68CHL1   C12 7469   2.878   3.192   9.544 -0.2250  0.7609  0.4536
   68CHL1  H12A 7470   2.778   3.219   9.504  0.1770  0.4052 -0.8684
   68CHL1  H12B 7471   2.910   3.095   9.499  0.5743  1.5013 -0.6289
   68CHL1   C11 7472   2.867   3.184   9.695 -0.1330 -0.3924  0.1852
   68CHL1  H11A 7473   2.817   3.277   9.730 -0.4814 -0.7766  0.7336
   68CHL1  H11B 7474   2.800   3.109   9.742  0.4224 -0.1412  1.4340
   68CHL1    C9 7475   3.012   3.183   9.763 -1.0385 -0.1585  0.5623
   68CHL1    H9 7476   3.047   3.085   9.723 -0.8586 -0.4773  1.4713
   68CHL1   C10 7477   3.029   3.186   9.914  0.7087  0.2158  0.0099
   68CHL1   C19 7478   2.951   3.310   9.976 -0.4864  0.1091 -0.2476
   68CHL1  H19A 7479   2.976   3.335  10.081  0.4388  2.0329 -0.8616
   68CHL1  H19B 7480   2.988   3.396   9.915  1.4126 -0.8712 -0.5748
   68CHL1  H19C 7481   2.841   3.297   9.967 -0.7503  0.1304  2.3388
   68CHL1    C1 7482   2.951   3.054   9.962 -0.3040 -0.5892 -0.1041
   68CHL1   H1A 7483   2.843   3.075   9.952 -0.5764 -2.3727 -1.4210
   68CHL1   H1B 7484   2.976   2.964   9.902  1.6708 -1.4094  1.8153
   68CHL1    C2 7485   2.980   3.015  10.108  0.1754 -1.0404 -0.5295
   68CHL1   H2A 7486   2.940   2.914  10.132  2.4683 -2.2665 -1.6255
   68CHL1   H2B 7487   2.927   3.100  10.157  1.1366  1.5467 -3.6400
   68CHL1   C20 7488   2.884   3.313   9.229  1.0279  0.0431  0.6011
   68CHL1   H20 7489   2.811   3.393   9.258 -0.3406 -1.1383  0.5297
   68CHL1   C21 7490   2.803   3.182   9.220  0.0110  0.5084  0.1507
   68CHL1  H21A 7491   2.753   3.162   9.317  1.7487 -1.6439  0.6754
   68CHL1  H21B 7492   2.863   3.090   9.204  0.1395  0.7378 -0.7840
   68CHL1  H21C 7493   2.721   3.185   9.145  0.4982 -1.0509 -0.4671
   68CHL1   C22 7494   2.948   3.343   9.085  0.7657 -0.0761 -0.2574
   68CHL1  H22A 7495   2.994   3.443   9.101  1.5033 -0.9044  3.9382
   68CHL1  H22B 7496   3.022   3.262   9.064 -0.7320 -1.4271 -0.4978
   68CHL1   C23 7497   2.845   3.367   8.970  0.3843 -0.8633 -0.9115
   68CHL1  H23A 7498   2.788   3.278   8.933  0.3239 -1.0166 -0.4503
   68CHL1  H23B 7499   2.766   3.422   9.026  2.4718  0.7970  0.5280
   68CHL1   C24 7500   2.899   3.427   8.839 -0.4388  0.1988  0.8459
   68CHL1  H24A 7501   2.954   3.523   8.849  1.1156 -0.6963  1.2066
   68CHL1  H24B 7502   2.978   3.351   8.823 -0.7011 -0.3115  1.8661
   68CHL1   C25 7503   2.802   3.423   8.719 -0.9118  0.4777  0.0572
   68CHL1   H25 7504   2.777   3.316   8.702 -1.0743  0.3418  1.1040
   68CHL1   C26 7505   2.667   3.486   8.741 -0.5591  0.0711 -0.2383
   68CHL1  H26A 7506   2.609   3.437   8.822 -1.4965  1.0449 -0.2991
   68CHL1  H26B 7507   2.685   3.591   8.771 -1.9652 -0.0062  0.9514
   68CHL1  H26C 7508   2.613   3.489   8.644 -0.4254  2.2175 -0.2860
   68CHL1   C27 7509   2.867   3.452   8.579  0.4074  0.1220 -0.2360
   68CHL1  H27A 7510   2.803   3.425   8.493  1.2159 -0.6688 -0.5999
   68CHL1  H27B 7511   2.882   3.562   8.579 -1.1383  0.3508 -0.4065
   68CHL1  H27C 7512   2.962   3.398   8.559  0.9379  0.9074  0.1007
   69CHL1    C3 7513   2.199   1.404   6.516 -0.4251  0.3391  0.1270
   69CHL1    H3 7514   2.297   1.410   6.465  2.1891 -3.1876  3.9977
   69CHL1    O3 7515   2.090   1.424   6.420  0.0704 -0.2128  0.0189
   69CHL1   H3' 7516   2.089   1.348   6.361 -1.3273  0.0371 -0.3127
   69CHL1    C4 7517   2.190   1.266   6.578 -1.2792 -0.0069  0.2445
   69CHL1   H4A 7518   2.090   1.230   6.611 -0.1982 -2.2086  1.3462
   69CHL1   H4B 7519   2.214   1.194   6.497 -1.4918  0.6236 -0.3973
   69CHL1    C5 7520   2.286   1.244   6.691  0.1968  0.2512 -0.2550
   69CHL1    C6 7521   2.358   1.130   6.701 -0.3746 -0.4508 -0.8220
   69CHL1    H6 7522   2.352   1.057   6.619  1.8441 -1.6986  0.0310
   69CHL1    C7 7523   2.449   1.098   6.814 -0.0169 -0.3067 -0.7806
   69CHL1   H7A 7524   2.432   0.992   6.844 -0.3280  0.4546  2.0675
   69CHL1   H7B 7525   2.557   1.109   6.791  0.0079  0.0323 -0.5100
   69CHL1    C8 7526   2.439   1.187   6.941  0.2154  0.1479  0.2605
   69CHL1    H8 7527   2.351   1.151   6.998  0.2881 -1.2958 -0.4945
   69CHL1   C14 7528   2.560   1.182   7.034  0.1382  0.3278  0.1483
   69CHL1   H14 7529   2.642   1.229   6.975  0.1071  2.2816  1.5414
   69CHL1   C15 7530   2.616   1.046   7.074  0.4195 -0.4264  0.5180
   69CHL1  H15A 7531   2.529   0.977   7.081 -1.5175  1.7929 -0.3119
   69CHL1  H15B 7532   2.682   1.006   6.995 -0.4912 -1.8436  0.4474
   69CHL1   C16 7533   2.691   1.069   7.208 -0.7670  0.2419 -0.5141
   69CHL1  H16A 7534   2.654   1.009   7.294 -0.2844 -1.0099 -1.1646
   69CHL1  H16B 7535   2.797   1.041   7.193 -0.7983 -1.4029  1.7790
   69CHL1   C17 7536   2.675   1.217   7.235 -0.1903  0.4054 -0.2657
   69CHL1   H17 7537   2.757   1.254   7.170  1.7301  0.1446  1.8754
   69CHL1   C13 7538   2.547   1.259   7.164 -0.1248 -0.3731 -0.2909
   69CHL1   C18 7539   2.428   1.206   7.253  0.7099 -0.2245  0.3457
   69CHL1  H18A 7540   2.447   1.102   7.288  0.2567 -0.8213 -1.1000
   69CHL1  H18B 7541   2.416   1.270   7.344 -0.4217  1.2630 -0.8002
   69CHL1  H18C 7542   2.330   1.203   7.200 -1.2626 -0.9724  3.6573
   69CHL1   C12 7543   2.525   1.413   7.128 -0.0592 -0.1750  0.1304
   69CHL1  H12A 7544   2.511   1.470   7.222  1.5000 -0.8472  0.8047
   69CHL1  H12B 7545   2.617   1.440   7.072 -0.5313  0.4112 -0.3858
   69CHL1   C11 7546   2.404   1.424   7.027 -0.6177 -0.4080  0.1766
   69CHL1  H11A 7547   2.308   1.399   7.078  0.1149 -1.6320  1.0177
   69CHL1  H11B 7548   2.386   1.527   6.991  0.7275 -0.5122 -0.8510
   69CHL1    C9 7549   2.410   1.330   6.897  0.7063  0.0609 -0.7043
   69CHL1    H9 7550   2.498   1.356   6.834  1.1810 -0.0627 -0.1025
   69CHL1   C10 7551   2.287   1.355   6.800 -0.7832  0.1096 -0.1196
   69CHL1   C19 7552   2.158   1.355   6.883 -0.6455  0.3006 -0.2587
   69CHL1  H19A 7553   2.066   1.356   6.821 -0.6168 -2.7088 -0.4845
   69CHL1  H19B 7554   2.157   1.261   6.942  2.7893 -0.2470 -0.8549
   69CHL1  H19C 7555   2.153   1.441   6.953 -1.7433 -0.1299  0.2128
   69CHL1    C1 7556   2.300   1.495   6.722 -0.5128  1.1263  0.0176
   69CHL1   H1A 7557   2.292   1.574   6.800 -0.7600  0.9414  0.1824
   69CHL1   H1B 7558   2.400   1.490   6.674 -0.2943  2.8262  0.2249
   69CHL1    C2 7559   2.194   1.517   6.618  0.4813  0.4643  0.1026
   69CHL1   H2A 7560   2.212   1.612   6.564 -1.7723  1.7251  1.4363
   69CHL1   H2B 7561   2.096   1.530   6.670  0.3419 -0.2054  0.0275
   69CHL1   C20 7562   2.704   1.275   7.372 -0.0927  0.2536 -0.2982
   69CHL1   H20 7563   2.615   1.335   7.402 -2.2635 -1.8575 -2.0249
   69CHL1   C21 7564   2.830   1.365   7.371  0.4162 -0.3236  0.7652
   69CHL1  H21A 7565   2.830   1.415   7.470  1.3177 -0.9583  1.1001
   69CHL1  H21B 7566   2.820   1.437   7.287 -1.5981 -0.4055  0.8781
   69CHL1  H21C 7567   2.926   1.312   7.352  1.4322  2.1958 -2.0344
   69CHL1   C22 7568   2.716   1.168   7.481 -0.3138  0.3230  0.3037
   69CHL1  H22A 7569   2.628   1.100   7.467  0.9231 -0.9973 -1.6216
   69CHL1  H22B 7570   2.816   1.123   7.461 -0.2301  0.9530 -0.7679
   69CHL1   C23 7571   2.698   1.228   7.622 -0.2438 -0.1433  0.6928
   69CHL1  H23A 7572   2.768   1.311   7.646 -1.8214  1.0936  1.1784
   69CHL1  H23B 7573   2.592   1.261   7.622 -0.5004 -0.8102 -1.6496
   69CHL1   C24 7574   2.714   1.115   7.728  0.0912 -0.0397 -0.4904
   69CHL1  H24A 7575   2.666   1.023   7.688 -1.6940  1.0126 -0.8830
   69CHL1  H24B 7576   2.824   1.098   7.734  0.0023 -0.8166 -1.0036
   69CHL1   C25 7577   2.659   1.151   7.867 -0.3356 -0.0822 -0.0779
   69CHL1   H25 7578   2.696   1.248   7.907 -0.5026 -0.6006  1.3917
   69CHL1   C26 7579   2.502   1.152   7.875 -0.0492  0.3767 -0.5758
   69CHL1  H26A 7580   2.452   1.246   7.846  1.5689  1.1566 -0.9655
   69CHL1  H26B 7581   2.463   1.066   7.816 -0.5121  1.2058 -1.5076
   69CHL1  H26C 7582   2.472   1.128   7.980 -1.2999 -2.3943 -1.4606
   69CHL1   C27 7583   2.717   1.042   7.958  0.9749  0.6157  0.3608
   69CHL1  H27A 7584   2.678   0.940   7.936  0.1991  1.2982 -1.6785
   69CHL1  H27B 7585   2.829   1.043   7.956  1.0149  1.3215 -2.9002
   69CHL1  H27C 7586   2.683   1.062   8.062  0.8225 -0.2624  0.4845
   70CHL1    C3 7587   4.951   4.505   7.003 -0.1955 -0.1542 -0.7827
   70CHL1    H3 7588   4.890   4.596   6.984 -0.4005  0.1285  1.0605
   70CHL1    O3 7589   5.007   4.464   6.879 -0.2117  0.1342  0.1137
   70CHL1   H3' 7590   5.065   4.389   6.895 -1.1391 -0.4033  1.1427
   70CHL1    C4 7591   5.060   4.542   7.110 -0.3482 -0.1158 -0.3606
   70CHL1   H4A 7592   5.130   4.460   7.135 -0.5347  0.4734  2.3922
   70CHL1   H4B 7593   5.120   4.621   7.062  2.6795 -0.2252  2.8648
   70CHL1    C5 7594   4.993   4.593   7.232 -0.2657 -0.1575 -0.3584
   70CHL1    C6 7595   5.016   4.714   7.287  0.8962  0.3189  1.3623
   70CHL1    H6 7596   5.080   4.788   7.237  0.4367 -0.1881 -0.0320
   70CHL1    C7 7597   4.947   4.768   7.410 -0.0542 -0.4782  0.0023
   70CHL1   H7A 7598   5.030   4.811   7.470 -1.2974  0.6930  0.9373
   70CHL1   H7B 7599   4.863   4.838   7.391 -2.1131 -2.6182  0.5890
   70CHL1    C8 7600   4.887   4.652   7.494 -0.4147  0.3316  0.3078
   70CHL1    H8 7601   4.982   4.606   7.531 -0.5953  0.9556  1.5933
   70CHL1   C14 7602   4.805   4.708   7.606 -0.2637 -0.3838  0.5588
   70CHL1   H14 7603   4.714   4.752   7.560  0.9449  0.3109 -1.2476
   70CHL1   C15 7604   4.867   4.819   7.691  0.0930  0.2096 -0.0361
   70CHL1  H15A 7605   4.975   4.798   7.701 -0.1407 -0.5272  1.0335
   70CHL1  H15B 7606   4.860   4.921   7.647  0.5170  0.4416  0.4340
   70CHL1   C16 7607   4.799   4.811   7.832 -0.5356 -0.4329 -0.3386
   70CHL1  H16A 7608   4.881   4.794   7.905 -0.1431  2.3521 -0.0209
   70CHL1  H16B 7609   4.746   4.906   7.854  1.1893  0.2493  1.0976
   70CHL1   C17 7610   4.691   4.687   7.819 -0.2121 -0.9062 -0.8345
   70CHL1   H17 7611   4.593   4.726   7.783 -0.0236 -1.2998 -1.7914
   70CHL1   C13 7612   4.751   4.609   7.707 -0.4072 -0.2871  0.7455
   70CHL1   C18 7613   4.873   4.536   7.769 -0.7233  0.4175  0.1014
   70CHL1  H18A 7614   4.926   4.483   7.688  1.4165  2.9111 -0.2341
   70CHL1  H18B 7615   4.952   4.604   7.806  0.6676  1.4643 -4.1911
   70CHL1  H18C 7616   4.843   4.455   7.839 -0.9216 -2.2757 -2.8984
   70CHL1   C12 7617   4.657   4.514   7.624  0.2154 -0.2601  1.2179
   70CHL1  H12A 7618   4.617   4.434   7.689 -2.4002 -0.7548 -0.8472
   70CHL1  H12B 7619   4.576   4.581   7.589  0.6475  1.1796  2.7860
   70CHL1   C11 7620   4.726   4.456   7.503 -0.8812  0.2430  0.4902
   70CHL1  H11A 7621   4.799   4.382   7.541 -0.1593  0.8158  0.2398
   70CHL1  H11B 7622   4.646   4.403   7.447 -1.5105  0.7708  0.8759
   70CHL1    C9 7623   4.801   4.551   7.407 -0.1222  0.4221 -0.7445
   70CHL1    H9 7624   4.735   4.622   7.351  0.7243  1.4500 -0.4760
   70CHL1   C10 7625   4.892   4.491   7.295 -0.2112 -0.0929 -0.5236
   70CHL1   C19 7626   4.977   4.376   7.368 -0.5459  0.5488  0.7246
   70CHL1  H19A 7627   5.042   4.429   7.441  0.9133  1.0405 -0.8584
   70CHL1  H19B 7628   4.912   4.293   7.403  0.3982 -1.5416 -2.0754
   70CHL1  H19C 7629   5.043   4.326   7.293 -1.3643 -1.6788  1.3986
   70CHL1    C1 7630   4.793   4.437   7.193 -0.1795  0.1302  0.4777
   70CHL1   H1A 7631   4.732   4.349   7.218  0.3782  0.0772  1.7379
   70CHL1   H1B 7632   4.726   4.517   7.156  0.0683  0.0044 -0.2671
   70CHL1    C2 7633   4.862   4.396   7.062 -0.0442  0.5949 -0.1136
   70CHL1   H2A 7634   4.771   4.379   7.001 -0.5616 -2.3946  1.2705
   70CHL1   H2B 7635   4.916   4.299   7.073 -1.8998 -0.2624  2.8696
   70CHL1   C20 7636   4.654   4.624   7.959 -0.4577  0.1541 -0.0512
   70CHL1   H20 7637   4.750   4.591   8.005 -0.2035  1.5183  0.4603
   70CHL1   C21 7638   4.559   4.502   7.950  0.3060 -0.5059 -0.3152
   70CHL1  H21A 7639   4.531   4.461   8.050 -3.1510 -0.4372 -1.1212
   70CHL1  H21B 7640   4.601   4.415   7.896  0.1410 -0.1197 -1.0804
   70CHL1  H21C 7641   4.465   4.521   7.894  0.2027 -0.3063 -0.0802
   70CHL1   C22 7642   4.575   4.724   8.047 -0.0488  0.1413 -0.2868
   70CHL1  H22A 7643   4.602   4.829   8.027  0.6633  0.0039 -0.0779
   70CHL1  H22B 7644   4.467   4.716   8.023  0.3199  0.1960 -2.0582
   70CHL1   C23 7645   4.592   4.694   8.199  0.4018  0.7303  0.0551
   70CHL1  H23A 7646   4.578   4.585   8.218  0.7854  0.8166  0.8479
   70CHL1  H23B 7647   4.693   4.727   8.230  0.7140 -0.0836 -0.0627
   70CHL1   C24 7648   4.491   4.779   8.282 -0.5404  0.0059 -0.5279
   70CHL1  H24A 7649   4.487   4.883   8.244  0.7350  1.0118  1.8562
   70CHL1  H24B 7650   4.390   4.735   8.272 -2.2636  3.2509  0.9548
   70CHL1   C25 7651   4.510   4.773   8.434  0.1269 -0.3137  0.0766
   70CHL1   H25 7652   4.612   4.811   8.457 -0.1700  0.2748  0.4482
   70CHL1   C26 7653   4.407   4.867   8.505  0.1606 -0.4037  1.1543
   70CHL1  H26A 7654   4.443   4.879   8.609 -2.2206 -0.3582  2.0159
   70CHL1  H26B 7655   4.409   4.968   8.460  0.1602 -1.6846 -2.0191
   70CHL1  H26C 7656   4.300   4.839   8.493  0.1884 -0.3825  0.8356
   70CHL1   C27 7657   4.482   4.635   8.493  0.0084 -0.0687 -0.6291
   70CHL1  H27A 7658   4.377   4.609   8.466 -0.0429  0.4511 -0.9334
   70CHL1  H27B 7659   4.549   4.555   8.455  0.6451 -0.8872  2.0317
   70CHL1  H27C 7660   4.492   4.641   8.603 -0.2015  2.0330 -0.6889
   71CHL1    C3 7661   0.114   4.262   6.812 -0.2857  0.1120  0.0076
   71CHL1    H3 7662   0.081   4.158   6.831  1.6107 -0.5212 -0.0473
   71CHL1    O3 7663   0.136   4.279   6.675 -0.1081 -0.4211  0.0104
   71CHL1   H3' 7664   0.122   4.373   6.658 -0.4890 -0.2081  1.3806
   71CHL1    C4 7665   0.018   4.367   6.861 -0.3957 -0.0089 -0.0871
   71CHL1   H4A 7666   0.063   4.468   6.853 -0.7130  0.1322 -0.0934
   71CHL1   H4B 7667  -0.077   4.362   6.805 -0.6708  1.7893  0.1646
   71CHL1    C5 7668  -0.010   4.331   7.009 -0.7489 -0.8785 -0.4775
   71CHL1    C6 7669  -0.128   4.295   7.047 -0.4837  0.1179 -0.2906
   71CHL1    H6 7670  -0.211   4.302   6.976 -2.0399 -0.9801  1.3137
   71CHL1    C7 7671  -0.150   4.254   7.190  0.1476 -0.0420  0.4914
   71CHL1   H7A 7672  -0.242   4.309   7.219 -0.3651 -0.6950  0.1113
   71CHL1   H7B 7673  -0.178   4.147   7.200  1.6881 -0.6950 -1.5365
   71CHL1    C8 7674  -0.039   4.290   7.289  0.5760 -0.0612  0.2498
   71CHL1    H8 7675  -0.045   4.397   7.318 -0.2002 -0.5312  2.0092
   71CHL1   C14 7676  -0.063   4.220   7.430 -0.1361 -0.7083  0.0597
   71CHL1   H14 7677  -0.053   4.111   7.414 -0.5758 -0.7107 -0.2372
   71CHL1   C15 7678  -0.194   4.238   7.500 -0.0765 -0.0877 -0.1741
   71CHL1  H15A 7679  -0.217   4.347   7.501 -0.3519 -0.1438 -0.3079
   71CHL1  H15B 7680  -0.279   4.187   7.451  0.8046  0.2014 -2.0759
   71CHL1   C16 7681  -0.161   4.201   7.649  0.6026  0.3778  0.1396
   71CHL1  H16A 7682  -0.186   4.291   7.710  2.4372  2.2137 -1.6408
   71CHL1  H16B 7683  -0.225   4.120   7.690 -0.3391  0.5042 -1.0377
   71CHL1   C17 7684  -0.005   4.187   7.664  0.0267 -0.1425  0.4364
   71CHL1   H17 7685   0.021   4.081   7.642  1.6258  0.3768 -0.3108
   71CHL1   C13 7686   0.051   4.251   7.534  0.0941 -0.4736  0.0780
   71CHL1   C18 7687   0.073   4.402   7.558 -0.1084  0.1825  0.2946
   71CHL1  H18A 7688  -0.021   4.455   7.582 -1.3484 -0.9021 -1.8443
   71CHL1  H18B 7689   0.152   4.415   7.635 -0.9796  2.3085  0.8685
   71CHL1  H18C 7690   0.112   4.456   7.469 -0.0901  0.5473  0.5250
   71CHL1   C12 7691   0.177   4.199   7.481  0.1267  0.7461  0.2245
   71CHL1  H12A 7692   0.268   4.217   7.543 -0.5051  1.6744  0.9004
   71CHL1  H12B 7693   0.166   4.090   7.464 -1.1984  1.0465 -1.0148
   71CHL1   C11 7694   0.207   4.253   7.333 -0.4092  0.2962 -0.1015
   71CHL1  H11A 7695   0.235   4.358   7.357  0.9511  0.3010 -1.5139
   71CHL1  H11B 7696   0.300   4.212   7.287  1.0029  1.9386  1.1934
   71CHL1    C9 7697   0.092   4.247   7.232  0.2661  0.0601  0.0630
   71CHL1    H9 7698   0.081   4.138   7.214  0.3804  0.1468 -0.5693
   71CHL1   C10 7699   0.122   4.319   7.090  0.5561  0.1188  0.3936
   71CHL1   C19 7700   0.162   4.468   7.116  0.2047 -0.0211  0.4785
   71CHL1  H19A 7701   0.084   4.503   7.186  0.3465  2.0437 -0.3373
   71CHL1  H19B 7702   0.259   4.473   7.170  1.0376  0.0722 -0.9804
   71CHL1  H19C 7703   0.158   4.541   7.033 -0.3299  1.3899  1.7133
   71CHL1    C1 7704   0.241   4.242   7.028 -0.4507  0.6887 -1.0299
   71CHL1   H1A 7705   0.333   4.265   7.086 -0.6481 -0.9435 -0.0405
   71CHL1   H1B 7706   0.229   4.132   7.036  0.7551  0.6932  2.5496
   71CHL1    C2 7707   0.256   4.270   6.876  0.1873 -0.6185 -0.1944
   71CHL1   H2A 7708   0.321   4.194   6.829 -0.3882 -1.3188  0.1302
   71CHL1   H2B 7709   0.302   4.372   6.876  0.6586 -0.8278 -0.1460
   71CHL1   C20 7710   0.053   4.225   7.808  0.4871  0.3730  0.1130
   71CHL1   H20 7711   0.037   4.334   7.822  1.0220  0.3925  0.5783
   71CHL1   C21 7712   0.201   4.206   7.812 -0.8247  0.2261 -0.7380
   71CHL1  H21A 7713   0.258   4.275   7.746 -0.2019 -2.4836 -3.2504
   71CHL1  H21B 7714   0.224   4.100   7.788  2.3407  0.5745  0.2557
   71CHL1  H21C 7715   0.242   4.232   7.913  3.5385 -2.2456 -1.6143
   71CHL1   C22 7716  -0.016   4.135   7.919 -0.3927  0.2759  0.5053
   71CHL1  H22A 7717  -0.120   4.117   7.885  0.4915 -0.1475 -2.2417
   71CHL1  H22B 7718   0.033   4.036   7.919  0.7635  0.8216  0.1912
   71CHL1   C23 7719  -0.021   4.201   8.058  0.2416 -0.7885 -0.0479
   71CHL1  H23A 7720   0.080   4.239   8.083  0.3224 -1.5957  0.9127
   71CHL1  H23B 7721  -0.086   4.290   8.049  0.2811 -0.7702 -0.1616
   71CHL1   C24 7722  -0.061   4.104   8.166  0.7074 -0.6878  0.1214
   71CHL1  H24A 7723  -0.102   4.167   8.248  0.5540  0.7120 -0.9755
   71CHL1  H24B 7724  -0.130   4.025   8.130  0.2464 -1.9913  3.5473
   71CHL1   C25 7725   0.054   4.021   8.235  0.1524  0.0098  0.2885
   71CHL1   H25 7726   0.087   3.944   8.162  1.6176  1.2054 -0.3565
   71CHL1   C26 7727   0.165   4.107   8.289  0.6036 -0.5057  0.1621
   71CHL1  H26A 7728   0.132   4.203   8.335  0.9843 -0.2481 -0.0941
   71CHL1  H26B 7729   0.230   4.045   8.355 -0.0562 -1.9115 -0.4641
   71CHL1  H26C 7730   0.231   4.139   8.205  1.6607 -1.8070  0.4542
   71CHL1   C27 7731  -0.011   3.947   8.363 -0.1010 -0.4787  0.7044
   71CHL1  H27A 7732  -0.101   3.896   8.322 -0.0802 -1.3904  1.7457
   71CHL1  H27B 7733   0.056   3.871   8.409  2.0536 -0.2394 -1.7722
   71CHL1  H27C 7734  -0.042   4.018   8.442 -1.3019 -2.1793  1.8347
   72CHL1    C3 7735   1.380   6.493   6.898 -0.1859  0.4330  0.8434
   72CHL1    H3 7736   1.468   6.556   6.923 -0.9912  1.8801  0.2155
   72CHL1    O3 7737   1.348   6.495   6.760 -0.5002  0.0389 -0.5671
   72CHL1   H3' 7738   1.262   6.539   6.759  0.4160  1.9556 -0.9282
   72CHL1    C4 7739   1.421   6.348   6.931 -0.3816  0.2635 -0.7896
   72CHL1   H4A 7740   1.332   6.283   6.917 -0.6418  0.5330 -0.3932
   72CHL1   H4B 7741   1.502   6.318   6.861 -0.6285  1.4706 -1.6338
   72CHL1    C5 7742   1.459   6.342   7.078 -0.1023 -0.3839 -0.1723
   72CHL1    C6 7743   1.572   6.276   7.118 -0.0560 -0.7767 -0.3518
   72CHL1    H6 7744   1.642   6.235   7.043  0.6737  1.8964 -1.2244
   72CHL1    C7 7745   1.606   6.259   7.265 -0.2170 -0.2508 -0.1953
   72CHL1   H7A 7746   1.651   6.160   7.287 -0.6951 -0.5443 -0.5202
   72CHL1   H7B 7747   1.688   6.332   7.280 -0.2485  0.1964 -1.9737
   72CHL1    C8 7748   1.492   6.284   7.367 -0.7226 -0.8371 -0.2720
   72CHL1    H8 7749   1.433   6.190   7.356 -0.8716 -1.3297  3.4443
   72CHL1   C14 7750   1.538   6.286   7.510  0.1110 -0.0321  0.4046
   72CHL1   H14 7751   1.597   6.379   7.524  0.2057  0.3107 -1.8667
   72CHL1   C15 7752   1.619   6.172   7.557 -0.1720  1.0306  0.5335
   72CHL1  H15A 7753   1.596   6.072   7.514 -0.7960  0.6104  1.8018
   72CHL1  H15B 7754   1.728   6.175   7.533 -0.2155  1.3654  0.3745
   72CHL1   C16 7755   1.602   6.163   7.710  0.1681 -0.0145 -0.4982
   72CHL1  H16A 7756   1.558   6.063   7.731 -1.5671  0.3571 -2.0884
   72CHL1  H16B 7757   1.704   6.170   7.755  0.4524  1.8769 -1.3475
   72CHL1   C17 7758   1.509   6.280   7.748 -0.2756 -0.1771 -0.3331
   72CHL1   H17 7759   1.566   6.374   7.766 -1.8118  0.9586 -1.2553
   72CHL1   C13 7760   1.427   6.304   7.620 -0.0641 -0.0806  0.2583
   72CHL1   C18 7761   1.322   6.193   7.618  0.4712  0.0817  0.0590
   72CHL1  H18A 7762   1.265   6.188   7.522 -0.1038  1.2582  0.3221
   72CHL1  H18B 7763   1.362   6.091   7.635  1.0524  0.3012  0.0043
   72CHL1  H18C 7764   1.244   6.206   7.696 -1.1482 -1.6332 -1.1547
   72CHL1   C12 7765   1.360   6.435   7.587  0.2007 -0.3174  0.0948
   72CHL1  H12A 7766   1.271   6.446   7.653 -0.5605  0.4148 -1.0191
   72CHL1  H12B 7767   1.431   6.518   7.609  0.3348 -0.0019 -1.4000
   72CHL1   C11 7768   1.312   6.443   7.436  0.6832 -0.2962  0.0349
   72CHL1  H11A 7769   1.216   6.388   7.428  1.0588 -0.8823 -0.4903
   72CHL1  H11B 7770   1.285   6.549   7.420 -0.0079 -0.1011  2.1180
   72CHL1    C9 7771   1.415   6.412   7.329 -0.0911  0.7819  0.6173
   72CHL1    H9 7772   1.486   6.498   7.331 -1.4334  2.0080 -1.4578
   72CHL1   C10 7773   1.362   6.406   7.177  0.1412 -0.3678  0.2585
   72CHL1   C19 7774   1.234   6.325   7.179  0.5592  0.3795  0.3780
   72CHL1  H19A 7775   1.203   6.297   7.075  2.0609  0.9756 -0.2520
   72CHL1  H19B 7776   1.251   6.242   7.252  0.9791  1.4763  1.5562
   72CHL1  H19C 7777   1.144   6.380   7.215  0.4381 -0.3475  1.2258
   72CHL1    C1 7778   1.321   6.550   7.133  0.9295 -0.0040  0.8777
   72CHL1   H1A 7779   1.236   6.590   7.192  0.9779  0.0374  0.9191
   72CHL1   H1B 7780   1.406   6.621   7.147 -1.4439  2.6889  2.7428
   72CHL1    C2 7781   1.269   6.543   6.986  0.2689  0.3387 -0.6118
   72CHL1   H2A 7782   1.237   6.647   6.965  1.0219  0.1728 -2.8231
   72CHL1   H2B 7783   1.177   6.481   6.977  0.2617  0.4195 -1.1106
   72CHL1   C20 7784   1.433   6.252   7.887  0.5030 -0.2871  0.1709
   72CHL1   H20 7785   1.372   6.159   7.881  0.1909 -0.0818  0.0690
   72CHL1   C21 7786   1.336   6.368   7.926 -1.1189  0.2818  0.1419
   72CHL1  H21A 7787   1.239   6.364   7.872 -1.1525 -2.0991  0.2548
   72CHL1  H21B 7788   1.384   6.468   7.923 -0.9852  0.3679  2.9877
   72CHL1  H21C 7789   1.303   6.344   8.029  0.0115  0.3827  0.5440
   72CHL1   C22 7790   1.535   6.223   7.998 -0.0829  0.0832  0.5110
   72CHL1  H22A 7791   1.632   6.181   7.963  0.5738 -0.4841  2.7713
   72CHL1  H22B 7792   1.562   6.320   8.046 -0.5182  0.9320 -0.9016
   72CHL1   C23 7793   1.488   6.124   8.102 -0.3059  0.1392 -0.1472
   72CHL1  H23A 7794   1.381   6.143   8.125 -0.7040 -1.0732 -0.8800
   72CHL1  H23B 7795   1.484   6.030   8.043 -0.8268  0.9543 -1.4391
   72CHL1   C24 7796   1.578   6.124   8.222  0.1349 -0.0626 -1.1605
   72CHL1  H24A 7797   1.685   6.102   8.202  0.2795 -2.0205  1.2875
   72CHL1  H24B 7798   1.584   6.227   8.263  1.6042 -0.0101 -1.4685
   72CHL1   C25 7799   1.525   6.040   8.343 -0.1468 -0.1200 -0.1532
   72CHL1   H25 7800   1.520   5.932   8.319  1.0736 -0.1354 -0.4248
   72CHL1   C26 7801   1.617   6.047   8.465 -0.1102  1.0000  0.0490
   72CHL1  H26A 7802   1.568   5.995   8.550  0.6866  0.7481  0.3674
   72CHL1  H26B 7803   1.715   6.005   8.432 -0.7335  0.8946 -1.7745
   72CHL1  H26C 7804   1.626   6.148   8.509  0.5399 -0.1270  2.7534
   72CHL1   C27 7805   1.391   6.094   8.391 -0.1598  0.3691 -0.3763
   72CHL1  H27A 7806   1.319   6.080   8.307  0.2926  0.0771 -0.7261
   72CHL1  H27B 7807   1.356   6.046   8.485  4.7858 -0.6208  1.2417
   72CHL1  H27C 7808   1.401   6.203   8.407  2.8816  0.1579 -0.1999
   73CHL1    C3 7809   0.116   1.884   6.807 -0.4982 -0.5418 -0.4388
   73CHL1    H3 7810   0.058   1.790   6.820 -0.2600 -0.5796  0.4670
   73CHL1    O3 7811   0.086   1.948   6.683 -0.1814  0.2521  0.5905
   73CHL1   H3' 7812   0.149   2.021   6.682  0.5748 -0.3681  1.3129
   73CHL1    C4 7813   0.054   1.975   6.918 -0.3487  0.5910 -0.1075
   73CHL1   H4A 7814   0.099   2.076   6.901 -1.6855  1.3988  0.9266
   73CHL1   H4B 7815  -0.056   1.980   6.901 -0.3377  1.8789  0.0571
   73CHL1    C5 7816   0.084   1.918   7.058 -0.1497  0.8561  0.0327
   73CHL1    C6 7817  -0.010   1.906   7.148 -0.5340 -0.1707 -0.5261
   73CHL1    H6 7818  -0.109   1.946   7.123 -0.0225  0.9758 -0.8154
   73CHL1    C7 7819   0.017   1.839   7.288 -0.6074 -0.3282 -0.2422
   73CHL1   H7A 7820  -0.031   1.900   7.367  1.4530  1.8199 -0.5576
   73CHL1   H7B 7821  -0.015   1.732   7.288 -2.0246  0.0746 -0.7733
   73CHL1    C8 7822   0.166   1.836   7.325 -0.0899  0.3908 -0.0729
   73CHL1    H8 7823   0.199   1.940   7.348 -2.6635  1.2223  0.1147
   73CHL1   C14 7824   0.182   1.758   7.451  0.1564  0.2039 -0.4373
   73CHL1   H14 7825   0.149   1.654   7.428  1.9425 -0.4061 -0.3814
   73CHL1   C15 7826   0.081   1.790   7.571  0.0241 -0.5468  0.1449
   73CHL1  H15A 7827   0.083   1.900   7.589  1.7927 -0.4402 -0.4972
   73CHL1  H15B 7828  -0.023   1.751   7.562 -0.3623  0.7673 -1.8449
   73CHL1   C16 7829   0.149   1.727   7.694 -0.6721 -0.9653 -0.9461
   73CHL1  H16A 7830   0.167   1.805   7.771 -0.1645 -1.0863 -0.9387
   73CHL1  H16B 7831   0.088   1.645   7.737 -0.3109 -1.1892 -0.8607
   73CHL1   C17 7832   0.279   1.668   7.641 -0.4138 -0.0607 -0.9618
   73CHL1   H17 7833   0.265   1.561   7.613 -1.0549 -0.0768 -0.6150
   73CHL1   C13 7834   0.318   1.737   7.504  0.1654 -0.3589 -0.5388
   73CHL1   C18 7835   0.387   1.878   7.535 -0.3663 -0.8194 -0.1282
   73CHL1  H18A 7836   0.311   1.934   7.594 -1.5234  0.0166 -2.2653
   73CHL1  H18B 7837   0.486   1.862   7.582 -0.1509  1.4817  0.3352
   73CHL1  H18C 7838   0.410   1.940   7.445 -1.0432  0.6202  0.6533
   73CHL1   C12 7839   0.398   1.662   7.395  0.0991 -0.0461 -0.5795
   73CHL1  H12A 7840   0.506   1.648   7.419 -0.4214 -1.3335  1.1761
   73CHL1  H12B 7841   0.356   1.560   7.392 -0.3451  0.1522 -1.6271
   73CHL1   C11 7842   0.395   1.740   7.258  0.4471 -0.6388 -0.5154
   73CHL1  H11A 7843   0.459   1.831   7.267 -0.4580 -0.1622  1.6124
   73CHL1  H11B 7844   0.446   1.676   7.183  2.2507 -2.1018  1.8143
   73CHL1    C9 7845   0.249   1.776   7.205  0.1414 -0.0577 -0.7999
   73CHL1    H9 7846   0.214   1.676   7.171  2.7789 -1.2342 -0.3115
   73CHL1   C10 7847   0.235   1.870   7.073  0.2012 -0.1208 -0.6044
   73CHL1   C19 7848   0.330   1.984   7.084  0.0352  0.5100  0.0578
   73CHL1  H19A 7849   0.434   1.966   7.050  0.4754  0.6420  1.2674
   73CHL1  H19B 7850   0.299   2.077   7.032  0.4498  0.3981 -0.3940
   73CHL1  H19C 7851   0.336   2.013   7.192  0.4677 -1.3332  0.5620
   73CHL1    C1 7852   0.281   1.782   6.951  0.3141  0.1741  0.2864
   73CHL1   H1A 7853   0.386   1.749   6.966  0.5286  0.4111 -0.6266
   73CHL1   H1B 7854   0.222   1.688   6.953  1.7311 -0.7564  1.4815
   73CHL1    C2 7855   0.260   1.854   6.816 -0.0361  0.1019 -0.7302
   73CHL1   H2A 7856   0.301   1.792   6.733  1.8833  0.5631 -0.1721
   73CHL1   H2B 7857   0.330   1.940   6.812 -2.7309  2.3929 -1.5702
   73CHL1   C20 7858   0.379   1.667   7.758  0.6692 -0.0114 -0.3898
   73CHL1   H20 7859   0.406   1.771   7.786  0.0270  0.1376 -0.3048
   73CHL1   C21 7860   0.509   1.594   7.717  0.6442 -0.0159  0.3319
   73CHL1  H21A 7861   0.491   1.485   7.705 -0.2600  0.1213  0.3736
   73CHL1  H21B 7862   0.589   1.604   7.794 -0.8327  0.8542  1.7989
   73CHL1  H21C 7863   0.551   1.625   7.619 -0.2499  0.0012 -0.0556
   73CHL1   C22 7864   0.328   1.607   7.888 -0.6444  0.3911 -0.1016
   73CHL1  H22A 7865   0.241   1.667   7.923  0.3866  1.9356 -0.0932
   73CHL1  H22B 7866   0.301   1.499   7.882  0.0226  0.2312 -0.2463
   73CHL1   C23 7867   0.427   1.620   8.005 -0.2750  0.0316 -0.1274
   73CHL1  H23A 7868   0.520   1.562   7.985  0.4361  0.8824  0.5977
   73CHL1  H23B 7869   0.470   1.722   8.008 -0.1826 -0.0047 -0.1955
   73CHL1   C24 7870   0.376   1.584   8.145 -0.4202 -0.0488 -0.0421
   73CHL1  H24A 7871   0.307   1.661   8.187 -1.5472 -1.3483  0.5825
   73CHL1  H24B 7872   0.320   1.489   8.135 -0.2135  0.0456 -2.7600
   73CHL1   C25 7873   0.501   1.582   8.243  0.4787 -0.1990 -0.2810
   73CHL1   H25 7874   0.586   1.526   8.201  0.9958  0.4391 -0.1063
   73CHL1   C26 7875   0.554   1.722   8.275 -0.3233  0.1064  0.3646
   73CHL1  H26A 7876   0.626   1.726   8.360 -0.1906 -0.7841  0.3068
   73CHL1  H26B 7877   0.600   1.765   8.183 -0.5525 -1.5031 -0.5350
   73CHL1  H26C 7878   0.468   1.784   8.308  0.8363  2.5961 -0.9675
   73CHL1   C27 7879   0.468   1.516   8.371  0.5456  0.0376 -0.4166
   73CHL1  H27A 7880   0.550   1.532   8.444 -1.2291  4.9685  0.9196
   73CHL1  H27B 7881   0.385   1.570   8.420 -1.7059 -4.2186  0.9759
   73CHL1  H27C 7882   0.438   1.409   8.374 -1.0541  0.4789  1.8615
   74CHL1    C3 7883   0.217   0.874   7.042 -0.6854  0.2433  0.1945
   74CHL1    H3 7884   0.119   0.863   7.093  0.0795 -1.1681  1.4292
   74CHL1    O3 7885   0.201   0.918   6.908 -0.5491 -0.4639  0.8629
   74CHL1   H3' 7886   0.290   0.927   6.871 -0.7899 -0.1467  0.3437
   74CHL1    C4 7887   0.310   0.978   7.106  0.0189 -0.2199 -0.0252
   74CHL1   H4A 7888   0.393   0.988   7.034 -0.9178 -0.0450 -1.1051
   74CHL1   H4B 7889   0.260   1.076   7.090  0.3933 -0.2562 -1.5269
   74CHL1    C5 7890   0.330   0.940   7.252  1.0901  0.2177  0.5020
   74CHL1    C6 7891   0.285   1.019   7.354 -0.8199 -0.6110 -0.3623
   74CHL1    H6 7892   0.243   1.116   7.324 -1.3189 -0.6832  0.0871
   74CHL1    C7 7893   0.303   0.986   7.503 -0.6779  0.9684 -0.1099
   74CHL1   H7A 7894   0.333   1.074   7.563  1.3622  0.0468  0.3355
   74CHL1   H7B 7895   0.208   0.948   7.544  0.6673 -1.8413  0.6794
   74CHL1    C8 7896   0.393   0.859   7.534  0.4054  0.5372 -0.0940
   74CHL1    H8 7897   0.499   0.893   7.533  0.3495  0.9122  2.2425
   74CHL1   C14 7898   0.364   0.798   7.672  0.4122 -0.2348  0.0020
   74CHL1   H14 7899   0.258   0.767   7.678  0.3722 -0.0910  0.0321
   74CHL1   C15 7900   0.378   0.891   7.793  0.5550 -0.1448 -0.4506
   74CHL1  H15A 7901   0.451   0.974   7.794 -2.1820  2.5002 -2.0144
   74CHL1  H15B 7902   0.280   0.944   7.798  1.3279  1.4578 -1.3781
   74CHL1   C16 7903   0.413   0.792   7.906  0.2864  0.1171 -0.5045
   74CHL1  H16A 7904   0.522   0.800   7.927  0.1207 -0.3956  0.5950
   74CHL1  H16B 7905   0.357   0.809   8.000  0.7157 -2.3205  0.2648
   74CHL1   C17 7906   0.387   0.650   7.846  0.6105  1.0795 -0.4166
   74CHL1   H17 7907   0.278   0.628   7.840  0.9031 -0.4981 -0.5634
   74CHL1   C13 7908   0.439   0.662   7.702 -0.3377  0.0497  0.4337
   74CHL1   C18 7909   0.586   0.686   7.694 -0.1083 -0.1359  0.9131
   74CHL1  H18A 7910   0.639   0.597   7.734 -0.0606 -0.3055  0.4723
   74CHL1  H18B 7911   0.633   0.706   7.596 -0.0019  0.1927  1.0286
   74CHL1  H18C 7912   0.627   0.777   7.742 -0.2938 -0.0402  0.8890
   74CHL1   C12 7913   0.381   0.562   7.607  0.0687 -0.7196  0.3849
   74CHL1  H12A 7914   0.416   0.458   7.627 -1.3586 -1.4853 -0.8331
   74CHL1  H12B 7915   0.271   0.560   7.626  0.0613  0.6187  0.5385
   74CHL1   C11 7916   0.424   0.613   7.462 -0.2669  0.4206 -0.3904
   74CHL1  H11A 7917   0.535   0.605   7.456 -0.2546  0.0559  0.2767
   74CHL1  H11B 7918   0.385   0.531   7.398  2.4283 -0.8458 -0.5262
   74CHL1    C9 7919   0.362   0.750   7.425  0.3222  0.6230  0.0303
   74CHL1    H9 7920   0.254   0.739   7.446  0.4246  1.8503  1.3960
   74CHL1   C10 7921   0.387   0.800   7.283  0.5592  0.5728  0.0167
   74CHL1   C19 7922   0.539   0.805   7.249  0.1144 -0.1319 -0.0659
   74CHL1  H19A 7923   0.580   0.705   7.276  0.5050  0.8033  3.3345
   74CHL1  H19B 7924   0.571   0.827   7.145  2.0008 -1.6261  0.1332
   74CHL1  H19C 7925   0.590   0.882   7.312  0.7210 -0.9373  0.4542
   74CHL1    C1 7926   0.312   0.704   7.187  0.1005 -0.0636  0.2292
   74CHL1   H1A 7927   0.354   0.601   7.189  1.4331  0.3872 -1.6694
   74CHL1   H1B 7928   0.207   0.696   7.224  0.5329  1.9097  2.0734
   74CHL1    C2 7929   0.294   0.744   7.042  0.1152  0.1989  0.1510
   74CHL1   H2A 7930   0.236   0.665   6.990 -0.2108  0.2326  0.4558
   74CHL1   H2B 7931   0.394   0.757   6.995 -0.3429 -0.7130 -1.1306
   74CHL1   C20 7932   0.445   0.532   7.931 -0.2476  0.3559  0.7853
   74CHL1   H20 7933   0.553   0.528   7.907 -0.2297 -0.3053  0.9333
   74CHL1   C21 7934   0.388   0.394   7.884  0.2451  0.2945 -0.3128
   74CHL1  H21A 7935   0.438   0.335   7.805 -1.7258  0.6535 -1.9067
   74CHL1  H21B 7936   0.283   0.415   7.856  0.5637  1.1650 -0.8818
   74CHL1  H21C 7937   0.410   0.330   7.972  3.0381  1.3663 -0.1299
   74CHL1   C22 7938   0.433   0.555   8.088  0.6489  0.0243  1.0572
   74CHL1  H22A 7939   0.495   0.476   8.135  3.7066  1.8666  0.4069
   74CHL1  H22B 7940   0.492   0.647   8.108  0.5974  0.0355  1.1612
   74CHL1   C23 7941   0.290   0.557   8.145  0.7265 -0.2807 -0.5902
   74CHL1  H23A 7942   0.231   0.644   8.107 -0.4013 -0.7498  0.0692
   74CHL1  H23B 7943   0.246   0.457   8.124  0.6108 -0.1455 -1.0156
   74CHL1   C24 7944   0.305   0.583   8.298 -0.5343 -0.2047  0.6938
   74CHL1  H24A 7945   0.378   0.508   8.335  0.3304 -1.7551 -3.5805
   74CHL1  H24B 7946   0.349   0.684   8.312 -0.1453  0.0402 -1.8573
   74CHL1   C25 7947   0.170   0.576   8.378  0.2746  0.5935  0.3387
   74CHL1   H25 7948   0.104   0.631   8.307 -1.3563 -2.9211 -1.1281
   74CHL1   C26 7949   0.110   0.430   8.391  0.3708  0.2072  0.1899
   74CHL1  H26A 7950   0.150   0.378   8.481  1.6637  3.0584  1.4051
   74CHL1  H26B 7951   0.000   0.444   8.397  0.3247 -0.1500  0.2244
   74CHL1  H26C 7952   0.139   0.379   8.297  2.3089  2.1324 -0.3330
   74CHL1   C27 7953   0.183   0.648   8.515 -0.2286  0.7456  0.1664
   74CHL1  H27A 7954   0.264   0.592   8.567 -0.0974  0.7298 -0.0504
   74CHL1  H27B 7955   0.213   0.755   8.514  0.4508  0.5710 -1.4525
   74CHL1  H27C 7956   0.091   0.652   8.576 -0.1630 -1.5032  0.4882
   75CHL1    C3 7957   0.754   2.266   6.870  0.3100 -0.2825  1.0952
   75CHL1    H3 7958   0.650   2.276   6.907 -0.5572 -2.1166 -0.6546
   75CHL1    O3 7959   0.779   2.300   6.735  0.0839  0.3802 -0.0529
   75CHL1   H3' 7960   0.872   2.323   6.734 -0.3417  2.3316  0.3726
   75CHL1    C4 7961   0.838   2.371   6.942 -0.3003 -0.5112 -0.7314
   75CHL1   H4A 7962   0.941   2.371   6.901  0.0824 -1.0608  0.1876
   75CHL1   H4B 7963   0.793   2.468   6.912 -1.3574 -1.4652 -2.3907
   75CHL1    C5 7964   0.829   2.363   7.091 -0.0483  0.4937  0.0275
   75CHL1    C6 7965   0.774   2.461   7.164 -0.3817  0.1840  0.0477
   75CHL1    H6 7966   0.742   2.552   7.112 -0.1608  0.2971  0.1109
   75CHL1    C7 7967   0.762   2.450   7.313  0.2088 -0.1252 -0.6393
   75CHL1   H7A 7968   0.816   2.537   7.355 -1.5368  0.4367  0.5129
   75CHL1   H7B 7969   0.657   2.450   7.347  0.2318  0.7502 -0.5508
   75CHL1    C8 7970   0.821   2.322   7.377 -0.0573 -0.1944  0.0915
   75CHL1    H8 7971   0.931   2.334   7.388 -0.3882  1.1443  2.7697
   75CHL1   C14 7972   0.762   2.297   7.521 -1.0369 -0.1746  0.5669
   75CHL1   H14 7973   0.654   2.284   7.502 -0.7584  0.2334 -1.5032
   75CHL1   C15 7974   0.770   2.406   7.626 -0.2997 -0.2654  0.6651
   75CHL1  H15A 7975   0.867   2.459   7.615  0.9858 -2.6737 -0.3342
   75CHL1  H15B 7976   0.693   2.486   7.613 -0.2436 -0.0497  1.5906
   75CHL1   C16 7977   0.750   2.334   7.754  0.5620  0.1764  0.0792
   75CHL1  H16A 7978   0.837   2.341   7.823  3.3041 -1.2464 -2.9037
   75CHL1  H16B 7979   0.656   2.366   7.802  0.1034 -0.3688 -0.4415
   75CHL1   C17 7980   0.732   2.182   7.725  0.5218 -0.1913 -0.3624
   75CHL1   H17 7981   0.628   2.165   7.690  0.4979  1.8129 -1.3787
   75CHL1   C13 7982   0.806   2.164   7.588 -0.2046 -0.1293  0.1307
   75CHL1   C18 7983   0.963   2.164   7.611 -0.1424 -0.4019  0.4881
   75CHL1  H18A 7984   1.018   2.170   7.515 -1.7150 -0.4352 -0.4618
   75CHL1  H18B 7985   0.994   2.244   7.681  0.7834 -1.7617  1.6824
   75CHL1  H18C 7986   0.997   2.067   7.651  2.5218  1.6408  3.6840
   75CHL1   C12 7987   0.769   2.050   7.500  0.5155  0.7232  0.1681
   75CHL1  H12A 7988   0.805   1.952   7.538  0.7921  0.2444 -1.2774
   75CHL1  H12B 7989   0.660   2.033   7.483  1.0192 -0.5906 -2.2384
   75CHL1   C11 7990   0.833   2.066   7.359 -0.0153  0.0927  0.3114
   75CHL1  H11A 7991   0.943   2.049   7.369  0.0918  0.8031  0.4319
   75CHL1  H11B 7992   0.783   1.991   7.294  1.1659  0.6331 -1.2920
   75CHL1    C9 7993   0.797   2.196   7.288 -0.2549 -0.1168 -0.0712
   75CHL1    H9 7994   0.686   2.189   7.277 -0.5227  0.8028  1.5558
   75CHL1   C10 7995   0.854   2.214   7.148 -0.6284  0.1890  0.3800
   75CHL1   C19 7996   1.000   2.198   7.145 -0.0578 -0.4968 -0.0907
   75CHL1  H19A 7997   1.045   2.225   7.048  1.8335 -1.9164  0.3264
   75CHL1  H19B 7998   1.049   2.261   7.223 -1.8117  3.0227 -1.5992
   75CHL1  H19C 7999   1.027   2.091   7.145 -1.3878 -0.9278 -2.9214
   75CHL1    C1 8000   0.796   2.106   7.061  0.0305 -0.2524  0.1831
   75CHL1   H1A 8001   0.849   2.010   7.077 -0.8091 -0.6508  0.6734
   75CHL1   H1B 8002   0.688   2.089   7.080  0.4193 -1.8501  1.1538
   75CHL1    C2 8003   0.813   2.140   6.908  0.4423  0.1114  0.3333
   75CHL1   H2A 8004   0.768   2.062   6.844 -0.2117  0.2890  0.5731
   75CHL1   H2B 8005   0.919   2.139   6.875 -0.0744 -0.8712 -1.4097
   75CHL1   C20 8006   0.766   2.076   7.831  0.0894  0.2445 -0.3522
   75CHL1   H20 8007   0.876   2.081   7.841 -0.0480 -0.0299  1.6637
   75CHL1   C21 8008   0.730   1.925   7.804 -1.2544 -1.0424 -0.2689
   75CHL1  H21A 8009   0.783   1.896   7.711 -0.5598  1.3389 -0.6842
   75CHL1  H21B 8010   0.624   1.891   7.805 -1.7166  0.3564  0.1215
   75CHL1  H21C 8011   0.780   1.870   7.887  1.0902 -1.5772 -1.9329
   75CHL1   C22 8012   0.706   2.108   7.971  0.7682 -0.1476 -1.1774
   75CHL1  H22A 8013   0.722   2.215   7.994 -1.2095  0.4942 -2.5972
   75CHL1  H22B 8014   0.596   2.095   7.964  0.7842 -1.6169  0.4915
   75CHL1   C23 8015   0.753   2.024   8.096  0.1428  0.2190  0.9151
   75CHL1  H23A 8016   0.707   2.070   8.185  0.6501  0.4747  1.0508
   75CHL1  H23B 8017   0.713   1.920   8.090  1.2359 -0.1982  0.4889
   75CHL1   C24 8018   0.900   2.025   8.127  0.3259  0.3565 -0.1557
   75CHL1  H24A 8019   0.960   2.000   8.037  0.1503  1.4274 -0.5846
   75CHL1  H24B 8020   0.929   2.130   8.150 -2.0305  1.0171  0.1018
   75CHL1   C25 8021   0.951   1.943   8.247  0.0095  0.6409 -0.4043
   75CHL1   H25 8022   0.925   1.839   8.220 -1.6304  0.6643  0.9519
   75CHL1   C26 8023   1.106   1.962   8.252 -0.4821  0.2638 -0.3284
   75CHL1  H26A 8024   1.146   1.931   8.152  2.2757 -0.3369  0.8530
   75CHL1  H26B 8025   1.117   2.070   8.275 -2.2616  0.5908 -0.9135
   75CHL1  H26C 8026   1.154   1.885   8.317 -0.7870  1.8010  1.7882
   75CHL1   C27 8027   0.880   1.978   8.377 -0.8680 -0.6273  0.5294
   75CHL1  H27A 8028   0.922   1.907   8.451 -0.7804 -2.0466 -0.8102
   75CHL1  H27B 8029   0.915   2.079   8.406  0.3046  0.4268 -3.7771
   75CHL1  H27C 8030   0.771   1.969   8.358 -0.6028  0.8400 -2.1207
   76CHL1    C3 8031   6.824   5.103   7.262 -0.0967  0.4498  0.2196
   76CHL1    H3 8032   6.819   4.993   7.277 -1.1760  0.5839  0.9234
   76CHL1    O3 8033   6.839   5.122   7.127 -0.0100  0.1981 -0.7163
   76CHL1   H3' 8034   6.927   5.161   7.125 -0.0758  0.4180 -3.5265
   76CHL1    C4 8035   6.700   5.171   7.317  0.1024 -0.3886  0.2881
   76CHL1   H4A 8036   6.693   5.276   7.283 -1.5468 -0.7084 -0.4289
   76CHL1   H4B 8037   6.614   5.121   7.269 -0.0900  0.5178 -0.3335
   76CHL1    C5 8038   6.677   5.167   7.465  0.2751  0.0737  0.7532
   76CHL1    C6 8039   6.572   5.116   7.519 -0.7540  1.0634 -0.0549
   76CHL1    H6 8040   6.482   5.100   7.458  0.8038 -0.7690 -2.0261
   76CHL1    C7 8041   6.555   5.112   7.664  0.0900  0.4273  0.4348
   76CHL1   H7A 8042   6.454   5.153   7.684  0.0681  1.1790 -1.0786
   76CHL1   H7B 8043   6.556   5.005   7.693  3.5016 -0.5623 -2.5891
   76CHL1    C8 8044   6.649   5.191   7.749 -0.6926 -0.1982  0.2967
   76CHL1    H8 8045   6.626   5.300   7.753  2.0095  0.4806 -0.5444
   76CHL1   C14 8046   6.646   5.143   7.892 -0.4165  0.5734  0.0166
   76CHL1   H14 8047   6.663   5.034   7.893  0.9330  0.7691  0.4131
   76CHL1   C15 8048   6.520   5.158   7.967  0.0290 -0.0935 -0.1081
   76CHL1  H15A 8049   6.485   5.263   7.962 -0.3216 -0.1320  1.1232
   76CHL1  H15B 8050   6.437   5.089   7.941 -0.1128 -0.2473  0.7279
   76CHL1   C16 8051   6.567   5.130   8.112  0.0150 -0.2039  0.1514
   76CHL1  H16A 8052   6.537   5.215   8.176  0.3226  0.6303 -0.7832
   76CHL1  H16B 8053   6.524   5.033   8.145 -0.6927 -0.6494 -1.8953
   76CHL1   C17 8054   6.718   5.116   8.110  0.1681  0.3441 -0.0311
   76CHL1   H17 8055   6.736   5.008   8.091  1.1246  0.4691  0.0730
   76CHL1   C13 8056   6.763   5.194   7.988  0.9262 -0.1775  0.2903
   76CHL1   C18 8057   6.747   5.345   8.001 -0.1140 -0.5605 -0.2715
   76CHL1  H18A 8058   6.834   5.404   8.036 -0.4915  0.4232 -0.9244
   76CHL1  H18B 8059   6.717   5.382   7.900 -0.5380 -0.1176  0.0183
   76CHL1  H18C 8060   6.662   5.362   8.070  0.7462 -0.8306  0.8872
   76CHL1   C12 8061   6.896   5.160   7.925  0.3254 -0.2989  0.3981
   76CHL1  H12A 8062   6.983   5.210   7.973 -0.2032 -0.3444  1.4314
   76CHL1  H12B 8063   6.910   5.050   7.920 -0.7953 -0.4420  0.2240
   76CHL1   C11 8064   6.904   5.218   7.782 -0.2819  0.2884 -0.0449
   76CHL1  H11A 8065   6.904   5.328   7.797 -0.1526  0.1279  1.2264
   76CHL1  H11B 8066   7.006   5.188   7.752 -0.9010 -1.2607 -0.6929
   76CHL1    C9 8067   6.789   5.167   7.695 -0.1118 -0.8990 -0.0724
   76CHL1    H9 8068   6.798   5.056   7.700  2.0701 -0.7977 -0.9665
   76CHL1   C10 8069   6.800   5.204   7.552  0.4612 -0.3450  1.2400
   76CHL1   C19 8070   6.814   5.363   7.540 -0.0279  0.7666  0.5430
   76CHL1  H19A 8071   6.905   5.401   7.590 -0.5896  0.1879  2.0829
   76CHL1  H19B 8072   6.813   5.391   7.432  3.1713 -1.8558 -0.3198
   76CHL1  H19C 8073   6.731   5.412   7.595 -1.1171 -1.8464  1.4172
   76CHL1    C1 8074   6.922   5.133   7.488 -0.0542 -0.1590  0.5020
   76CHL1   H1A 8075   7.016   5.156   7.542 -1.4303 -0.7785  3.4091
   76CHL1   H1B 8076   6.914   5.022   7.496  0.7627 -0.2737 -0.2052
   76CHL1    C2 8077   6.948   5.159   7.336  0.4983  0.7955  1.0581
   76CHL1   H2A 8078   7.041   5.103   7.312  0.5164  1.0848  0.4542
   76CHL1   H2B 8079   6.976   5.262   7.307  2.0202  0.5851  1.6934
   76CHL1   C20 8080   6.792   5.160   8.245 -0.0109  0.0268 -0.3020
   76CHL1   H20 8081   6.792   5.272   8.247 -2.6335  0.0669  0.8543
   76CHL1   C21 8082   6.938   5.110   8.241 -0.3691  0.0208 -0.2974
   76CHL1  H21A 8083   6.963   5.129   8.347 -2.8361 -1.5638  0.6469
   76CHL1  H21B 8084   7.006   5.166   8.173 -1.7969  1.7400 -0.3557
   76CHL1  H21C 8085   6.938   5.000   8.224 -1.5733 -0.0439  0.0116
   76CHL1   C22 8086   6.726   5.105   8.372  0.5185  0.1792 -0.0321
   76CHL1  H22A 8087   6.777   5.150   8.460  1.2837 -1.5437  0.4502
   76CHL1  H22B 8088   6.623   5.145   8.364  0.3427 -0.4103 -0.8364
   76CHL1   C23 8089   6.726   4.951   8.398 -0.6523  0.1597  0.1809
   76CHL1  H23A 8090   6.684   4.908   8.304  2.2104  1.3189 -1.7662
   76CHL1  H23B 8091   6.832   4.918   8.403 -0.5085  0.5453 -0.2885
   76CHL1   C24 8092   6.660   4.915   8.528 -0.6778 -0.4542  0.5434
   76CHL1  H24A 8093   6.680   4.810   8.561 -2.1920 -0.9671 -0.0874
   76CHL1  H24B 8094   6.691   4.994   8.600  0.0747  1.3511 -1.6449
   76CHL1   C25 8095   6.503   4.921   8.530 -0.2020 -0.1202 -0.1348
   76CHL1   H25 8096   6.473   5.020   8.489  0.9641  1.5637  2.7334
   76CHL1   C26 8097   6.430   4.813   8.454  0.5773  0.1512 -0.1468
   76CHL1  H26A 8098   6.455   4.713   8.496 -1.1455 -0.6363 -0.9047
   76CHL1  H26B 8099   6.321   4.832   8.460  0.0001 -2.1766 -1.9616
   76CHL1  H26C 8100   6.454   4.813   8.346 -1.9321 -1.6178 -0.7767
   76CHL1   C27 8101   6.454   4.919   8.678 -0.9958 -0.1413  0.1595
   76CHL1  H27A 8102   6.490   4.821   8.715 -0.3977 -0.4757 -1.2476
   76CHL1  H27B 8103   6.495   5.002   8.740 -0.8862  0.1769 -0.3347
   76CHL1  H27C 8104   6.343   4.930   8.682 -0.9286  0.3211  1.0239
   77CHL1    C3 8105   6.664   1.628   6.918 -0.3350  0.2306  0.0030
   77CHL1    H3 8106   6.716   1.710   6.971 -0.4714  0.5708 -0.3823
   77CHL1    O3 8107   6.648   1.671   6.782 -0.3395 -0.0904 -0.1424
   77CHL1   H3' 8108   6.686   1.603   6.724  1.3195  1.1015 -0.5131
   77CHL1    C4 8109   6.750   1.495   6.923  0.6624  0.0601 -0.0993
   77CHL1   H4A 8110   6.692   1.426   6.859  2.1211  0.9844 -2.5757
   77CHL1   H4B 8111   6.844   1.518   6.869 -0.1399  0.9806 -1.1571
   77CHL1    C5 8112   6.771   1.452   7.063  0.3234  0.2869 -0.5287
   77CHL1    C6 8113   6.895   1.426   7.110  0.5957  0.0523 -0.1082
   77CHL1    H6 8114   6.980   1.449   7.043  0.9243  0.8742  0.5752
   77CHL1    C7 8115   6.929   1.383   7.247  0.2044  0.1530 -0.2941
   77CHL1   H7A 8116   6.989   1.289   7.246 -0.7732 -0.4866  0.1066
   77CHL1   H7B 8117   6.972   1.466   7.306  2.6830 -0.3687 -1.2423
   77CHL1    C8 8118   6.804   1.346   7.334  0.8450 -0.1486 -0.6121
   77CHL1    H8 8119   6.779   1.240   7.313 -0.3119  0.1362 -0.7929
   77CHL1   C14 8120   6.835   1.364   7.485  0.1450  0.3117  0.0981
   77CHL1   H14 8121   6.856   1.473   7.499  1.1140  0.6680 -3.2930
   77CHL1   C15 8122   6.956   1.287   7.539 -0.0585  0.3336  0.5104
   77CHL1  H15A 8123   6.959   1.187   7.491  2.6232  0.2207  0.7884
   77CHL1  H15B 8124   7.053   1.335   7.512 -0.2228  0.3612 -0.0442
   77CHL1   C16 8125   6.934   1.283   7.686 -0.6691 -0.4448 -0.1108
   77CHL1  H16A 8126   6.933   1.174   7.706  1.6386 -1.1928 -3.3028
   77CHL1  H16B 8127   7.017   1.330   7.742 -2.1765  0.8544  1.1336
   77CHL1   C17 8128   6.792   1.344   7.717 -0.3010  0.5940 -0.4950
   77CHL1   H17 8129   6.803   1.453   7.736 -0.6027  0.5499 -0.0519
   77CHL1   C13 8130   6.725   1.332   7.587  0.5169  0.6933  0.3790
   77CHL1   C18 8131   6.671   1.187   7.572  0.6170  0.1128 -0.1675
   77CHL1  H18A 8132   6.732   1.111   7.626  0.5262  0.6611  0.7220
   77CHL1  H18B 8133   6.565   1.180   7.606  0.3853  2.3320 -0.3161
   77CHL1  H18C 8134   6.666   1.164   7.463  0.9224  5.4312 -1.5897
   77CHL1   C12 8135   6.607   1.436   7.558  0.0906  0.0277 -0.2409
   77CHL1  H12A 8136   6.515   1.400   7.609 -0.1190 -1.4585 -1.5807
   77CHL1  H12B 8137   6.620   1.540   7.593  0.4950 -0.2193  0.3615
   77CHL1   C11 8138   6.564   1.425   7.410 -0.0524  0.3319  0.7297
   77CHL1  H11A 8139   6.531   1.320   7.396  2.8240 -0.5821  0.1099
   77CHL1  H11B 8140   6.488   1.502   7.384 -0.3750  0.5203  2.1575
   77CHL1    C9 8141   6.679   1.436   7.311 -0.1714 -0.4490  0.1654
   77CHL1    H9 8142   6.731   1.532   7.331  0.6295 -0.8748  0.2095
   77CHL1   C10 8143   6.647   1.446   7.158  0.3756  0.6273  0.3573
   77CHL1   C19 8144   6.562   1.325   7.116  0.1615  0.4098  0.5741
   77CHL1  H19A 8145   6.477   1.320   7.188 -0.8325  0.3569 -0.5637
   77CHL1  H19B 8146   6.526   1.330   7.011  0.5654 -0.6920  0.3653
   77CHL1  H19C 8147   6.620   1.231   7.125 -0.5946 -0.0345  0.9381
   77CHL1    C1 8148   6.568   1.581   7.142  0.2260  0.5669  0.3308
   77CHL1   H1A 8149   6.475   1.587   7.203 -0.6915 -0.9126 -0.8501
   77CHL1   H1B 8150   6.624   1.667   7.185  3.8251 -1.0362 -0.8041
   77CHL1    C2 8151   6.542   1.616   6.993  0.0719 -0.1205 -0.7428
   77CHL1   H2A 8152   6.496   1.717   6.993  3.4998  1.5679 -0.3382
   77CHL1   H2B 8153   6.479   1.536   6.948 -0.2443 -0.7961  0.7986
   77CHL1   C20 8154   6.742   1.277   7.841  0.9239  0.0616  0.4021
   77CHL1   H20 8155   6.737   1.167   7.824  2.2589  0.3235 -2.2506
   77CHL1   C21 8156   6.603   1.334   7.864 -0.0590 -0.9077  0.0586
   77CHL1  H21A 8157   6.570   1.303   7.966  1.8064  0.3524  1.0909
   77CHL1  H21B 8158   6.524   1.297   7.795 -0.4832 -1.1300  0.6551
   77CHL1  H21C 8159   6.600   1.445   7.861  0.4967 -0.9114 -0.9984
   77CHL1   C22 8160   6.819   1.300   7.974 -0.5116 -0.4682  0.2563
   77CHL1  H22A 8161   6.918   1.253   7.952 -1.0278 -1.7045  0.4977
   77CHL1  H22B 8162   6.842   1.407   7.995  1.1704 -0.7702  0.1573
   77CHL1   C23 8163   6.772   1.214   8.086 -0.2432 -0.0042 -0.0532
   77CHL1  H23A 8164   6.666   1.237   8.111  0.2340  1.5744  0.6310
   77CHL1  H23B 8165   6.780   1.107   8.057 -0.1292 -0.4086  1.3726
   77CHL1   C24 8166   6.856   1.225   8.212  0.2677  0.1651 -0.3637
   77CHL1  H24A 8167   6.869   1.330   8.246  1.5382 -0.0794 -0.0523
   77CHL1  H24B 8168   6.802   1.169   8.291  0.4633  1.2662  0.5770
   77CHL1   C25 8169   6.999   1.184   8.204 -0.9984  0.0889 -0.5140
   77CHL1   H25 8170   7.068   1.263   8.167 -0.1535  0.2810  1.3303
   77CHL1   C26 8171   7.066   1.169   8.350 -0.2325 -0.4215 -0.3916
   77CHL1  H26A 8172   7.169   1.133   8.326 -0.7210 -0.9226 -1.8689
   77CHL1  H26B 8173   7.052   1.261   8.409 -1.3679 -1.1487  0.5094
   77CHL1  H26C 8174   7.006   1.091   8.401 -0.5050  0.5905  0.8819
   77CHL1   C27 8175   7.021   1.051   8.131 -0.4341  0.4834 -0.5984
   77CHL1  H27A 8176   7.126   1.016   8.125 -0.4220  0.6355 -1.4566
   77CHL1  H27B 8177   6.957   0.973   8.176  2.2872 -1.4810  0.1100
   77CHL1  H27C 8178   6.982   1.063   8.027 -0.7485  0.6375 -0.4665
   78CHL1    C3 8179   1.572   4.771   6.510  0.3492 -1.4506 -0.3348
   78CHL1    H3 8180   1.516   4.678   6.532  0.0585 -1.1637  0.1612
   78CHL1    O3 8181   1.573   4.786   6.367 -0.4285  0.2188  0.2441
   78CHL1   H3' 8182   1.619   4.868   6.348  1.4659 -1.0572 -0.9227
   78CHL1    C4 8183   1.489   4.884   6.579  0.2680 -0.1129 -0.3507
   78CHL1   H4A 8184   1.549   4.973   6.549 -1.1090  0.1586 -2.4901
   78CHL1   H4B 8185   1.390   4.900   6.531 -0.2342  0.2196  0.7764
   78CHL1    C5 8186   1.466   4.872   6.728 -0.1326  0.5964 -0.1284
   78CHL1    C6 8187   1.347   4.879   6.784  0.2938 -0.0385 -0.2398
   78CHL1    H6 8188   1.256   4.898   6.724 -0.4655 -0.0937  0.8699
   78CHL1    C7 8189   1.330   4.867   6.930 -0.3322 -0.5951  0.0079
   78CHL1   H7A 8190   1.256   4.944   6.962 -0.1166 -0.4820  0.2325
   78CHL1   H7B 8191   1.282   4.770   6.959 -0.4966 -0.5658 -0.1634
   78CHL1    C8 8192   1.459   4.867   7.022 -0.7655 -0.0313 -0.0995
   78CHL1    H8 8193   1.496   4.970   7.039 -0.1263  0.2069 -2.5337
   78CHL1   C14 8194   1.437   4.810   7.162 -0.1268 -0.6271 -0.6113
   78CHL1   H14 8195   1.424   4.701   7.144 -1.8407 -0.4688 -0.5071
   78CHL1   C15 8196   1.308   4.848   7.239 -0.0004  0.0653 -0.6101
   78CHL1  H15A 8197   1.294   4.958   7.242 -0.4203  0.0161 -0.8470
   78CHL1  H15B 8198   1.213   4.805   7.203 -0.2701  1.2801 -1.3852
   78CHL1   C16 8199   1.342   4.808   7.385 -0.8265  0.8024 -0.1616
   78CHL1  H16A 8200   1.353   4.901   7.444 -0.2445  2.7611 -3.1169
   78CHL1  H16B 8201   1.265   4.750   7.439 -1.8177  2.8513  0.7036
   78CHL1   C17 8202   1.483   4.736   7.374 -0.3550  0.0922  0.1221
   78CHL1   H17 8203   1.452   4.638   7.331 -1.5206 -0.2592  1.6599
   78CHL1   C13 8204   1.556   4.810   7.262 -0.4421  0.0029 -0.2532
   78CHL1   C18 8205   1.597   4.951   7.310 -0.1171 -0.0844 -0.5473
   78CHL1  H18A 8206   1.510   5.014   7.339  0.4929  1.0098 -1.0327
   78CHL1  H18B 8207   1.675   4.950   7.389 -2.2834 -0.0652  1.7007
   78CHL1  H18C 8208   1.640   5.001   7.220  1.2591 -1.6372 -0.7851
   78CHL1   C12 8209   1.671   4.739   7.195  0.2712 -0.6229  0.4795
   78CHL1  H12A 8210   1.771   4.766   7.235  0.6087  0.1705 -0.8139
   78CHL1  H12B 8211   1.655   4.629   7.201 -1.0591 -0.5614 -1.0743
   78CHL1   C11 8212   1.697   4.791   7.050  0.5592  0.2520  0.2086
   78CHL1  H11A 8213   1.733   4.896   7.056  0.0566  0.4032  0.6864
   78CHL1  H11B 8214   1.778   4.731   7.002 -0.0647  0.6458 -1.3856
   78CHL1    C9 8215   1.572   4.791   6.952 -0.3231  0.8646 -0.1033
   78CHL1    H9 8216   1.544   4.684   6.942  0.0272  0.8191 -0.6414
   78CHL1   C10 8217   1.596   4.848   6.807  0.1281 -0.7137 -0.0693
   78CHL1   C19 8218   1.671   4.986   6.809  0.2064  0.3681 -0.1873
   78CHL1  H19A 8219   1.766   4.976   6.866 -0.3280  0.1109  0.6798
   78CHL1  H19B 8220   1.691   5.021   6.706 -1.3324 -0.7861 -0.9227
   78CHL1  H19C 8221   1.619   5.067   6.865  3.3291  3.0225 -0.7937
   78CHL1    C1 8222   1.689   4.748   6.736 -0.2967 -0.2471  0.2053
   78CHL1   H1A 8223   1.784   4.737   6.792 -0.4057 -1.3147  0.1978
   78CHL1   H1B 8224   1.630   4.655   6.753 -0.9269 -0.0673 -0.9142
   78CHL1    C2 8225   1.710   4.765   6.579 -0.3363 -0.5846 -0.2408
   78CHL1   H2A 8226   1.774   4.677   6.557 -1.1657 -2.0953  2.9309
   78CHL1   H2B 8227   1.763   4.861   6.558  0.3346 -1.1995 -1.5340
   78CHL1   C20 8228   1.560   4.702   7.502  0.1183  1.3384  0.7732
   78CHL1   H20 8229   1.589   4.798   7.551  1.6939  0.6916  1.1599
   78CHL1   C21 8230   1.689   4.622   7.477  0.7224  0.0530 -0.3943
   78CHL1  H21A 8231   1.731   4.604   7.579  1.8695  1.1674 -0.6375
   78CHL1  H21B 8232   1.772   4.682   7.434  2.8384 -2.4188 -0.0282
   78CHL1  H21C 8233   1.673   4.529   7.419  1.4558 -0.6397  0.4817
   78CHL1   C22 8234   1.463   4.650   7.615  0.1728  0.0826 -0.0766
   78CHL1  H22A 8235   1.388   4.730   7.631  1.2058  0.8674  1.0485
   78CHL1  H22B 8236   1.414   4.554   7.587 -0.9439  0.2260  1.2937
   78CHL1   C23 8237   1.542   4.627   7.749 -0.1452  0.2827 -0.1347
   78CHL1  H23A 8238   1.605   4.535   7.745 -0.8179 -0.2503  1.1242
   78CHL1  H23B 8239   1.614   4.708   7.776  0.1142  1.2321 -3.2955
   78CHL1   C24 8240   1.437   4.606   7.867  0.1822  0.1696 -0.1224
   78CHL1  H24A 8241   1.360   4.684   7.849  1.0371  0.6294 -2.0339
   78CHL1  H24B 8242   1.385   4.512   7.841 -0.2391  0.0645  1.0286
   78CHL1   C25 8243   1.506   4.617   8.005 -0.2770  0.0234 -0.2123
   78CHL1   H25 8244   1.594   4.549   8.007  0.3748  0.8566  1.1331
   78CHL1   C26 8245   1.557   4.757   8.031  1.5922  0.1733 -0.0246
   78CHL1  H26A 8246   1.567   4.782   8.139 -0.9160 -0.5559  0.4450
   78CHL1  H26B 8247   1.646   4.792   7.974  1.6855  0.3039  0.2001
   78CHL1  H26C 8248   1.475   4.821   7.992  0.5191 -1.8062 -1.2088
   78CHL1   C27 8249   1.404   4.572   8.107  0.4766  0.2174 -0.7277
   78CHL1  H27A 8250   1.318   4.641   8.124  0.9649  0.2679  1.9574
   78CHL1  H27B 8251   1.366   4.471   8.080  0.3514 -0.2919  1.1946
   78CHL1  H27C 8252   1.445   4.554   8.208 -1.6522  1.2379  0.3743
   79CHL1    C3 8253   5.969   4.561   7.152 -0.1618 -0.1965 -0.2676
   79CHL1    H3 8254   6.023   4.464   7.160  1.3705  0.4743 -1.9322
   79CHL1    O3 8255   5.958   4.606   7.016  0.2928 -0.7248 -0.6221
   79CHL1   H3' 8256   6.042   4.641   6.985  0.3184 -0.7880 -0.6243
   79CHL1    C4 8257   5.832   4.558   7.220 -0.2221  0.1773  0.1217
   79CHL1   H4A 8258   5.777   4.650   7.191 -0.1805 -0.2162 -1.2543
   79CHL1   H4B 8259   5.769   4.499   7.151 -0.6691  2.9068 -2.0054
   79CHL1    C5 8260   5.826   4.537   7.367  0.8305 -0.2687 -0.6422
   79CHL1    C6 8261   5.748   4.438   7.416  0.8972 -0.7485  0.6278
   79CHL1    H6 8262   5.680   4.397   7.340  0.4868  2.6739 -1.0533
   79CHL1    C7 8263   5.740   4.404   7.564  0.3682  0.2428  0.1409
   79CHL1   H7A 8264   5.636   4.393   7.604 -0.0441 -1.6895 -1.3216
   79CHL1   H7B 8265   5.780   4.301   7.576 -0.4725  0.0838  1.8762
   79CHL1    C8 8266   5.816   4.500   7.655  0.0497  0.0600 -0.2670
   79CHL1    H8 8267   5.749   4.587   7.668 -1.3056 -0.6029 -2.2920
   79CHL1   C14 8268   5.842   4.432   7.791 -0.2697  1.1885  0.1577
   79CHL1   H14 8269   5.911   4.351   7.759 -0.2491  1.2227  0.1152
   79CHL1   C15 8270   5.719   4.363   7.865 -0.4852  0.0949  0.7251
   79CHL1  H15A 8271   5.635   4.434   7.857 -0.1999  0.4351  0.7296
   79CHL1  H15B 8272   5.696   4.263   7.821  1.8730 -0.5671  0.8444
   79CHL1   C16 8273   5.785   4.354   8.007 -0.5080  0.1973 -0.7872
   79CHL1  H16A 8274   5.724   4.399   8.088  0.4521 -2.8727  1.8265
   79CHL1  H16B 8275   5.787   4.248   8.041 -0.9996 -0.0214 -1.4139
   79CHL1   C17 8276   5.925   4.423   8.010  0.3463  0.3234  0.1188
   79CHL1   H17 8277   5.989   4.341   7.971 -2.0504 -2.2844  1.3136
   79CHL1   C13 8278   5.917   4.522   7.890  0.0635  0.3432 -0.1084
   79CHL1   C18 8279   5.837   4.647   7.942 -0.4055 -0.3371  0.4949
   79CHL1  H18A 8280   5.843   4.729   7.867 -4.3942 -0.0542  0.2407
   79CHL1  H18B 8281   5.729   4.625   7.958 -0.8765 -1.3583 -3.2765
   79CHL1  H18C 8282   5.894   4.684   8.030  3.3987 -1.1714 -1.4359
   79CHL1   C12 8283   6.051   4.573   7.829  0.7454 -0.4259 -0.7568
   79CHL1  H12A 8284   6.089   4.652   7.898  1.6702 -1.3358 -0.1984
   79CHL1  H12B 8285   6.125   4.493   7.809  0.0931 -1.4274  0.6206
   79CHL1   C11 8286   6.029   4.640   7.696 -0.2692  0.0642  0.2916
   79CHL1  H11A 8287   5.981   4.740   7.704  0.4929  0.6285 -1.5335
   79CHL1  H11B 8288   6.132   4.665   7.661  0.0766 -1.8594 -0.1727
   79CHL1    C9 8289   5.948   4.556   7.597  0.1399 -0.4980 -0.4236
   79CHL1    H9 8290   6.020   4.472   7.585  3.8644  2.5800 -1.6267
   79CHL1   C10 8291   5.924   4.614   7.446 -0.1291 -0.8910  0.2014
   79CHL1   C19 8292   5.851   4.745   7.470  0.1201 -0.2499  0.0313
   79CHL1  H19A 8293   5.913   4.820   7.523 -0.0800 -0.4658  0.5729
   79CHL1  H19B 8294   5.815   4.791   7.375 -0.3634 -2.8004 -1.1220
   79CHL1  H19C 8295   5.761   4.733   7.533 -1.1015  1.5687 -1.2603
   79CHL1    C1 8296   6.058   4.645   7.375  0.3801  0.2555  0.8872
   79CHL1   H1A 8297   6.106   4.730   7.429  1.0197  0.9945 -0.7848
   79CHL1   H1B 8298   6.130   4.562   7.386  0.5995  0.6759  3.2022
   79CHL1    C2 8299   6.049   4.673   7.224 -0.0315  0.0876 -0.0722
   79CHL1   H2A 8300   6.150   4.675   7.177  0.5759 -1.1189  1.1119
   79CHL1   H2B 8301   5.995   4.769   7.207  0.5252  0.3005 -0.6869
   79CHL1   C20 8302   5.980   4.466   8.149 -0.1386  0.2801  0.2010
   79CHL1   H20 8303   5.904   4.537   8.190 -0.2037  0.2303  0.1649
   79CHL1   C21 8304   6.119   4.537   8.149  0.5564  0.0923 -0.4845
   79CHL1  H21A 8305   6.108   4.637   8.103  0.4232  1.0002  1.4275
   79CHL1  H21B 8306   6.190   4.476   8.089 -1.4512 -2.6930 -0.2011
   79CHL1  H21C 8307   6.153   4.557   8.254 -1.1978  1.5055 -0.1461
   79CHL1   C22 8308   5.991   4.336   8.237 -0.2445 -0.7284  0.1735
   79CHL1  H22A 8309   5.900   4.273   8.225 -0.2541 -0.9704  1.4115
   79CHL1  H22B 8310   6.077   4.275   8.204  0.8799  0.6977  0.3555
   79CHL1   C23 8311   6.008   4.361   8.386  0.2600 -0.7547 -0.1514
   79CHL1  H23A 8312   6.095   4.299   8.419 -0.3532 -2.5138 -1.6922
   79CHL1  H23B 8313   6.019   4.470   8.405 -0.1687 -0.7134 -0.1506
   79CHL1   C24 8314   5.874   4.319   8.463 -0.0458  0.5550 -0.1029
   79CHL1  H24A 8315   5.791   4.365   8.406 -0.3794  1.0527  0.7787
   79CHL1  H24B 8316   5.856   4.209   8.462 -1.4089  0.7620  0.4899
   79CHL1   C25 8317   5.874   4.386   8.604 -0.2051 -0.8017  0.6429
   79CHL1   H25 8318   5.879   4.497   8.593  0.3006 -0.9971 -1.7280
   79CHL1   C26 8319   5.742   4.340   8.667  0.5728 -0.3963 -0.7657
   79CHL1  H26A 8320   5.742   4.229   8.679  1.6460 -0.2071  1.4574
   79CHL1  H26B 8321   5.731   4.394   8.763  2.0374  0.2981 -0.9627
   79CHL1  H26C 8322   5.663   4.368   8.593 -0.6683 -1.7731 -0.0242
   79CHL1   C27 8323   5.992   4.336   8.691  0.0555  0.1716  0.0970
   79CHL1  H27A 8324   5.993   4.366   8.798  0.9339 -0.3316  0.2462
   79CHL1  H27B 8325   5.994   4.225   8.683 -1.7733  0.1462 -0.4841
   79CHL1  H27C 8326   6.082   4.382   8.645  0.3659 -1.8881 -1.5321
   80CHL1    C3 8327   1.335   0.273   6.878 -0.7822  0.0199 -0.1307
   80CHL1    H3 8328   1.429   0.215   6.870  0.0604  1.5474 -2.0082
   80CHL1    O3 8329   1.281   0.286   6.747  0.2221 -0.0650  0.0687
   80CHL1   H3' 8330   1.200   0.335   6.767 -0.1100 -1.7719  3.6920
   80CHL1    C4 8331   1.229   0.202   6.965  0.4844  0.1638 -0.5018
   80CHL1   H4A 8332   1.142   0.271   6.962  0.3600  0.0692  0.5645
   80CHL1   H4B 8333   1.193   0.107   6.919  1.9454 -0.4023 -0.5319
   80CHL1    C5 8334   1.279   0.189   7.112  0.1447  0.0624  0.3652
   80CHL1    C6 8335   1.275   0.064   7.164 -0.1530  0.3703  0.4508
   80CHL1    H6 8336   1.245  -0.025   7.108  0.2274 -1.5088  3.0945
   80CHL1    C7 8337   1.306   0.034   7.305  0.2147  0.8967 -0.0652
   80CHL1   H7A 8338   1.223  -0.027   7.347  1.9729 -3.0878 -1.8670
   80CHL1   H7B 8339   1.402  -0.016   7.327 -0.7212 -0.9125  0.0611
   80CHL1    C8 8340   1.324   0.172   7.383 -0.5485  0.1864 -0.2234
   80CHL1    H8 8341   1.221   0.206   7.405 -0.3635 -0.3412  1.6598
   80CHL1   C14 8342   1.394   0.141   7.513 -0.1890 -0.0303 -0.1963
   80CHL1   H14 8343   1.496   0.100   7.501  0.2843  0.9692  0.3306
   80CHL1   C15 8344   1.341   0.029   7.608  0.3089  1.2951 -0.7368
   80CHL1  H15A 8345   1.233   0.052   7.624 -0.3752 -2.5728  1.6854
   80CHL1  H15B 8346   1.359  -0.068   7.557  3.5936  1.1768  0.4418
   80CHL1   C16 8347   1.424   0.056   7.738  0.6075 -0.3623 -0.8205
   80CHL1  H16A 8348   1.358   0.037   7.825  1.1079 -1.2580 -0.6232
   80CHL1  H16B 8349   1.518  -0.003   7.750  2.2305  1.5554 -3.2840
   80CHL1   C17 8350   1.479   0.205   7.730  0.2135 -0.2109  1.2654
   80CHL1   H17 8351   1.584   0.184   7.700 -0.0904  0.3950 -0.3132
   80CHL1   C13 8352   1.411   0.261   7.603 -0.3108  1.2650  0.0786
   80CHL1   C18 8353   1.274   0.324   7.639 -0.1619 -0.5358 -0.3121
   80CHL1  H18A 8354   1.211   0.270   7.713  1.5875 -0.3579  1.4021
   80CHL1  H18B 8355   1.300   0.421   7.688  3.7141 -0.9590 -1.2191
   80CHL1  H18C 8356   1.214   0.348   7.549  0.5563 -2.0395 -1.2300
   80CHL1   C12 8357   1.491   0.367   7.532  0.2024 -0.3889 -0.3312
   80CHL1  H12A 8358   1.484   0.460   7.593 -1.1626 -0.1920 -0.7508
   80CHL1  H12B 8359   1.596   0.333   7.520  0.4502 -0.6724  2.2492
   80CHL1   C11 8360   1.424   0.411   7.397  0.4239 -0.7857  0.2775
   80CHL1  H11A 8361   1.336   0.474   7.424  0.8408  0.5792 -1.3768
   80CHL1  H11B 8362   1.501   0.475   7.349  1.3825 -1.1165  1.3233
   80CHL1    C9 8363   1.387   0.289   7.308 -0.8515  0.5698  0.2950
   80CHL1    H9 8364   1.491   0.257   7.282 -1.9079 -3.3770  0.2464
   80CHL1   C10 8365   1.326   0.315   7.176  0.2907  0.0002  1.1087
   80CHL1   C19 8366   1.204   0.410   7.199 -0.0354 -0.2577 -0.4375
   80CHL1  H19A 8367   1.224   0.515   7.230  0.5077 -0.5161  0.1185
   80CHL1  H19B 8368   1.146   0.420   7.105  0.6587  1.1192 -0.7474
   80CHL1  H19C 8369   1.132   0.368   7.272  1.3113  3.2158  3.2818
   80CHL1    C1 8370   1.417   0.392   7.079 -0.3983  0.4803 -0.2017
   80CHL1   H1A 8371   1.445   0.492   7.117 -2.0602  0.8621  0.0884
   80CHL1   H1B 8372   1.509   0.330   7.068 -0.2379  0.3579  1.5740
   80CHL1    C2 8373   1.364   0.413   6.935  0.0068  0.3390  0.1700
   80CHL1   H2A 8374   1.447   0.460   6.878  0.6433 -0.9951 -0.0258
   80CHL1   H2B 8375   1.276   0.481   6.932  0.7486  1.2995 -2.0115
   80CHL1   C20 8376   1.480   0.289   7.859 -0.0134  0.5484  0.4215
   80CHL1   H20 8377   1.374   0.316   7.880  0.3665  1.6002  1.1090
   80CHL1   C21 8378   1.553   0.423   7.840 -0.5193 -0.4317 -0.8090
   80CHL1  H21A 8379   1.471   0.492   7.812 -1.2422 -0.8326  0.2827
   80CHL1  H21B 8380   1.639   0.426   7.769  1.7398 -0.2766  1.7532
   80CHL1  H21C 8381   1.598   0.463   7.934 -0.4773 -0.9871 -0.5898
   80CHL1   C22 8382   1.539   0.219   7.982 -0.0513 -0.7479 -0.7467
   80CHL1  H22A 8383   1.504   0.117   8.012  0.2151 -0.5763  0.1846
   80CHL1  H22B 8384   1.646   0.221   7.951 -0.3166 -0.2087 -1.6695
   80CHL1   C23 8385   1.511   0.300   8.112  0.8055  0.0270 -0.4674
   80CHL1  H23A 8386   1.590   0.278   8.187  0.3111  1.0561  0.3794
   80CHL1  H23B 8387   1.507   0.410   8.098 -0.3596  0.0665  0.0294
   80CHL1   C24 8388   1.377   0.264   8.177  0.0546  0.5408  0.0045
   80CHL1  H24A 8389   1.285   0.283   8.117  0.3852  0.5528 -0.5024
   80CHL1  H24B 8390   1.372   0.153   8.188  1.6859  0.5871  1.7292
   80CHL1   C25 8391   1.361   0.318   8.315 -0.2625  0.1726  0.0249
   80CHL1   H25 8392   1.459   0.295   8.364  0.2573 -1.9373 -1.8412
   80CHL1   C26 8393   1.325   0.467   8.313  0.1749  0.1693  0.1036
   80CHL1  H26A 8394   1.250   0.500   8.238 -1.7485  1.2898  2.4232
   80CHL1  H26B 8395   1.289   0.488   8.416 -0.7882 -0.4447 -0.0993
   80CHL1  H26C 8396   1.423   0.518   8.300 -0.5166  2.0173  1.6246
   80CHL1   C27 8397   1.257   0.239   8.391 -0.7724  1.0780 -0.9974
   80CHL1  H27A 8398   1.157   0.255   8.347 -0.7971 -1.5861 -2.1203
   80CHL1  H27B 8399   1.281   0.131   8.402  1.7488  1.4145 -2.3638
   80CHL1  H27C 8400   1.250   0.282   8.493 -1.8745  1.8387 -1.3766
   81CHL1    C3 8401   2.228   0.185   6.789  0.2362  0.1463  0.0823
   81CHL1    H3 8402   2.231   0.275   6.853 -0.1047  1.3182 -1.4953
   81CHL1    O3 8403   2.184   0.235   6.666  0.1014  0.5665  0.2408
   81CHL1   H3' 8404   2.183   0.160   6.606  1.1343  1.0123 -0.3606
   81CHL1    C4 8405   2.361   0.108   6.777  0.9490 -0.5985 -0.1948
   81CHL1   H4A 8406   2.364   0.021   6.708  0.4665 -0.6999 -0.0900
   81CHL1   H4B 8407   2.445   0.162   6.728  1.5748 -1.0595  0.3545
   81CHL1    C5 8408   2.394   0.056   6.913  0.1452 -0.0272 -0.2318
   81CHL1    C6 8409   2.508   0.083   6.973  1.2503 -0.1985  0.1522
   81CHL1    H6 8410   2.574   0.147   6.912 -0.7125  2.1493  0.3586
   81CHL1    C7 8411   2.550   0.030   7.107 -0.1212  0.1899 -0.1329
   81CHL1   H7A 8412   2.654  -0.003   7.090  0.3003  1.5190 -0.2821
   81CHL1   H7B 8413   2.571   0.116   7.175 -0.6820  0.7269 -0.6232
   81CHL1    C8 8414   2.456  -0.075   7.168 -0.5244  0.6164 -0.6351
   81CHL1    H8 8415   2.485  -0.169   7.116 -1.7373 -0.7080  0.9586
   81CHL1   C14 8416   2.493  -0.097   7.313  1.3561 -0.0260 -1.0144
   81CHL1   H14 8417   2.466   0.003   7.353  1.8040  0.1267 -1.0841
   81CHL1   C15 8418   2.630  -0.134   7.368 -0.0099  0.4386 -0.3372
   81CHL1  H15A 8419   2.674  -0.221   7.314 -0.4005 -0.4156  0.6928
   81CHL1  H15B 8420   2.712  -0.059   7.363  2.2203 -1.5668  2.6885
   81CHL1   C16 8421   2.609  -0.185   7.513  0.7425  0.8261 -0.6316
   81CHL1  H16A 8422   2.642  -0.291   7.505  2.6822  1.4425 -1.7879
   81CHL1  H16B 8423   2.673  -0.144   7.594  1.4026 -2.9445  0.9734
   81CHL1   C17 8424   2.448  -0.180   7.531 -0.2898  0.3353 -0.4221
   81CHL1   H17 8425   2.418  -0.080   7.569 -2.5234 -0.5404  0.2850
   81CHL1   C13 8426   2.388  -0.182   7.388 -0.0715  0.5846 -0.2821
   81CHL1   C18 8427   2.396  -0.322   7.325  0.0415  0.3722 -0.0150
   81CHL1  H18A 8428   2.307  -0.383   7.353 -0.0725  0.7597  0.4846
   81CHL1  H18B 8429   2.394  -0.327   7.214 -2.0139 -0.9599  0.0372
   81CHL1  H18C 8430   2.492  -0.369   7.355  0.3104  1.4457  0.8459
   81CHL1   C12 8431   2.246  -0.123   7.373  0.1776 -0.0486  0.7502
   81CHL1  H12A 8432   2.175  -0.178   7.439  0.1762  1.6868  2.2586
   81CHL1  H12B 8433   2.248  -0.020   7.415 -0.9506 -0.3978  1.7437
   81CHL1   C11 8434   2.202  -0.115   7.219 -0.2145 -0.0687 -1.0374
   81CHL1  H11A 8435   2.180  -0.215   7.175  2.2882 -1.6764  1.0727
   81CHL1  H11B 8436   2.102  -0.067   7.222 -0.2885 -0.2780  0.3454
   81CHL1    C9 8437   2.314  -0.028   7.142  0.5412  0.3894 -0.5496
   81CHL1    H9 8438   2.305   0.077   7.178  1.0407  0.4440 -0.5797
   81CHL1   C10 8439   2.287  -0.023   6.987  0.1475 -0.0481  0.6275
   81CHL1   C19 8440   2.276  -0.161   6.914  0.1164 -0.5656 -0.0741
   81CHL1  H19A 8441   2.370  -0.221   6.911 -0.5749 -1.7303  0.4795
   81CHL1  H19B 8442   2.217  -0.235   6.974  1.4197  0.0110  2.0063
   81CHL1  H19C 8443   2.223  -0.158   6.816 -3.5984  1.9997  1.7767
   81CHL1    C1 8444   2.148   0.046   6.976 -0.3172 -1.0468  0.3577
   81CHL1   H1A 8445   2.068  -0.018   7.021  0.6901 -0.5837  2.9536
   81CHL1   H1B 8446   2.151   0.141   7.033 -1.4762 -0.1877 -0.9342
   81CHL1    C2 8447   2.109   0.097   6.839  0.6108 -0.0472 -0.4821
   81CHL1   H2A 8448   2.011   0.149   6.833  0.2050 -0.6443  0.6745
   81CHL1   H2B 8449   2.108   0.017   6.762  0.6574  0.7128 -1.2838
   81CHL1   C20 8450   2.393  -0.289   7.629 -0.3880 -0.5409  0.1103
   81CHL1   H20 8451   2.329  -0.356   7.567 -0.8256  0.7646 -0.8905
   81CHL1   C21 8452   2.291  -0.220   7.721  1.4314 -0.3112 -0.1802
   81CHL1  H21A 8453   2.199  -0.192   7.664 -1.5429 -0.6058  4.0070
   81CHL1  H21B 8454   2.333  -0.124   7.758  1.5249  0.1321 -1.4037
   81CHL1  H21C 8455   2.250  -0.276   7.808 -2.5335  0.6092 -1.2426
   81CHL1   C22 8456   2.495  -0.373   7.709 -1.2845 -0.2658  0.1339
   81CHL1  H22A 8457   2.538  -0.450   7.641 -3.0436  0.2295 -1.6284
   81CHL1  H22B 8458   2.571  -0.300   7.745  0.1939 -1.8346  0.3135
   81CHL1   C23 8459   2.442  -0.439   7.841  0.6972 -0.2749  0.7163
   81CHL1  H23A 8460   2.417  -0.349   7.901  1.5459  2.2800 -2.4699
   81CHL1  H23B 8461   2.346  -0.494   7.829 -0.9268  1.9380  2.6894
   81CHL1   C24 8462   2.549  -0.518   7.924  0.4607 -0.8863  0.3144
   81CHL1  H24A 8463   2.588  -0.607   7.868  1.2151 -0.2119 -0.2595
   81CHL1  H24B 8464   2.636  -0.449   7.933 -0.0730 -0.2826  0.9538
   81CHL1   C25 8465   2.493  -0.561   8.066  0.6884  0.2149 -0.2758
   81CHL1   H25 8466   2.396  -0.613   8.053  0.0758  0.9703  1.0332
   81CHL1   C26 8467   2.585  -0.658   8.140  0.4791  0.2575 -0.7511
   81CHL1  H26A 8468   2.593  -0.755   8.088 -1.0695 -0.7275  0.7356
   81CHL1  H26B 8469   2.680  -0.605   8.165  0.0137  0.0603  1.6874
   81CHL1  H26C 8470   2.534  -0.680   8.236 -2.2419 -0.0540 -2.1682
   81CHL1   C27 8471   2.465  -0.439   8.154 -0.1819 -0.2835  0.5838
   81CHL1  H27A 8472   2.441  -0.468   8.259  0.1186 -0.2166  0.6732
   81CHL1  H27B 8473   2.551  -0.369   8.161 -0.1856 -0.1281 -0.6823
   81CHL1  H27C 8474   2.379  -0.382   8.112  1.8046  2.8910  0.4553
   82CHL1    C3 8475   4.570   3.464   6.949 -0.3212  0.6588 -0.5560
   82CHL1    H3 8476   4.479   3.414   6.990  0.4421 -0.5797 -0.3164
   82CHL1    O3 8477   4.553   3.460   6.807  1.1548 -0.4830  0.3693
   82CHL1   H3' 8478   4.573   3.549   6.778 -1.0210 -0.2068 -0.5081
   82CHL1    C4 8479   4.569   3.607   7.010  0.0317  0.4975  0.2383
   82CHL1   H4A 8480   4.647   3.668   6.959 -0.4641  0.9097 -0.0490
   82CHL1   H4B 8481   4.469   3.651   6.989 -0.5669  0.3694  2.5663
   82CHL1    C5 8482   4.592   3.604   7.162 -0.8991 -0.2122  0.2617
   82CHL1    C6 8483   4.506   3.655   7.247 -0.7429 -1.0157 -0.6343
   82CHL1    H6 8484   4.413   3.703   7.214  1.0343  1.6872 -2.0875
   82CHL1    C7 8485   4.522   3.641   7.394 -0.3830  0.5439  0.0601
   82CHL1   H7A 8486   4.479   3.734   7.439 -0.7468  0.2292  0.3731
   82CHL1   H7B 8487   4.460   3.558   7.434 -0.4902 -0.2375 -1.6390
   82CHL1    C8 8488   4.666   3.614   7.443  0.2057 -0.1490 -0.6342
   82CHL1    H8 8489   4.727   3.707   7.440  0.7783 -0.3466  2.2532
   82CHL1   C14 8490   4.658   3.560   7.590 -0.0585  0.2911  0.2164
   82CHL1   H14 8491   4.606   3.462   7.585 -1.9785  1.2448  0.6403
   82CHL1   C15 8492   4.594   3.643   7.694  0.7288 -0.2760 -0.6145
   82CHL1  H15A 8493   4.608   3.753   7.680 -3.6945  0.4839 -0.4150
   82CHL1  H15B 8494   4.484   3.631   7.697  0.5868  0.5559 -1.6992
   82CHL1   C16 8495   4.653   3.587   7.828 -0.1256  0.5140  0.0203
   82CHL1  H16A 8496   4.704   3.675   7.873 -2.8544  1.3047  1.7867
   82CHL1  H16B 8497   4.573   3.549   7.896 -0.4819  2.1686  0.5731
   82CHL1   C17 8498   4.744   3.473   7.792  0.0167 -0.0947 -0.2395
   82CHL1   H17 8499   4.686   3.379   7.774  0.8954 -0.9557  1.2304
   82CHL1   C13 8500   4.796   3.513   7.649  0.1846  0.7055  0.6495
   82CHL1   C18 8501   4.893   3.631   7.661  0.4011  0.0986  0.4606
   82CHL1  H18A 8502   4.900   3.681   7.563  0.3796 -1.0419 -0.1442
   82CHL1  H18B 8503   4.854   3.712   7.727 -0.2799  1.6482 -1.7526
   82CHL1  H18C 8504   4.996   3.600   7.686 -0.0058 -2.4330 -0.6739
   82CHL1   C12 8505   4.850   3.401   7.557  0.1850 -0.2586  1.0793
   82CHL1  H12A 8506   4.956   3.376   7.574  0.5369 -0.3000 -0.9296
   82CHL1  H12B 8507   4.788   3.309   7.566 -3.2187  1.8895  1.6442
   82CHL1   C11 8508   4.853   3.450   7.408  0.1992  0.3446 -0.5689
   82CHL1  H11A 8509   4.928   3.532   7.415 -0.0246  0.3869  2.9064
   82CHL1  H11B 8510   4.897   3.370   7.345  3.0964 -0.8635  2.6538
   82CHL1    C9 8511   4.724   3.504   7.355 -0.1041  0.2627 -0.4064
   82CHL1    H9 8512   4.657   3.418   7.376  0.6852 -0.7264 -1.7526
   82CHL1   C10 8513   4.715   3.532   7.205 -0.8141 -1.0814 -0.0950
   82CHL1   C19 8514   4.834   3.627   7.170  0.6614 -0.5970  0.8373
   82CHL1  H19A 8515   4.836   3.651   7.061 -2.6685  1.2709  1.0744
   82CHL1  H19B 8516   4.832   3.725   7.221 -0.3743 -0.4777  0.5908
   82CHL1  H19C 8517   4.931   3.593   7.211  0.7937 -0.4927  0.6115
   82CHL1    C1 8518   4.726   3.397   7.135 -0.2857  0.0100  0.0126
   82CHL1   H1A 8519   4.829   3.358   7.150 -0.3369 -1.2696 -2.4824
   82CHL1   H1B 8520   4.666   3.319   7.187  0.6795 -0.6238  0.2033
   82CHL1    C2 8521   4.699   3.388   6.987 -0.0127 -0.6304  0.3981
   82CHL1   H2A 8522   4.695   3.281   6.956  3.4056 -0.7331  0.0164
   82CHL1   H2B 8523   4.782   3.431   6.928 -0.4940 -0.0206  0.1484
   82CHL1   C20 8524   4.854   3.458   7.898  1.3440  0.3294  0.6910
   82CHL1   H20 8525   4.914   3.551   7.898 -0.3457  1.5923 -3.0646
   82CHL1   C21 8526   4.933   3.323   7.877  0.0481 -0.2950  0.0115
   82CHL1  H21A 8527   5.032   3.315   7.927 -0.3746  0.1475  0.9536
   82CHL1  H21B 8528   4.960   3.322   7.769  2.1163  0.0665  0.4739
   82CHL1  H21C 8529   4.874   3.232   7.901 -1.0771  0.4464  0.1303
   82CHL1   C22 8530   4.802   3.457   8.044  0.7955  0.1686 -0.0093
   82CHL1  H22A 8531   4.761   3.558   8.064  1.0588  0.0746  1.0506
   82CHL1  H22B 8532   4.730   3.373   8.056  1.0691  0.0050  0.5056
   82CHL1   C23 8533   4.916   3.443   8.147 -0.9705  0.6054 -0.5484
   82CHL1  H23A 8534   4.875   3.413   8.246  0.9220 -0.5836 -0.0882
   82CHL1  H23B 8535   4.979   3.359   8.113 -1.7451  0.9165 -2.9599
   82CHL1   C24 8536   5.005   3.569   8.158  0.7933 -0.0685 -0.4958
   82CHL1  H24A 8537   5.115   3.553   8.161  1.2712  2.4789 -2.0196
   82CHL1  H24B 8538   4.982   3.636   8.073  0.2755  1.2269  0.6395
   82CHL1   C25 8539   4.980   3.654   8.293 -0.6499  0.8066  0.7213
   82CHL1   H25 8540   4.872   3.676   8.304 -1.0616 -1.0241  0.7707
   82CHL1   C26 8541   5.032   3.580   8.419  0.8090 -0.4010 -0.0756
   82CHL1  H26A 8542   4.977   3.622   8.506 -0.2107  0.6466 -1.1790
   82CHL1  H26B 8543   5.028   3.470   8.411  0.9368 -0.3992 -0.1610
   82CHL1  H26C 8544   5.137   3.613   8.430  1.0929 -1.0900 -0.6371
   82CHL1   C27 8545   5.052   3.790   8.268  0.4660  0.5140  0.1309
   82CHL1  H27A 8546   5.161   3.776   8.257  0.5464  1.5223 -0.5524
   82CHL1  H27B 8547   5.010   3.831   8.173 -0.5649  1.0113  0.7823
   82CHL1  H27C 8548   5.016   3.855   8.350  0.4950  0.6773  0.0151
   83CHL1    C3 8549   1.047   1.299   6.923  0.2270 -0.0814  0.2411
   83CHL1    H3 8550   0.996   1.210   6.964 -1.2479  1.7656  2.7115
   83CHL1    O3 8551   0.994   1.336   6.797 -0.1616 -0.1902 -0.0515
   83CHL1   H3' 8552   1.023   1.422   6.767  0.3875 -0.0244  0.9215
   83CHL1    C4 8553   1.021   1.399   7.036  0.5877 -0.0774  0.2991
   83CHL1   H4A 8554   1.055   1.497   6.995 -1.2068  0.0364 -1.0584
   83CHL1   H4B 8555   0.911   1.401   7.052  0.7344 -0.2949  1.4143
   83CHL1    C5 8556   1.083   1.362   7.167  0.1511 -0.7286 -0.2667
   83CHL1    C6 8557   1.010   1.338   7.273  0.0391 -0.3942  0.1261
   83CHL1    H6 8558   0.900   1.342   7.265  0.0557  0.4799  0.1960
   83CHL1    C7 8559   1.064   1.288   7.403 -0.5183  0.4006 -0.6031
   83CHL1   H7A 8560   1.011   1.342   7.485 -0.9321  0.0471 -0.6343
   83CHL1   H7B 8561   1.047   1.178   7.410 -0.2684  0.4672  2.4327
   83CHL1    C8 8562   1.216   1.314   7.417 -0.2400  0.2479 -0.1358
   83CHL1    H8 8563   1.230   1.422   7.434  1.0726  0.3123 -1.3950
   83CHL1   C14 8564   1.262   1.232   7.539 -0.2845 -0.4367  0.2929
   83CHL1   H14 8565   1.250   1.126   7.511  0.9372 -0.1952 -1.2822
   83CHL1   C15 8566   1.197   1.241   7.674 -0.5417  0.0368  0.2841
   83CHL1  H15A 8567   1.149   1.338   7.700  1.2424  1.0022  0.0819
   83CHL1  H15B 8568   1.124   1.156   7.673  2.8479 -3.2340 -3.0249
   83CHL1   C16 8569   1.306   1.213   7.778 -0.2492 -0.0482 -0.1767
   83CHL1  H16A 8570   1.316   1.300   7.847  0.8244 -0.4031  0.1346
   83CHL1  H16B 8571   1.287   1.125   7.843 -1.4117  1.7018  1.9817
   83CHL1   C17 8572   1.441   1.185   7.705  1.3996 -0.1285 -0.0587
   83CHL1   H17 8573   1.443   1.076   7.680 -0.5954  0.5216 -3.6788
   83CHL1   C13 8574   1.420   1.251   7.563 -0.6227  0.3206 -0.2617
   83CHL1   C18 8575   1.450   1.399   7.570 -0.6709  0.1053 -0.5209
   83CHL1  H18A 8576   1.554   1.405   7.609  0.0290 -3.9501 -1.3874
   83CHL1  H18B 8577   1.451   1.460   7.477 -0.4065 -0.5012 -0.9201
   83CHL1  H18C 8578   1.388   1.454   7.645 -1.5506  0.2285 -1.3138
   83CHL1   C12 8579   1.499   1.189   7.444 -0.2966 -0.3311  0.0799
   83CHL1  H12A 8580   1.607   1.203   7.465 -0.4392  1.0428 -0.0012
   83CHL1  H12B 8581   1.485   1.079   7.444  1.3138 -0.6128  2.4037
   83CHL1   C11 8582   1.449   1.247   7.309 -0.7555 -0.6698 -0.7734
   83CHL1  H11A 8583   1.494   1.346   7.287 -0.5558 -0.0348  2.1223
   83CHL1  H11B 8584   1.490   1.178   7.233  0.9349 -0.1086 -0.4138
   83CHL1    C9 8585   1.292   1.260   7.299  0.0586  0.0247  0.4182
   83CHL1    H9 8586   1.258   1.154   7.294  2.1195 -0.6349 -1.2167
   83CHL1   C10 8587   1.232   1.326   7.168  0.3414 -0.1601 -0.5350
   83CHL1   C19 8588   1.302   1.462   7.141  0.3194  0.4304 -0.2937
   83CHL1  H19A 8589   1.411   1.443   7.130  0.3911  2.1221 -3.4926
   83CHL1  H19B 8590   1.283   1.526   7.053 -0.9486 -0.3869 -0.6498
   83CHL1  H19C 8591   1.298   1.525   7.232  1.6975 -0.6425  0.5524
   83CHL1    C1 8592   1.265   1.232   7.042  1.3388  0.1626 -1.0320
   83CHL1   H1A 8593   1.375   1.224   7.034  1.3012 -0.9774 -0.5645
   83CHL1   H1B 8594   1.236   1.126   7.059 -1.4949  1.1134  0.8244
   83CHL1    C2 8595   1.200   1.278   6.908  0.3568 -0.7623  0.2323
   83CHL1   H2A 8596   1.208   1.196   6.833  0.5929 -0.3336 -0.2134
   83CHL1   H2B 8597   1.255   1.369   6.876 -0.9043  0.6967  2.0310
   83CHL1   C20 8598   1.561   1.224   7.801 -0.1254  0.0820 -0.3276
   83CHL1   H20 8599   1.561   1.333   7.824  1.1102 -0.1384  0.8343
   83CHL1   C21 8600   1.688   1.178   7.732 -0.1346 -0.6201 -0.7069
   83CHL1  H21A 8601   1.696   1.229   7.634 -1.6321  1.8232  0.3413
   83CHL1  H21B 8602   1.686   1.068   7.716 -0.3319 -0.6785 -0.3018
   83CHL1  H21C 8603   1.777   1.181   7.799  0.6751 -2.7597 -1.5907
   83CHL1   C22 8604   1.556   1.144   7.933 -0.4245  0.1480 -0.0915
   83CHL1  H22A 8605   1.457   1.141   7.984 -0.1032  1.1491  0.6166
   83CHL1  H22B 8606   1.568   1.039   7.900  0.8692  0.7656 -1.7074
   83CHL1   C23 8607   1.662   1.187   8.035  0.5132 -0.5058  0.6773
   83CHL1  H23A 8608   1.765   1.197   7.993 -0.1424  3.3842 -0.4078
   83CHL1  H23B 8609   1.642   1.289   8.072  0.3603  0.4708 -1.8890
   83CHL1   C24 8610   1.653   1.099   8.167  0.2173  0.5639  0.0303
   83CHL1  H24A 8611   1.550   1.114   8.205 -0.3052 -1.2097 -0.5851
   83CHL1  H24B 8612   1.666   0.995   8.131  1.1514  0.7730 -0.2863
   83CHL1   C25 8613   1.756   1.131   8.275  0.7727 -0.1144 -0.2062
   83CHL1   H25 8614   1.850   1.133   8.216  0.2278  1.3350 -1.0818
   83CHL1   C26 8615   1.732   1.263   8.343 -0.5598 -0.2627  0.0423
   83CHL1  H26A 8616   1.811   1.287   8.417 -0.8379  0.8767 -0.0137
   83CHL1  H26B 8617   1.735   1.340   8.263 -1.6773 -1.0925 -0.8343
   83CHL1  H26C 8618   1.635   1.274   8.397 -0.0762 -1.0334  1.0943
   83CHL1   C27 8619   1.774   1.028   8.389  0.0092 -0.0310 -0.8191
   83CHL1  H27A 8620   1.807   0.929   8.353  1.6144  0.7695 -1.6541
   83CHL1  H27B 8621   1.847   1.073   8.459 -0.0707 -0.8197 -0.2153
   83CHL1  H27C 8622   1.676   1.014   8.439 -0.2683  0.0809 -1.3269
   84CHL1    C3 8623   2.021   5.935   6.889 -0.5162  0.4355  0.4976
   84CHL1    H3 8624   2.119   5.982   6.913  0.1467  0.8228 -2.5132
   84CHL1    O3 8625   2.007   5.948   6.751  0.1304 -0.2060 -0.2345
   84CHL1   H3' 8626   1.943   5.886   6.714 -0.5013 -0.1363  0.7209
   84CHL1    C4 8627   2.021   5.785   6.930 -0.6025  0.1471  0.5531
   84CHL1   H4A 8628   1.920   5.751   6.896 -1.8566  2.4952  1.6504
   84CHL1   H4B 8629   2.109   5.733   6.887 -0.3617  0.6449  0.4465
   84CHL1    C5 8630   2.023   5.769   7.084 -0.6241  0.0654 -0.0620
   84CHL1    C6 8631   2.122   5.702   7.143  0.0348  0.5265  0.3805
   84CHL1    H6 8632   2.206   5.669   7.080  1.2317  0.2208  2.0616
   84CHL1    C7 8633   2.135   5.672   7.292 -0.3153  1.2316 -0.9294
   84CHL1   H7A 8634   2.176   5.570   7.307 -2.0110  0.8020  1.1609
   84CHL1   H7B 8635   2.213   5.736   7.340  0.3411  0.2577 -0.6754
   84CHL1    C8 8636   2.000   5.700   7.359 -0.4438  0.1681  0.3515
   84CHL1    H8 8637   1.929   5.621   7.326  1.1129 -0.3399 -2.0671
   84CHL1   C14 8638   2.025   5.702   7.508 -0.1585 -0.1510 -0.5964
   84CHL1   H14 8639   2.101   5.783   7.512 -1.1278  0.8292 -1.4020
   84CHL1   C15 8640   2.097   5.586   7.576  0.4652 -0.4775  0.0953
   84CHL1  H15A 8641   2.049   5.500   7.524  0.7688 -0.2827 -0.5056
   84CHL1  H15B 8642   2.206   5.575   7.561  0.1918  0.2866 -3.2059
   84CHL1   C16 8643   2.062   5.603   7.720 -0.0922  0.5335 -0.1529
   84CHL1  H16A 8644   2.020   5.509   7.762  0.1904 -0.7324 -2.5151
   84CHL1  H16B 8645   2.155   5.624   7.777 -0.1310 -1.5253  0.7366
   84CHL1   C17 8646   1.969   5.731   7.736  0.1632  0.6265  0.1886
   84CHL1   H17 8647   2.040   5.816   7.745  1.0619 -0.1085  0.1846
   84CHL1   C13 8648   1.909   5.746   7.601 -0.6006 -0.4477  0.2825
   84CHL1   C18 8649   1.782   5.654   7.592 -0.8292  0.1596  0.3761
   84CHL1  H18A 8650   1.811   5.553   7.628 -0.5203 -0.0576 -0.4711
   84CHL1  H18B 8651   1.705   5.677   7.669 -1.5481 -1.8957  0.3309
   84CHL1  H18C 8652   1.722   5.648   7.499  0.0573  1.8484 -0.3603
   84CHL1   C12 8653   1.875   5.887   7.554 -0.6530  0.7089  0.5159
   84CHL1  H12A 8654   1.797   5.924   7.625 -0.8953 -1.8562  1.7024
   84CHL1  H12B 8655   1.969   5.942   7.573  0.4456 -0.0104 -2.3534
   84CHL1   C11 8656   1.840   5.889   7.403  0.2032 -0.1673 -0.7255
   84CHL1  H11A 8657   1.753   5.821   7.389  0.3345  0.1035 -3.3799
   84CHL1  H11B 8658   1.808   5.986   7.360  0.8231  0.2083 -0.3460
   84CHL1    C9 8659   1.953   5.838   7.308  0.0625 -0.3745 -0.9486
   84CHL1    H9 8660   2.030   5.914   7.330 -0.4671 -0.3630  1.0854
   84CHL1   C10 8661   1.917   5.836   7.163 -0.6333 -0.2516  0.3920
   84CHL1   C19 8662   1.789   5.756   7.132  0.0258 -0.2785  0.3320
   84CHL1  H19A 8663   1.790   5.653   7.173 -0.0787 -0.5173 -0.2592
   84CHL1  H19B 8664   1.697   5.807   7.166 -0.2645 -0.7326  0.2410
   84CHL1  H19C 8665   1.773   5.759   7.022 -0.9663  1.4974  0.4815
   84CHL1    C1 8666   1.912   5.980   7.116 -0.4330 -1.0493 -0.5842
   84CHL1   H1A 8667   1.823   6.031   7.159  0.1638 -0.0616 -0.5005
   84CHL1   H1B 8668   2.002   6.037   7.148 -0.5254 -0.0234 -2.0390
   84CHL1    C2 8669   1.907   6.006   6.962  0.5009 -0.4457  0.3355
   84CHL1   H2A 8670   1.902   6.115   6.943 -1.1856 -0.2796  1.5212
   84CHL1   H2B 8671   1.818   5.954   6.921  2.2892 -1.2867 -2.8002
   84CHL1   C20 8672   1.888   5.721   7.864 -0.2681 -0.2474  0.8453
   84CHL1   H20 8673   1.818   5.635   7.865 -0.1561 -0.4003 -0.6593
   84CHL1   C21 8674   1.792   5.840   7.879  0.2064 -0.4241 -0.1767
   84CHL1  H21A 8675   1.724   5.813   7.962  1.6057 -1.5674  0.6348
   84CHL1  H21B 8676   1.725   5.856   7.791 -1.0866 -1.9348  0.4861
   84CHL1  H21C 8677   1.840   5.938   7.899  2.2174 -1.6922  1.6728
   84CHL1   C22 8678   1.972   5.705   7.997 -0.3183 -0.4139  0.3317
   84CHL1  H22A 8679   2.036   5.618   7.969  3.3884  2.5360 -1.3427
   84CHL1  H22B 8680   2.026   5.802   7.997 -1.2971  0.1434  0.8715
   84CHL1   C23 8681   1.884   5.681   8.125 -0.1062 -0.1784 -0.3763
   84CHL1  H23A 8682   1.826   5.773   8.150  1.7283  0.2184  3.0279
   84CHL1  H23B 8683   1.803   5.615   8.088 -0.3573  0.4416 -0.9575
   84CHL1   C24 8684   1.954   5.631   8.252  0.4523 -0.0237  0.1590
   84CHL1  H24A 8685   1.995   5.528   8.242 -1.7657 -1.1213  1.6182
   84CHL1  H24B 8686   2.041   5.699   8.266  1.9938 -2.4075  3.5442
   84CHL1   C25 8687   1.875   5.634   8.377  1.0563  0.2227 -0.3087
   84CHL1   H25 8688   1.835   5.737   8.386  0.5172  0.0327 -0.5152
   84CHL1   C26 8689   1.749   5.544   8.380  0.3929 -0.8872 -0.4853
   84CHL1  H26A 8690   1.776   5.437   8.373  0.7157 -0.8624  0.2914
   84CHL1  H26B 8691   1.697   5.566   8.475  0.1808 -0.5893 -0.6677
   84CHL1  H26C 8692   1.682   5.563   8.293  0.6730 -0.3560 -0.5909
   84CHL1   C27 8693   1.962   5.581   8.489 -0.3116 -0.2517 -0.2512
   84CHL1  H27A 8694   2.057   5.638   8.495  0.5706 -1.1641 -3.4211
   84CHL1  H27B 8695   1.913   5.594   8.588  1.9203 -0.3798  0.9309
   84CHL1  H27C 8696   1.993   5.474   8.489 -1.2050 -0.5332  0.7327
   85CHL1    C3 8697   2.770   4.742   6.909 -0.4856  0.4038  0.2675
   85CHL1    H3 8698   2.877   4.724   6.933 -0.2461  0.8441 -0.4189
   85CHL1    O3 8699   2.750   4.726   6.765 -0.4166 -0.5126  0.0967
   85CHL1   H3' 8700   2.665   4.766   6.745 -0.0096 -0.2064 -1.1386
   85CHL1    C4 8701   2.685   4.645   6.990  0.3176  0.9290 -0.9180
   85CHL1   H4A 8702   2.582   4.658   6.949  0.5111  0.0565 -1.7217
   85CHL1   H4B 8703   2.726   4.544   6.965  1.7321  1.4580 -0.8146
   85CHL1    C5 8704   2.693   4.664   7.145 -0.8939 -1.1979  0.2233
   85CHL1    C6 8705   2.716   4.560   7.234 -0.0863  0.9223  0.1659
   85CHL1    H6 8706   2.744   4.459   7.203  0.3624  1.0739  0.0650
   85CHL1    C7 8707   2.708   4.571   7.385 -0.0576  0.0128  0.2021
   85CHL1   H7A 8708   2.642   4.492   7.426 -2.1723  1.9027  0.6986
   85CHL1   H7B 8709   2.808   4.564   7.432  0.2387 -1.6872 -0.6167
   85CHL1    C8 8710   2.638   4.706   7.424 -0.0592  0.1682 -0.4676
   85CHL1    H8 8711   2.529   4.695   7.404 -0.3592 -0.2171  1.2263
   85CHL1   C14 8712   2.656   4.741   7.572 -0.4478 -0.5915 -0.1726
   85CHL1   H14 8713   2.765   4.762   7.584 -0.5349  0.1006 -0.4995
   85CHL1   C15 8714   2.625   4.627   7.669  0.0388  0.4438 -1.2369
   85CHL1  H15A 8715   2.525   4.586   7.645  0.5349 -1.7047  0.1064
   85CHL1  H15B 8716   2.698   4.543   7.665  0.0699  0.4451 -0.7060
   85CHL1   C16 8717   2.613   4.703   7.804 -0.4849  0.1478  0.0006
   85CHL1  H16A 8718   2.512   4.693   7.848 -0.6416 -1.0594 -0.5791
   85CHL1  H16B 8719   2.686   4.672   7.882 -1.9201 -0.2756  1.2103
   85CHL1   C17 8720   2.644   4.857   7.775  0.4352 -0.1246 -0.2731
   85CHL1   H17 8721   2.753   4.880   7.779  0.7883 -1.5875 -1.0692
   85CHL1   C13 8722   2.601   4.872   7.627  0.6676 -0.3202  0.3356
   85CHL1   C18 8723   2.449   4.880   7.613  0.7194 -0.1142  0.2982
   85CHL1  H18A 8724   2.398   4.964   7.664 -0.8605 -1.0751  0.3591
   85CHL1  H18B 8725   2.416   4.890   7.507 -1.6372 -2.1881  0.7405
   85CHL1  H18C 8726   2.398   4.787   7.646  0.5079  0.2865  1.1322
   85CHL1   C12 8727   2.669   4.986   7.544  0.6152  0.7189  0.7533
   85CHL1  H12A 8728   2.637   5.088   7.575 -0.2284  0.2938  1.3242
   85CHL1  H12B 8729   2.780   4.990   7.550  0.5931  0.4084  1.4136
   85CHL1   C11 8730   2.642   4.960   7.389 -0.6735 -0.5274  0.7039
   85CHL1  H11A 8731   2.533   4.972   7.370 -0.2273 -1.0315 -2.7825
   85CHL1  H11B 8732   2.701   5.034   7.331 -1.9608  0.0115  0.0602
   85CHL1    C9 8733   2.686   4.824   7.335 -0.5575 -0.4154 -0.4697
   85CHL1    H9 8734   2.796   4.830   7.354 -0.5211 -1.6660 -0.2267
   85CHL1   C10 8735   2.658   4.808   7.186  0.6106 -0.5090 -1.2678
   85CHL1   C19 8736   2.509   4.839   7.157 -1.0347  0.1790 -0.6176
   85CHL1  H19A 8737   2.492   4.948   7.171  0.1681  0.3148 -0.1155
   85CHL1  H19B 8738   2.464   4.804   7.062 -1.5665  1.6364 -0.9222
   85CHL1  H19C 8739   2.448   4.780   7.229 -1.1436  0.9800 -0.0338
   85CHL1    C1 8740   2.751   4.902   7.104  0.2580  0.5709 -0.3105
   85CHL1   H1A 8741   2.727   5.009   7.123  2.7904  0.9222  1.3293
   85CHL1   H1B 8742   2.853   4.891   7.145 -0.9559  0.7141  3.0565
   85CHL1    C2 8743   2.748   4.884   6.947  0.2383  0.1342  0.0564
   85CHL1   H2A 8744   2.823   4.946   6.893  0.3533 -0.1359 -0.0954
   85CHL1   H2B 8745   2.647   4.901   6.905  0.2932  1.2456  0.3409
   85CHL1   C20 8746   2.581   4.950   7.884  0.4655  0.5182  0.1149
   85CHL1   H20 8747   2.471   4.936   7.882 -0.2114  4.3396  1.5118
   85CHL1   C21 8748   2.612   5.093   7.861  0.5731  0.4570 -0.2541
   85CHL1  H21A 8749   2.582   5.155   7.949  2.8723  0.7924  0.3409
   85CHL1  H21B 8750   2.554   5.127   7.772 -1.1559  0.0928  0.6790
   85CHL1  H21C 8751   2.721   5.108   7.845  0.8108 -1.3348 -0.5308
   85CHL1   C22 8752   2.627   4.910   8.033  0.6874 -1.0658 -0.1119
   85CHL1  H22A 8753   2.608   4.802   8.051  0.6186 -1.0586 -0.1476
   85CHL1  H22B 8754   2.734   4.936   8.052  0.5048  0.3894 -0.9478
   85CHL1   C23 8755   2.553   4.981   8.151 -0.4802  0.2533  0.2754
   85CHL1  H23A 8756   2.557   5.092   8.150 -3.5768  0.4502  0.0468
   85CHL1  H23B 8757   2.445   4.963   8.132 -0.3328  1.4271 -1.9921
   85CHL1   C24 8758   2.582   4.916   8.288  0.1527 -0.7697  0.0828
   85CHL1  H24A 8759   2.563   4.807   8.282 -0.1624 -0.6891 -0.4109
   85CHL1  H24B 8760   2.689   4.932   8.313 -0.2104  0.2765  1.1101
   85CHL1   C25 8761   2.496   4.971   8.400 -0.4127 -0.6528 -0.4250
   85CHL1   H25 8762   2.391   4.973   8.362 -0.6775 -0.2253  0.3145
   85CHL1   C26 8763   2.503   4.870   8.519  0.3469 -0.7031  0.0093
   85CHL1  H26A 8764   2.478   4.765   8.490  0.1016 -0.3908 -0.9396
   85CHL1  H26B 8765   2.609   4.854   8.548 -0.1287 -1.1808  1.5909
   85CHL1  H26C 8766   2.441   4.900   8.606  0.1684  0.9587 -0.6558
   85CHL1   C27 8767   2.534   5.119   8.443 -0.2698 -0.1826 -0.0156
   85CHL1  H27A 8768   2.641   5.124   8.470 -0.3630 -0.4032  0.4102
   85CHL1  H27B 8769   2.514   5.185   8.356  2.3445 -0.7528 -1.1328
   85CHL1  H27C 8770   2.477   5.148   8.534  0.0343  2.1310 -0.5167
   86CHL1    C3 8771   1.022   0.903   7.115 -0.4004  0.0475 -0.2455
   86CHL1    H3 8772   1.072   1.002   7.124 -3.3196  1.6236 -0.1401
   86CHL1    O3 8773   0.978   0.874   6.977 -0.1915  0.3490 -0.7002
   86CHL1   H3' 8774   0.886   0.894   6.960 -0.6824 -1.8476 -0.8510
   86CHL1    C4 8775   1.121   0.796   7.161 -0.4169 -0.0454 -0.7460
   86CHL1   H4A 8776   1.075   0.699   7.132  0.6806  0.1803 -3.5406
   86CHL1   H4B 8777   1.210   0.804   7.095  0.0238 -1.2125 -0.3199
   86CHL1    C5 8778   1.150   0.796   7.307 -0.9566 -0.0923  0.4794
   86CHL1    C6 8779   1.275   0.822   7.347 -0.0494  0.3965 -0.1322
   86CHL1    H6 8780   1.353   0.823   7.270 -1.0817 -1.0987 -1.2805
   86CHL1    C7 8781   1.310   0.834   7.492 -0.2572  0.8375  0.1085
   86CHL1   H7A 8782   1.401   0.782   7.527 -0.5691  0.0238 -0.2790
   86CHL1   H7B 8783   1.332   0.939   7.522 -0.5848  0.5546  1.4160
   86CHL1    C8 8784   1.194   0.782   7.590 -0.5338 -0.1973 -0.1560
   86CHL1    H8 8785   1.199   0.671   7.586  0.7386 -0.1330 -2.0847
   86CHL1   C14 8786   1.219   0.819   7.738  1.0682  0.1532  0.9998
   86CHL1   H14 8787   1.220   0.930   7.746  0.1130  0.4398 -1.9792
   86CHL1   C15 8788   1.351   0.780   7.798 -0.3348 -0.2578 -0.2897
   86CHL1  H15A 8789   1.363   0.671   7.783 -0.3160 -0.0921 -1.5491
   86CHL1  H15B 8790   1.438   0.838   7.761 -0.2589  0.4629  0.9675
   86CHL1   C16 8791   1.331   0.799   7.952  0.2186  0.3470  0.9148
   86CHL1  H16A 8792   1.367   0.707   8.004  3.0589  0.2572 -0.9923
   86CHL1  H16B 8793   1.393   0.888   7.974  0.2496  0.9124 -1.2497
   86CHL1   C17 8794   1.179   0.827   7.972  0.1097 -0.7984  0.0474
   86CHL1   H17 8795   1.173   0.938   7.970  0.5652 -0.7760 -0.3906
   86CHL1   C13 8796   1.119   0.774   7.841 -0.3093  0.2216  0.1728
   86CHL1   C18 8797   1.112   0.618   7.853 -0.0971 -0.1906 -0.6623
   86CHL1  H18A 8798   1.212   0.574   7.875  0.4128  1.3722  0.2441
   86CHL1  H18B 8799   1.035   0.595   7.929 -0.8537  0.8717 -1.0874
   86CHL1  H18C 8800   1.074   0.567   7.762 -1.1216 -0.5603 -0.0456
   86CHL1   C12 8801   0.979   0.830   7.804  0.3137  0.5542 -0.3324
   86CHL1  H12A 8802   0.906   0.771   7.864  0.8905 -0.6860 -0.8457
   86CHL1  H12B 8803   0.975   0.940   7.822  1.5541  0.9945 -2.4563
   86CHL1   C11 8804   0.946   0.807   7.650 -0.0080 -0.3072 -0.5053
   86CHL1  H11A 8805   0.914   0.701   7.650 -2.9772  0.4875  0.3449
   86CHL1  H11B 8806   0.861   0.871   7.619 -1.8384 -1.6669  1.4235
   86CHL1    C9 8807   1.061   0.830   7.544 -0.6045 -0.9026  0.3904
   86CHL1    H9 8808   1.078   0.940   7.546  1.3195 -0.9528 -3.8694
   86CHL1   C10 8809   1.027   0.787   7.396 -0.5216  0.1437 -0.4389
   86CHL1   C19 8810   0.967   0.652   7.389 -0.0230  0.6620 -0.2781
   86CHL1  H19A 8811   0.964   0.616   7.284 -5.0030 -0.0108 -0.1540
   86CHL1  H19B 8812   1.019   0.580   7.455 -3.3258  1.3383  3.4705
   86CHL1  H19C 8813   0.861   0.651   7.425  0.0085 -1.6795 -0.0623
   86CHL1    C1 8814   0.930   0.901   7.349  0.4729  0.0862 -0.2876
   86CHL1   H1A 8815   0.840   0.900   7.414 -0.5225 -0.8850 -1.6309
   86CHL1   H1B 8816   0.990   0.993   7.368  0.2270 -0.2344  2.3565
   86CHL1    C2 8817   0.891   0.898   7.201  0.0414  0.3150 -0.3663
   86CHL1   H2A 8818   0.832   0.988   7.176  1.4009  1.4893  0.4631
   86CHL1   H2B 8819   0.840   0.805   7.170  1.8305 -1.0842  0.6608
   86CHL1   C20 8820   1.129   0.779   8.103  0.1762  0.2915 -0.8295
   86CHL1   H20 8821   1.112   0.670   8.103 -2.0894  0.5929 -2.2023
   86CHL1   C21 8822   0.978   0.823   8.131  0.4414  0.0024 -0.1473
   86CHL1  H21A 8823   0.901   0.791   8.057  1.9804 -2.3863 -0.8412
   86CHL1  H21B 8824   0.974   0.931   8.157 -0.4178 -0.1548  0.4139
   86CHL1  H21C 8825   0.958   0.782   8.233 -0.0084  2.3549  0.7712
   86CHL1   C22 8826   1.218   0.801   8.230  0.0459 -0.0888 -0.5181
   86CHL1  H22A 8827   1.148   0.788   8.315  0.4977  0.0737 -0.1217
   86CHL1  H22B 8828   1.302   0.730   8.248  1.0181  1.5530  1.9445
   86CHL1   C23 8829   1.263   0.949   8.259  0.4794 -0.2357 -0.4690
   86CHL1  H23A 8830   1.350   0.967   8.193  0.7939 -0.5980 -0.1586
   86CHL1  H23B 8831   1.177   1.009   8.223  0.6139 -0.2313 -0.7878
   86CHL1   C24 8832   1.321   0.975   8.396  1.2771 -0.6435  0.5809
   86CHL1  H24A 8833   1.366   0.881   8.434  0.8443  0.3582  3.8842
   86CHL1  H24B 8834   1.395   1.058   8.402  0.5049  0.0275  1.1057
   86CHL1   C25 8835   1.220   1.015   8.502 -0.0945 -0.2171 -1.0617
   86CHL1   H25 8836   1.150   0.929   8.515 -0.6842  0.3360 -0.4557
   86CHL1   C26 8837   1.297   1.040   8.630 -0.7818 -0.5521  0.2029
   86CHL1  H26A 8838   1.224   1.040   8.714  0.1354 -0.1364  1.0192
   86CHL1  H26B 8839   1.370   0.959   8.651  0.3950  0.3432 -0.3183
   86CHL1  H26C 8840   1.344   1.141   8.632  0.0048 -0.8871 -0.8053
   86CHL1   C27 8841   1.132   1.140   8.465 -0.3220  0.0996 -0.4955
   86CHL1  H27A 8842   1.062   1.172   8.546  1.9855 -0.8737  2.0501
   86CHL1  H27B 8843   1.202   1.219   8.429 -0.5255  0.6460  0.2526
   86CHL1  H27C 8844   1.069   1.116   8.377 -0.5539 -1.1348 -0.0074
   87CHL1    C3 8845   5.903   0.195   6.922 -0.4235  0.2859 -0.0727
   87CHL1    H3 8846   5.983   0.134   6.968  2.2969  1.6300 -2.6781
   87CHL1    O3 8847   5.920   0.202   6.785 -0.0523 -0.1918  0.0099
   87CHL1   H3' 8848   5.853   0.261   6.749 -0.5199 -0.6162  0.1694
   87CHL1    C4 8849   5.759   0.145   6.952  0.4104  0.0726 -0.6176
   87CHL1   H4A 8850   5.667   0.198   6.920  0.5980  2.2733  2.0866
   87CHL1   H4B 8851   5.751   0.044   6.906 -0.8597 -0.4211  0.5831
   87CHL1    C5 8852   5.739   0.128   7.102 -0.7482 -0.2103 -0.5529
   87CHL1    C6 8853   5.703   0.013   7.154 -0.7940 -0.2887  0.1122
   87CHL1    H6 8854   5.696  -0.073   7.086 -0.1441 -1.3862  1.3892
   87CHL1    C7 8855   5.661  -0.001   7.302  0.1861 -0.5434  0.2365
   87CHL1   H7A 8856   5.566  -0.058   7.308  0.5179 -1.2143 -0.6270
   87CHL1   H7B 8857   5.735  -0.065   7.355  0.3962 -1.6382 -1.2783
   87CHL1    C8 8858   5.643   0.141   7.364  0.6231 -0.0842 -0.7176
   87CHL1    H8 8859   5.554   0.180   7.311  0.4637 -1.9781 -1.9129
   87CHL1   C14 8860   5.616   0.130   7.511  0.2101  0.3872  0.0321
   87CHL1   H14 8861   5.703   0.072   7.550  0.9695  0.6473 -1.2323
   87CHL1   C15 8862   5.488   0.053   7.545 -0.2966  0.0507 -0.7362
   87CHL1  H15A 8863   5.398   0.097   7.498  0.3460 -2.2953 -4.5675
   87CHL1  H15B 8864   5.520  -0.048   7.512  0.3698  0.5541 -1.6642
   87CHL1   C16 8865   5.479   0.089   7.696  0.0476 -0.0276  0.1246
   87CHL1  H16A 8866   5.382   0.135   7.721  0.2834 -1.2195  3.8690
   87CHL1  H16B 8867   5.486  -0.002   7.760  1.1281  1.1419  1.7360
   87CHL1   C17 8868   5.594   0.194   7.732 -1.0998  0.6641  0.5232
   87CHL1   H17 8869   5.680   0.128   7.755 -0.8800  0.4201 -0.8698
   87CHL1   C13 8870   5.616   0.258   7.594 -0.0930  0.1324  0.1944
   87CHL1   C18 8871   5.506   0.355   7.541 -0.3196 -0.4457 -0.5614
   87CHL1  H18A 8872   5.513   0.391   7.437 -2.0186 -0.4088 -0.6962
   87CHL1  H18B 8873   5.406   0.313   7.566 -0.1520 -0.9667 -0.7561
   87CHL1  H18C 8874   5.519   0.450   7.597  1.5997 -0.9782 -0.0230
   87CHL1   C12 8875   5.750   0.329   7.582  0.5332  0.2261  0.0064
   87CHL1  H12A 8876   5.742   0.422   7.642  1.3780 -0.6201  1.4838
   87CHL1  H12B 8877   5.836   0.274   7.627  1.3029 -0.4905 -2.1926
   87CHL1   C11 8878   5.782   0.361   7.434 -0.7984  0.2570 -0.1309
   87CHL1  H11A 8879   5.719   0.447   7.405 -0.3613  0.9139  0.8186
   87CHL1  H11B 8880   5.890   0.386   7.430 -0.2778 -1.2216  2.2936
   87CHL1    C9 8881   5.758   0.237   7.338 -0.3905  0.2119 -0.9415
   87CHL1    H9 8882   5.848   0.177   7.364  0.0327  1.1929 -0.0884
   87CHL1   C10 8883   5.760   0.257   7.187 -0.5494 -0.4626  0.6907
   87CHL1   C19 8884   5.653   0.364   7.153 -0.7821  0.2271 -0.0390
   87CHL1  H19A 8885   5.550   0.324   7.167 -0.2650 -1.7994 -1.5087
   87CHL1  H19B 8886   5.672   0.456   7.212 -1.2735  0.2052  0.1557
   87CHL1  H19C 8887   5.658   0.385   7.044  2.9844  0.8307  0.1199
   87CHL1    C1 8888   5.901   0.315   7.138  0.4491 -0.6988 -0.7043
   87CHL1   H1A 8889   5.909   0.411   7.194 -1.1219  0.0703 -1.7550
   87CHL1   H1B 8890   5.967   0.243   7.193  0.6983 -0.0982 -0.1937
   87CHL1    C2 8891   5.917   0.329   6.987  0.1118 -1.1069  0.4095
   87CHL1   H2A 8892   6.017   0.372   6.965 -0.9993  1.3302 -0.2274
   87CHL1   H2B 8893   5.836   0.390   6.941  0.7552 -0.1510  0.5183
   87CHL1   C20 8894   5.579   0.279   7.857  0.3071 -0.3169  0.2976
   87CHL1   H20 8895   5.676   0.331   7.871  0.2856 -0.2122  0.0615
   87CHL1   C21 8896   5.541   0.178   7.968  0.0208  0.0091 -0.1592
   87CHL1  H21A 8897   5.538   0.224   8.069  2.9208 -0.4499  0.2149
   87CHL1  H21B 8898   5.611   0.092   7.978 -0.9247 -0.7191  0.4131
   87CHL1  H21C 8899   5.439   0.143   7.941  0.4001 -2.5619  1.3760
   87CHL1   C22 8900   5.476   0.403   7.853  0.5621  0.0436 -1.0269
   87CHL1  H22A 8901   5.528   0.487   7.802  0.1804  1.7999  1.3020
   87CHL1  H22B 8902   5.384   0.375   7.799  0.3318  0.5251 -0.8904
   87CHL1   C23 8903   5.432   0.463   7.992  0.1335 -0.0041 -0.5292
   87CHL1  H23A 8904   5.377   0.379   8.040  1.8504  0.4052  2.3469
   87CHL1  H23B 8905   5.521   0.473   8.058 -1.5511  0.4293  1.8240
   87CHL1   C24 8906   5.351   0.586   7.989 -0.1350 -0.5134 -0.6859
   87CHL1  H24A 8907   5.408   0.672   7.949  3.3598 -1.0357  2.6458
   87CHL1  H24B 8908   5.260   0.566   7.929 -0.9835 -0.7938  0.6508
   87CHL1   C25 8909   5.299   0.626   8.129 -0.1554  0.6169 -0.2013
   87CHL1   H25 8910   5.254   0.539   8.181 -0.4766  0.1651 -1.2243
   87CHL1   C26 8911   5.401   0.687   8.222 -0.5853 -0.1108 -0.1652
   87CHL1  H26A 8912   5.437   0.789   8.198  0.9835 -0.9482 -1.5905
   87CHL1  H26B 8913   5.358   0.706   8.322  1.9555  1.5877  0.7149
   87CHL1  H26C 8914   5.485   0.614   8.232 -0.3751  0.1497 -0.0211
   87CHL1   C27 8915   5.179   0.720   8.119  0.3336 -0.5192 -0.4373
   87CHL1  H27A 8916   5.168   0.775   8.215 -0.4577 -0.9583 -0.2753
   87CHL1  H27B 8917   5.209   0.792   8.040  0.9698  0.5833  0.7666
   87CHL1  H27C 8918   5.081   0.669   8.112  0.0741 -0.5459  2.3263
   88CHL1    C3 8919   1.054   3.240   6.966  0.0330 -0.6669 -0.1241
   88CHL1    H3 8920   0.985   3.154   6.974 -0.1312 -0.5956 -0.6931
   88CHL1    O3 8921   1.108   3.242   6.836 -0.2264  0.2610  0.3165
   88CHL1   H3' 8922   1.037   3.230   6.773  1.4742 -2.9220 -1.2583
   88CHL1    C4 8923   0.976   3.366   6.988 -0.2966 -0.4987 -0.2891
   88CHL1   H4A 8924   1.036   3.451   6.948  1.3396 -1.9874 -1.1239
   88CHL1   H4B 8925   0.887   3.359   6.921  0.4117 -0.3420 -1.2788
   88CHL1    C5 8926   0.943   3.388   7.134  0.0145  0.2680  0.5616
   88CHL1    C6 8927   0.823   3.421   7.181 -0.1820 -0.2550  0.1895
   88CHL1    H6 8928   0.742   3.437   7.108 -0.6355  1.2261  0.9740
   88CHL1    C7 8929   0.790   3.454   7.323 -0.5644  0.8648  0.3221
   88CHL1   H7A 8930   0.742   3.554   7.318  0.2670  1.3399  1.4495
   88CHL1   H7B 8931   0.721   3.376   7.363 -0.0403 -0.4592 -1.2555
   88CHL1    C8 8932   0.922   3.473   7.413  0.4839  0.1649 -1.2540
   88CHL1    H8 8933   0.961   3.573   7.386  1.8241  0.3467  1.0986
   88CHL1   C14 8934   0.885   3.476   7.563  0.1262  0.8513  0.9553
   88CHL1   H14 8935   0.841   3.374   7.568 -0.7756  1.1099 -0.9363
   88CHL1   C15 8936   0.777   3.565   7.609  0.2173 -0.7388 -0.2041
   88CHL1  H15A 8937   0.784   3.661   7.552 -0.7229 -0.9905 -0.7642
   88CHL1  H15B 8938   0.681   3.522   7.574  0.4862 -2.2481  0.8554
   88CHL1   C16 8939   0.797   3.576   7.758 -0.0173  0.5266 -0.1400
   88CHL1  H16A 8940   0.826   3.682   7.774  1.3854 -0.0065  1.0487
   88CHL1  H16B 8941   0.714   3.550   7.827 -1.4115  3.2381 -0.6314
   88CHL1   C17 8942   0.914   3.480   7.794 -0.0994  0.1814 -0.2173
   88CHL1   H17 8943   0.865   3.381   7.809  0.5982  0.0866  1.6717
   88CHL1   C13 8944   0.996   3.471   7.666  0.3667 -0.4069 -0.3762
   88CHL1   C18 8945   1.073   3.608   7.648  0.8922  0.3800  0.1718
   88CHL1  H18A 8946   1.012   3.693   7.685  0.1730  0.7006 -1.6572
   88CHL1  H18B 8947   1.170   3.617   7.701 -0.0421  0.5675  1.9120
   88CHL1  H18C 8948   1.103   3.627   7.542  0.3724  2.7111  0.3743
   88CHL1   C12 8949   1.094   3.352   7.636 -0.1983  0.3644  0.4675
   88CHL1  H12A 8950   1.177   3.355   7.710 -0.4483  1.8152  0.7063
   88CHL1  H12B 8951   1.037   3.259   7.658  1.3723 -0.3848  1.6167
   88CHL1   C11 8952   1.129   3.355   7.486 -0.1283 -0.7875 -0.4981
   88CHL1  H11A 8953   1.197   3.441   7.470  0.7883 -1.5142 -0.6156
   88CHL1  H11B 8954   1.204   3.274   7.471  1.3555  0.7245 -1.5900
   88CHL1    C9 8955   1.018   3.358   7.379  0.5298 -0.2177 -0.3369
   88CHL1    H9 8956   0.954   3.269   7.394 -0.0332  0.0474 -1.1234
   88CHL1   C10 8957   1.059   3.365   7.235  0.1615 -0.1311 -0.6910
   88CHL1   C19 8958   1.165   3.483   7.216 -0.6294 -0.9979  0.9181
   88CHL1  H19A 8959   1.254   3.462   7.280 -1.2369 -4.3320  0.8506
   88CHL1  H19B 8960   1.190   3.503   7.110  0.0505  0.5119  1.3340
   88CHL1  H19C 8961   1.121   3.580   7.246  0.4683 -0.7886  1.9616
   88CHL1    C1 8962   1.129   3.233   7.204 -0.2457  0.7535  1.0169
   88CHL1   H1A 8963   1.221   3.219   7.264  1.0006  0.1180 -0.9494
   88CHL1   H1B 8964   1.059   3.149   7.226 -1.8972  1.7310 -0.2030
   88CHL1    C2 8965   1.170   3.235   7.056  0.6401  0.0995 -0.1831
   88CHL1   H2A 8966   1.227   3.143   7.034  3.7161  1.8522 -0.0730
   88CHL1   H2B 8967   1.255   3.303   7.032 -0.7691  0.7168 -4.3977
   88CHL1   C20 8968   0.987   3.501   7.926  0.2060  0.2298  0.4857
   88CHL1   H20 8969   1.087   3.547   7.909 -0.2648  0.9255 -0.5149
   88CHL1   C21 8970   1.014   3.364   7.988 -0.1992 -0.3954  0.3629
   88CHL1  H21A 8971   0.917   3.317   8.018  0.1353 -0.0867  2.0171
   88CHL1  H21B 8972   1.071   3.367   8.083 -0.8435 -3.2260  0.9526
   88CHL1  H21C 8973   1.073   3.292   7.928  0.6507  0.0164  0.6808
   88CHL1   C22 8974   0.916   3.593   8.032 -0.2866  0.2719  0.9187
   88CHL1  H22A 8975   0.887   3.691   7.989 -1.5140  0.2135  1.5629
   88CHL1  H22B 8976   0.821   3.543   8.062  0.6066 -2.0092  0.1652
   88CHL1   C23 8977   1.012   3.625   8.146 -0.3876 -0.0325 -1.5652
   88CHL1  H23A 8978   1.024   3.533   8.208  0.2181  1.3087  0.4214
   88CHL1  H23B 8979   1.108   3.676   8.122 -0.9627  1.4701 -0.7997
   88CHL1   C24 8980   0.944   3.725   8.243  0.8231  0.1722  0.3205
   88CHL1  H24A 8981   0.903   3.810   8.184  0.4944 -0.9004 -1.0310
   88CHL1  H24B 8982   0.860   3.681   8.300 -1.4867  0.9614 -2.2641
   88CHL1   C25 8983   1.038   3.780   8.352 -0.0362 -1.0407  0.3041
   88CHL1   H25 8984   0.983   3.856   8.411 -0.3903 -1.0168 -0.0567
   88CHL1   C26 8985   1.097   3.666   8.439  0.1359 -0.4246  0.5922
   88CHL1  H26A 8986   1.167   3.713   8.512 -1.6283 -0.4815  2.4040
   88CHL1  H26B 8987   1.024   3.609   8.500 -0.4592 -1.1234 -0.7456
   88CHL1  H26C 8988   1.150   3.593   8.375 -1.0922 -2.2515  1.5794
   88CHL1   C27 8989   1.159   3.859   8.297 -0.2220 -0.3829  0.4909
   88CHL1  H27A 8990   1.219   3.893   8.384  0.4678  5.3056 -1.7562
   88CHL1  H27B 8991   1.236   3.798   8.244  2.1987 -0.4352  3.7140
   88CHL1  H27C 8992   1.130   3.935   8.222 -1.6884  0.0116  1.4362
   89CHL1    C3 8993   4.296   3.088   7.019  0.8201 -0.3154 -0.1558
   89CHL1    H3 8994   4.280   2.978   7.018 -0.3730 -0.1583 -1.5651
   89CHL1    O3 8995   4.277   3.138   6.891  0.4598 -0.1004 -0.3229
   89CHL1   H3' 8996   4.233   3.223   6.901  0.1417 -0.1113 -1.4808
   89CHL1    C4 8997   4.184   3.156   7.109  0.5731  0.7666 -0.0578
   89CHL1   H4A 8998   4.198   3.264   7.090  1.3994  0.4691 -1.2430
   89CHL1   H4B 8999   4.089   3.119   7.064  1.0870  1.0544 -1.4138
   89CHL1    C5 9000   4.196   3.127   7.257 -0.3724  0.1097  0.3433
   89CHL1    C6 9001   4.094   3.078   7.326 -0.4860  0.2175 -0.0944
   89CHL1    H6 9002   4.001   3.055   7.272 -0.3897  0.6545 -0.4544
   89CHL1    C7 9003   4.095   3.057   7.475 -0.1794  0.0592  0.1414
   89CHL1   H7A 9004   4.011   3.108   7.529  1.6136  1.4503  1.7648
   89CHL1   H7B 9005   4.084   2.953   7.512 -1.3633 -0.5386 -1.7398
   89CHL1    C8 9006   4.225   3.124   7.548  0.3891  0.3738 -0.3328
   89CHL1    H8 9007   4.196   3.231   7.554 -0.6940  0.2716 -2.6147
   89CHL1   C14 9008   4.245   3.071   7.691 -0.5733  0.2952  0.0246
   89CHL1   H14 9009   4.264   2.961   7.684 -0.0232  0.1645  2.7032
   89CHL1   C15 9010   4.125   3.088   7.780  0.0874  0.4359 -0.8931
   89CHL1  H15A 9011   4.073   3.186   7.776  1.3763  1.5171  3.5791
   89CHL1  H15B 9012   4.047   3.009   7.766  2.0729 -1.7316 -0.3652
   89CHL1   C16 9013   4.189   3.071   7.919 -0.0886  0.0390  0.1234
   89CHL1  H16A 9014   4.167   3.161   7.982 -1.2125 -0.3451  0.3108
   89CHL1  H16B 9015   4.151   2.994   7.989 -0.4125  2.0827  2.3395
   89CHL1   C17 9016   4.337   3.069   7.894  0.8917 -0.1337 -0.0038
   89CHL1   H17 9017   4.347   2.959   7.882 -1.6507 -0.4192 -0.1181
   89CHL1   C13 9018   4.358   3.136   7.763 -0.1336 -0.3385 -0.0627
   89CHL1   C18 9019   4.345   3.291   7.791 -0.3795  0.4327 -1.0033
   89CHL1  H18A 9020   4.269   3.312   7.869  2.3826 -1.1854  2.4221
   89CHL1  H18B 9021   4.431   3.343   7.839 -0.8972  0.5219 -0.1536
   89CHL1  H18C 9022   4.319   3.347   7.699  0.1853  2.2324 -0.1315
   89CHL1   C12 9023   4.485   3.099   7.681  0.7165  0.6398  1.6672
   89CHL1  H12A 9024   4.569   3.148   7.735  0.0880  1.3544  2.0179
   89CHL1  H12B 9025   4.485   2.988   7.690 -0.4533  0.6469  1.9458
   89CHL1   C11 9026   4.479   3.144   7.536  0.7370 -0.0339  0.4159
   89CHL1  H11A 9027   4.475   3.254   7.546 -0.4717  0.0031 -0.2732
   89CHL1  H11B 9028   4.569   3.117   7.476 -0.6516  1.1942 -2.4183
   89CHL1    C9 9029   4.349   3.097   7.466 -0.8877 -0.1681 -0.4538
   89CHL1    H9 9030   4.362   2.987   7.463 -0.3977 -0.0962 -1.6213
   89CHL1   C10 9031   4.341   3.147   7.314  0.1583  0.5209  0.7511
   89CHL1   C19 9032   4.357   3.299   7.321 -0.0853 -0.0220 -0.3778
   89CHL1  H19A 9033   4.461   3.334   7.340 -1.2324  3.4910  0.1348
   89CHL1  H19B 9034   4.324   3.357   7.232 -0.1980  1.0594  0.3569
   89CHL1  H19C 9035   4.288   3.330   7.402  2.0339 -2.2861  2.4759
   89CHL1    C1 9036   4.447   3.077   7.217  0.3523  0.6345 -0.6216
   89CHL1   H1A 9037   4.551   3.083   7.256 -0.0886  1.0874  0.5419
   89CHL1   H1B 9038   4.424   2.968   7.220 -0.3380  0.7410 -1.7711
   89CHL1    C2 9039   4.439   3.114   7.071 -0.0778  0.8453  0.6534
   89CHL1   H2A 9040   4.511   3.053   7.012  1.8154  2.7629  0.8739
   89CHL1   H2B 9041   4.455   3.221   7.049  1.4007  0.5257  0.0578
   89CHL1   C20 9042   4.422   3.114   8.013 -0.5642 -0.2061  0.2313
   89CHL1   H20 9043   4.409   3.224   8.020  0.1233 -0.0557 -0.6694
   89CHL1   C21 9044   4.573   3.088   7.995 -0.3560 -0.0295 -1.0926
   89CHL1  H21A 9045   4.625   3.099   8.093  1.0106  3.3472 -2.0501
   89CHL1  H21B 9046   4.611   3.170   7.930  0.9140  0.5749  0.3334
   89CHL1  H21C 9047   4.579   2.983   7.960 -4.3356 -0.5915 -0.5101
   89CHL1   C22 9048   4.382   3.051   8.153  0.0357  0.0660 -0.0736
   89CHL1  H22A 9049   4.458   3.101   8.217 -0.4447  1.2064 -0.3705
   89CHL1  H22B 9050   4.276   3.075   8.175  0.3004  0.3116  0.9698
   89CHL1   C23 9051   4.391   2.898   8.168  0.3140 -0.6173 -0.7671
   89CHL1  H23A 9052   4.335   2.855   8.081 -0.5657  0.0371 -0.5426
   89CHL1  H23B 9053   4.494   2.860   8.156 -0.1184 -2.7713  1.5222
   89CHL1   C24 9054   4.332   2.837   8.304 -0.6009 -0.0909  0.6166
   89CHL1  H24A 9055   4.414   2.841   8.379 -0.9447  1.2180  0.9512
   89CHL1  H24B 9056   4.250   2.896   8.352 -1.7160 -0.5783 -0.6240
   89CHL1   C25 9057   4.286   2.695   8.286  0.8628  0.1275  0.3828
   89CHL1   H25 9058   4.238   2.676   8.188  0.8588 -3.7367  0.9522
   89CHL1   C26 9059   4.409   2.603   8.294 -0.4384 -0.3800  0.9262
   89CHL1  H26A 9060   4.473   2.640   8.211 -0.6161 -1.4792  0.2698
   89CHL1  H26B 9061   4.457   2.605   8.394  1.9002  2.7428 -0.0837
   89CHL1  H26C 9062   4.385   2.496   8.276 -0.1469 -0.3372  0.2360
   89CHL1   C27 9063   4.182   2.640   8.389  0.2536 -0.4233  0.8336
   89CHL1  H27A 9064   4.170   2.532   8.364 -0.9240 -0.1932  0.3601
   89CHL1  H27B 9065   4.217   2.653   8.494  1.3614  1.5469  0.2628
   89CHL1  H27C 9066   4.082   2.687   8.389  0.7568  0.8248 -1.6979
   90CHL1    C3 9067   5.611   6.285   6.871 -0.3305  0.0574  0.3672
   90CHL1    H3 9068   5.618   6.395   6.861  0.5038  0.0656  0.9237
   90CHL1    O3 9069   5.630   6.228   6.744 -0.0947  0.4719  0.2320
   90CHL1   H3' 9070   5.645   6.136   6.768 -0.3084  0.2392 -0.5161
   90CHL1    C4 9071   5.733   6.245   6.959  0.6668  0.1867  0.1258
   90CHL1   H4A 9072   5.742   6.134   6.972  1.4420 -0.1031 -2.4109
   90CHL1   H4B 9073   5.826   6.282   6.910 -1.4026  3.2725 -1.7561
   90CHL1    C5 9074   5.708   6.304   7.097  0.0042 -0.0548 -0.2284
   90CHL1    C6 9075   5.798   6.389   7.141  0.5986  0.0255 -0.3897
   90CHL1    H6 9076   5.890   6.409   7.085  1.6945  0.1931  1.4096
   90CHL1    C7 9077   5.792   6.457   7.269 -0.1273  0.2628 -1.3223
   90CHL1   H7A 9078   5.893   6.454   7.314 -1.0913  1.3120  1.0953
   90CHL1   H7B 9079   5.767   6.565   7.268  0.5981  0.7089  3.6807
   90CHL1    C8 9080   5.692   6.393   7.374  0.2014 -0.2324 -0.2261
   90CHL1    H8 9081   5.734   6.291   7.389 -2.7549 -1.5542 -0.0738
   90CHL1   C14 9082   5.665   6.473   7.498 -0.7531 -0.1443 -0.2900
   90CHL1   H14 9083   5.639   6.578   7.475  2.3559  1.2230  1.7411
   90CHL1   C15 9084   5.793   6.506   7.589 -0.0681  0.6203  0.6445
   90CHL1  H15A 9085   5.848   6.413   7.616 -0.7352  0.1176  0.3228
   90CHL1  H15B 9086   5.862   6.585   7.555 -0.5674  0.9813  0.4549
   90CHL1   C16 9087   5.722   6.554   7.719  0.4238 -0.3583  0.6021
   90CHL1  H16A 9088   5.768   6.501   7.805  0.9424 -0.6559  0.1469
   90CHL1  H16B 9089   5.733   6.662   7.741  1.9624 -0.7421  1.9062
   90CHL1   C17 9090   5.571   6.522   7.711  0.1450 -0.2514  0.0004
   90CHL1   H17 9091   5.526   6.620   7.683 -0.2524 -0.3004  0.4665
   90CHL1   C13 9092   5.565   6.423   7.598 -0.1571  0.3283  0.0884
   90CHL1   C18 9093   5.606   6.277   7.651  0.2352 -0.2668  0.1234
   90CHL1  H18A 9094   5.523   6.225   7.702 -1.1548  0.3121 -1.4802
   90CHL1  H18B 9095   5.633   6.214   7.564 -0.1979 -1.2450  0.6835
   90CHL1  H18C 9096   5.700   6.273   7.711 -0.8454 -1.5869  1.8309
   90CHL1   C12 9097   5.430   6.411   7.519  0.2790 -0.4463  0.2468
   90CHL1  H12A 9098   5.347   6.376   7.585 -0.8147  1.0835 -0.2494
   90CHL1  H12B 9099   5.392   6.504   7.471 -1.5245  0.0719  2.4785
   90CHL1   C11 9100   5.445   6.319   7.404 -0.3515  0.5605  0.4254
   90CHL1  H11A 9101   5.465   6.215   7.439 -0.0726 -0.0732 -1.4841
   90CHL1  H11B 9102   5.355   6.303   7.340 -0.0549  0.5489  0.0086
   90CHL1    C9 9103   5.557   6.358   7.302  0.3619 -0.2714  0.5027
   90CHL1    H9 9104   5.513   6.457   7.275  2.2304  0.0953 -1.3870
   90CHL1   C10 9105   5.573   6.278   7.169  0.7321  0.2893 -0.5114
   90CHL1   C19 9106   5.561   6.129   7.211  0.9020 -0.2786 -0.8362
   90CHL1  H19A 9107   5.456   6.097   7.229  0.7028  1.2561  1.0619
   90CHL1  H19B 9108   5.598   6.056   7.136 -0.9513 -1.4718 -0.6538
   90CHL1  H19C 9109   5.614   6.105   7.306 -0.7860 -3.3752 -0.5283
   90CHL1    C1 9110   5.457   6.317   7.072 -0.2369  0.3838 -0.4978
   90CHL1   H1A 9111   5.360   6.284   7.116  0.5791  0.1742  1.2734
   90CHL1   H1B 9112   5.451   6.426   7.053  1.3577  0.4199 -0.9562
   90CHL1    C2 9113   5.475   6.248   6.938 -0.8130  0.2040  0.4236
   90CHL1   H2A 9114   5.389   6.280   6.875 -2.0689 -1.9220  0.9465
   90CHL1   H2B 9115   5.466   6.138   6.947 -1.5521 -0.2610 -3.7750
   90CHL1   C20 9116   5.510   6.481   7.846 -0.1886 -0.8963 -0.2566
   90CHL1   H20 9117   5.567   6.396   7.888  0.4901 -0.3871 -0.1258
   90CHL1   C21 9118   5.360   6.447   7.829  0.0447 -0.1909  0.1943
   90CHL1  H21A 9119   5.313   6.517   7.756 -2.4371  1.6570  3.2932
   90CHL1  H21B 9120   5.296   6.467   7.918 -2.7480  0.7458 -1.8559
   90CHL1  H21C 9121   5.346   6.339   7.805  0.7411 -0.1649 -0.3761
   90CHL1   C22 9122   5.516   6.598   7.944 -0.0115  0.0374 -0.2240
   90CHL1  H22A 9123   5.608   6.659   7.929  0.7786 -1.3851 -1.3287
   90CHL1  H22B 9124   5.433   6.667   7.918  1.1688  1.9562  0.8100
   90CHL1   C23 9125   5.513   6.575   8.095  0.1933 -0.2313 -0.2789
   90CHL1  H23A 9126   5.422   6.517   8.120  0.6731 -0.2882  1.4376
   90CHL1  H23B 9127   5.597   6.513   8.132 -0.3867 -0.8203  0.0712
   90CHL1   C24 9128   5.521   6.713   8.164  0.0308 -0.1339 -0.5728
   90CHL1  H24A 9129   5.623   6.754   8.149  0.1291 -0.4216 -0.7144
   90CHL1  H24B 9130   5.468   6.794   8.110  0.2181 -1.2379 -2.4967
   90CHL1   C25 9131   5.485   6.705   8.316  0.6108 -0.5007  0.2137
   90CHL1   H25 9132   5.554   6.631   8.361  1.2935 -0.0466 -0.0646
   90CHL1   C26 9133   5.513   6.850   8.379 -0.2431  0.2817 -0.2585
   90CHL1  H26A 9134   5.446   6.930   8.342  0.7936  1.5106  0.4403
   90CHL1  H26B 9135   5.503   6.843   8.489 -1.4931 -2.5046 -0.4520
   90CHL1  H26C 9136   5.617   6.875   8.348 -0.5727  0.8556 -0.9341
   90CHL1   C27 9137   5.343   6.655   8.351  0.8953 -0.7145  0.6181
   90CHL1  H27A 9138   5.276   6.729   8.303  0.0154 -0.6115  1.9758
   90CHL1  H27B 9139   5.316   6.554   8.313  0.9537 -0.8377  0.9046
   90CHL1  H27C 9140   5.320   6.661   8.459 -1.1149  2.1993  0.1155
   91CHL1    C3 9141   5.680   3.746   7.155 -0.1901  0.1588 -0.7311
   91CHL1    H3 9142   5.585   3.771   7.207  0.4962 -1.0408  1.2202
   91CHL1    O3 9143   5.658   3.741   7.016  0.2098 -0.1461 -0.4997
   91CHL1   H3' 9144   5.738   3.700   6.984  1.1976 -0.0175  1.6296
   91CHL1    C4 9145   5.780   3.863   7.179  0.4177 -1.2958  0.2693
   91CHL1   H4A 9146   5.872   3.845   7.119  1.8024 -0.9227  2.1919
   91CHL1   H4B 9147   5.734   3.952   7.131  2.3403 -1.1532 -1.4552
   91CHL1    C5 9148   5.810   3.882   7.327  0.3607 -0.5408 -0.1039
   91CHL1    C6 9149   5.773   3.988   7.392  0.1291 -0.6931 -0.6530
   91CHL1    H6 9150   5.731   4.070   7.332  0.4695 -0.2918 -0.3551
   91CHL1    C7 9151   5.788   4.001   7.542 -0.0266 -0.0398  0.1765
   91CHL1   H7A 9152   5.809   4.103   7.580  0.5243 -0.6948  1.7364
   91CHL1   H7B 9153   5.687   3.975   7.579 -0.6427  0.7642 -0.8950
   91CHL1    C8 9154   5.892   3.898   7.604 -0.1047 -0.2883 -0.3070
   91CHL1    H8 9155   5.996   3.927   7.575 -0.6533  1.6059 -0.5701
   91CHL1   C14 9156   5.891   3.903   7.757 -0.4821 -0.4481  0.2007
   91CHL1   H14 9157   5.789   3.894   7.800 -0.2806  0.9087  1.0324
   91CHL1   C15 9158   5.939   4.032   7.818 -0.4041  1.2667 -0.2423
   91CHL1  H15A 9159   6.033   4.067   7.770 -0.2477  2.8047  1.0957
   91CHL1  H15B 9160   5.864   4.112   7.800 -0.3591  1.2201 -0.6669
   91CHL1   C16 9161   5.959   4.005   7.967  0.0032  0.2249  0.0020
   91CHL1  H16A 9162   6.063   4.038   7.985  0.3560  0.8867 -2.7890
   91CHL1  H16B 9163   5.881   4.053   8.030  0.4738  0.0641  0.7192
   91CHL1   C17 9164   5.948   3.839   7.974  0.8892 -0.3208 -0.6472
   91CHL1   H17 9165   5.846   3.808   8.006  0.8643 -0.9001 -1.2805
   91CHL1   C13 9166   5.969   3.790   7.833  0.1201 -0.6762  0.3306
   91CHL1   C18 9167   6.119   3.799   7.797  0.5386  1.0791  0.6750
   91CHL1  H18A 9168   6.174   3.890   7.827 -0.5076  2.1155 -0.4489
   91CHL1  H18B 9169   6.188   3.724   7.842 -0.2060 -1.5082 -2.1008
   91CHL1  H18C 9170   6.132   3.788   7.687  2.8394 -1.1685  1.0787
   91CHL1   C12 9171   5.907   3.658   7.783  0.0001  0.6353 -0.0572
   91CHL1  H12A 9172   5.954   3.565   7.822 -0.4850 -0.0947 -1.1873
   91CHL1  H12B 9173   5.800   3.657   7.814 -0.5299  0.0453 -1.7994
   91CHL1   C11 9174   5.917   3.647   7.629 -0.1628  0.2227 -0.6722
   91CHL1  H11A 9175   6.025   3.636   7.605  0.1400  2.7595 -0.7544
   91CHL1  H11B 9176   5.877   3.554   7.583 -0.1688  1.2876 -3.0185
   91CHL1    C9 9177   5.853   3.768   7.553  0.3336  0.3634  0.0971
   91CHL1    H9 9178   5.750   3.755   7.591  0.8142 -0.4983  1.1853
   91CHL1   C10 9179   5.851   3.752   7.394 -0.4942  0.1380 -0.6816
   91CHL1   C19 9180   5.997   3.715   7.348 -0.3486 -0.5185 -0.1919
   91CHL1  H19A 9181   6.048   3.629   7.397  0.0928 -1.0702 -1.5574
   91CHL1  H19B 9182   6.006   3.709   7.237 -0.3965 -0.7492 -0.1855
   91CHL1  H19C 9183   6.069   3.797   7.371  1.1633 -1.7270 -0.3928
   91CHL1    C1 9184   5.763   3.628   7.354 -0.6872  0.1047 -0.1497
   91CHL1   H1A 9185   5.813   3.534   7.387  0.0041  1.2561  2.2768
   91CHL1   H1B 9186   5.660   3.634   7.394 -2.3280  0.1851 -3.9648
   91CHL1    C2 9187   5.739   3.619   7.201  0.5932  1.0297  0.2422
   91CHL1   H2A 9188   5.665   3.543   7.168  1.8088 -0.0505 -0.0754
   91CHL1   H2B 9189   5.834   3.595   7.148 -0.4024 -1.7616 -0.4587
   91CHL1   C20 9190   6.042   3.797   8.082  0.2238 -0.0045 -0.4136
   91CHL1   H20 9191   6.143   3.840   8.062 -0.4565  1.1054 -1.6861
   91CHL1   C21 9192   6.049   3.640   8.093 -0.5943 -0.1568  0.1210
   91CHL1  H21A 9193   6.122   3.601   8.019 -0.0539  1.4667 -0.2472
   91CHL1  H21B 9194   5.949   3.595   8.075 -0.4260 -0.8275  0.8278
   91CHL1  H21C 9195   6.079   3.610   8.196 -0.9379  2.2521  1.0005
   91CHL1   C22 9196   6.003   3.844   8.225 -0.3214  0.6297  0.1043
   91CHL1  H22A 9197   5.971   3.950   8.214  0.2240  0.9093  1.0484
   91CHL1  H22B 9198   5.924   3.777   8.266 -1.0780  1.4737  0.0551
   91CHL1   C23 9199   6.124   3.853   8.322 -0.7860  0.4496 -0.0287
   91CHL1  H23A 9200   6.165   3.751   8.334  2.3767  1.3558 -1.9118
   91CHL1  H23B 9201   6.187   3.919   8.259 -0.7230  0.0923 -0.3394
   91CHL1   C24 9202   6.097   3.910   8.466 -0.3039 -0.2271  0.0842
   91CHL1  H24A 9203   6.194   3.929   8.517  0.6215 -2.4283 -0.7201
   91CHL1  H24B 9204   6.064   4.016   8.461  1.1279  0.2344 -0.0091
   91CHL1   C25 9205   6.013   3.826   8.558 -0.0098  0.4094  0.5947
   91CHL1   H25 9206   5.917   3.792   8.514 -0.0686 -1.2698  1.9192
   91CHL1   C26 9207   6.091   3.703   8.590  0.2197  0.5523  0.1341
   91CHL1  H26A 9208   6.049   3.633   8.666  1.7536 -1.0046 -0.3756
   91CHL1  H26B 9209   6.109   3.648   8.495  1.4482  0.0643  0.6270
   91CHL1  H26C 9210   6.189   3.722   8.638 -0.0363  0.1189  0.8563
   91CHL1   C27 9211   5.994   3.895   8.693  1.0732  0.2770  0.0459
   91CHL1  H27A 9212   6.090   3.940   8.728  1.1309  0.0921  0.1236
   91CHL1  H27B 9213   5.920   3.976   8.673  0.0207 -0.9898 -1.3444
   91CHL1  H27C 9214   5.957   3.832   8.777  0.4688 -0.5856 -0.8582
   92CHL1    C3 9215   1.949   4.314   6.671 -0.4529 -0.1963 -0.0470
   92CHL1    H3 9216   2.051   4.271   6.660  1.0821  3.3776 -1.5311
   92CHL1    O3 9217   1.906   4.351   6.548 -0.3119 -0.0940  0.7252
   92CHL1   H3' 9218   1.811   4.349   6.560 -0.3028  0.3669  0.8723
   92CHL1    C4 9219   1.857   4.211   6.730  0.1976  0.4709  0.0515
   92CHL1   H4A 9220   1.751   4.241   6.715  0.7383  1.4768 -2.2566
   92CHL1   H4B 9221   1.875   4.120   6.668 -1.4372  0.0555  0.1393
   92CHL1    C5 9222   1.879   4.185   6.878 -0.0654 -0.0663 -0.4807
   92CHL1    C6 9223   1.906   4.058   6.917  0.0728  0.0978 -0.0957
   92CHL1    H6 9224   1.917   3.977   6.844 -3.1226 -1.6974  1.2001
   92CHL1    C7 9225   1.934   4.032   7.064 -1.1854  0.1944 -0.4153
   92CHL1   H7A 9226   1.897   3.930   7.084  2.8134 -1.2024  0.9170
   92CHL1   H7B 9227   2.043   4.025   7.084 -1.1949 -2.4036 -0.9408
   92CHL1    C8 9228   1.868   4.131   7.161 -0.1405 -0.2126 -0.4819
   92CHL1    H8 9229   1.758   4.133   7.144 -0.7544  2.7671  2.8077
   92CHL1   C14 9230   1.900   4.104   7.309 -0.1038  0.4185  0.3524
   92CHL1   H14 9231   2.011   4.106   7.308 -0.0395 -1.2897 -1.3393
   92CHL1   C15 9232   1.865   3.971   7.376 -0.4636 -0.6010 -1.0481
   92CHL1  H15A 9233   1.760   3.940   7.358 -1.2273  0.1417  1.6517
   92CHL1  H15B 9234   1.942   3.898   7.342  2.0839  0.5672  1.6966
   92CHL1   C16 9235   1.873   4.003   7.528  0.3253 -0.0143 -0.9867
   92CHL1  H16A 9236   1.779   3.971   7.577  1.4706 -1.0183  0.6435
   92CHL1  H16B 9237   1.953   3.945   7.580 -0.6346 -1.6754 -1.3111
   92CHL1   C17 9238   1.898   4.160   7.549  0.4048  0.5103 -0.2512
   92CHL1   H17 9239   2.008   4.176   7.549  0.4479  0.2115 -0.0377
   92CHL1   C13 9240   1.854   4.212   7.404  0.0339  0.1385 -0.0433
   92CHL1   C18 9241   1.703   4.211   7.416  0.4304 -0.2935  0.2737
   92CHL1  H18A 9242   1.668   4.299   7.474  1.6988  0.5374 -0.1598
   92CHL1  H18B 9243   1.651   4.221   7.319 -1.7245  1.3008  1.5226
   92CHL1  H18C 9244   1.669   4.117   7.464 -1.8306  0.3870  0.0904
   92CHL1   C12 9245   1.900   4.348   7.362  0.3345 -0.5571  0.4525
   92CHL1  H12A 9246   1.866   4.437   7.420  3.5969  2.1874 -1.4885
   92CHL1  H12B 9247   2.011   4.347   7.364  0.4592 -0.0770 -2.4780
   92CHL1   C11 9248   1.853   4.380   7.217 -0.0744  0.4777 -0.0002
   92CHL1  H11A 9249   1.743   4.390   7.222 -0.3510 -2.4635  1.6219
   92CHL1  H11B 9250   1.899   4.479   7.194  1.6384 -0.3033 -0.1100
   92CHL1    C9 9251   1.907   4.273   7.116  0.1627 -0.6638 -0.5311
   92CHL1    H9 9252   2.018   4.278   7.115  0.2484 -1.7915 -2.5803
   92CHL1   C10 9253   1.874   4.310   6.970 -0.1699  0.1953  0.2989
   92CHL1   C19 9254   1.725   4.363   6.964  0.5235  0.7725 -0.1949
   92CHL1  H19A 9255   1.662   4.290   7.019 -1.2275  2.7027  0.4780
   92CHL1  H19B 9256   1.712   4.466   7.004  0.7004  0.2143  1.3704
   92CHL1  H19C 9257   1.669   4.368   6.868  1.8078 -0.8247 -1.0914
   92CHL1    C1 9258   1.966   4.419   6.908  0.6149  0.6371 -0.3529
   92CHL1   H1A 9259   1.957   4.519   6.955  0.6361  0.3987  0.1687
   92CHL1   H1B 9260   2.072   4.386   6.917  0.2157 -0.3507  1.0339
   92CHL1    C2 9261   1.940   4.441   6.759  1.1443 -0.8577  0.3429
   92CHL1   H2A 9262   2.003   4.517   6.708 -0.2399  0.6976  0.8553
   92CHL1   H2B 9263   1.835   4.476   6.747  1.2150 -0.8374 -0.2662
   92CHL1   C20 9264   1.850   4.224   7.681  0.6652  0.2798 -0.2378
   92CHL1   H20 9265   1.739   4.237   7.680  0.5976  1.1117  3.5229
   92CHL1   C21 9266   1.902   4.363   7.703  0.2034  0.3054  0.2745
   92CHL1  H21A 9267   1.925   4.411   7.605  1.0466 -1.2469 -0.3325
   92CHL1  H21B 9268   2.006   4.366   7.742  0.5825  0.9760 -0.7315
   92CHL1  H21C 9269   1.834   4.423   7.766 -0.4987  0.1413 -0.3089
   92CHL1   C22 9270   1.860   4.133   7.808  0.4444  0.3943  0.1853
   92CHL1  H22A 9271   1.788   4.183   7.876 -1.1702 -1.2695 -0.2467
   92CHL1  H22B 9272   1.813   4.034   7.792  0.9287  0.4767 -2.0861
   92CHL1   C23 9273   1.997   4.123   7.879  1.4342 -0.2286  1.1171
   92CHL1  H23A 9274   2.078   4.157   7.812 -0.4051  1.6516 -0.2805
   92CHL1  H23B 9275   1.997   4.201   7.958 -1.8171  0.6158  0.4531
   92CHL1   C24 9276   2.019   3.989   7.942  0.5301 -0.1191  0.0820
   92CHL1  H24A 9277   2.027   3.904   7.871 -0.8674 -0.3877  0.2149
   92CHL1  H24B 9278   2.118   3.997   7.991  0.3392  3.5728  0.1377
   92CHL1   C25 9279   1.910   3.958   8.049 -0.2863  0.0147 -0.6481
   92CHL1   H25 9280   1.804   3.965   8.016 -0.6904 -1.4419  0.2666
   92CHL1   C26 9281   1.935   3.812   8.096  0.0898  0.9103  0.2968
   92CHL1  H26A 9282   2.043   3.802   8.119  0.2306  1.9288  0.1320
   92CHL1  H26B 9283   1.873   3.784   8.183 -0.8150  1.1497 -0.2552
   92CHL1  H26C 9284   1.927   3.732   8.020  3.2489  0.2413  0.5323
   92CHL1   C27 9285   1.941   4.050   8.170  0.7144  0.2224  0.1650
   92CHL1  H27A 9286   2.039   4.020   8.214  1.9698  3.5625 -0.0332
   92CHL1  H27B 9287   1.960   4.157   8.146  0.0157  0.8304  2.0810
   92CHL1  H27C 9288   1.859   4.043   8.244 -0.5246 -0.5999 -1.2330
   93CHL1    C3 9289   6.072   3.430   7.052 -0.0447  0.3098 -0.4386
   93CHL1    H3 9290   6.028   3.527   7.081 -1.5606  0.3164 -2.4769
   93CHL1    O3 9291   6.077   3.417   6.911  0.4892 -0.4392 -0.3405
   93CHL1   H3' 9292   6.103   3.328   6.886  1.6031 -0.4817  0.8653
   93CHL1    C4 9293   6.218   3.430   7.097 -0.1680  0.8262  0.0648
   93CHL1   H4A 9294   6.265   3.331   7.077 -0.5129 -0.1143  3.3872
   93CHL1   H4B 9295   6.283   3.503   7.045 -0.6283  0.7605 -0.6252
   93CHL1    C5 9296   6.236   3.448   7.245 -0.0645  0.2915  0.1992
   93CHL1    C6 9297   6.314   3.543   7.307 -0.1747 -0.3827  0.4392
   93CHL1    H6 9298   6.368   3.618   7.248  0.2341  0.0071  1.2924
   93CHL1    C7 9299   6.326   3.537   7.450 -0.2356  0.1763 -0.6392
   93CHL1   H7A 9300   6.429   3.573   7.469 -0.4528  1.5277 -1.8342
   93CHL1   H7B 9301   6.261   3.615   7.496  0.4196 -0.7741  2.1303
   93CHL1    C8 9302   6.285   3.405   7.522  0.4651 -0.2215  0.0112
   93CHL1    H8 9303   6.369   3.338   7.494  0.0192 -0.2262 -1.3697
   93CHL1   C14 9304   6.279   3.416   7.675  0.3613  0.2133 -0.0201
   93CHL1   H14 9305   6.189   3.480   7.689 -0.6710 -1.1484 -0.2028
   93CHL1   C15 9306   6.398   3.489   7.753 -0.2716  0.7485 -0.4927
   93CHL1  H15A 9307   6.499   3.471   7.710  0.0802  3.0774 -0.7422
   93CHL1  H15B 9308   6.375   3.596   7.735 -1.1734  0.3063 -2.1456
   93CHL1   C16 9309   6.391   3.432   7.890  0.1716  0.7215  0.2466
   93CHL1  H16A 9310   6.484   3.374   7.907 -0.6591 -0.2320  1.7754
   93CHL1  H16B 9311   6.391   3.510   7.970 -0.6193 -0.3089  1.2973
   93CHL1   C17 9312   6.269   3.340   7.897  0.2801 -0.7475  0.3373
   93CHL1   H17 9313   6.195   3.421   7.913  0.7718 -0.1968 -0.1736
   93CHL1   C13 9314   6.247   3.293   7.752  0.0445 -0.0778  0.7062
   93CHL1   C18 9315   6.352   3.181   7.720 -1.0237 -0.3508  0.2651
   93CHL1  H18A 9316   6.343   3.092   7.787  1.6543 -2.2762 -1.6944
   93CHL1  H18B 9317   6.353   3.147   7.614  0.5847 -0.0827  0.1673
   93CHL1  H18C 9318   6.459   3.209   7.735 -0.8641  1.1686 -3.0021
   93CHL1   C12 9319   6.101   3.254   7.706  0.1944 -0.0812  0.0932
   93CHL1  H12A 9320   6.070   3.158   7.752  1.0416 -0.6038 -0.3865
   93CHL1  H12B 9321   6.031   3.328   7.749  0.2248 -0.0411  0.0742
   93CHL1   C11 9322   6.089   3.233   7.555 -0.0335  0.1137  0.6407
   93CHL1  H11A 9323   6.143   3.137   7.542 -1.0976 -0.3088 -1.0226
   93CHL1  H11B 9324   5.981   3.220   7.534  0.0444 -0.0434  0.3241
   93CHL1    C9 9325   6.150   3.354   7.469 -0.0283  0.8843  0.3103
   93CHL1    H9 9326   6.080   3.438   7.489 -0.0059  0.7603  0.9398
   93CHL1   C10 9327   6.163   3.330   7.312 -0.0927 -0.0753 -0.4124
   93CHL1   C19 9328   6.239   3.193   7.278  0.3446  0.1586  0.0856
   93CHL1  H19A 9329   6.196   3.136   7.193  1.6017  0.3636 -0.7278
   93CHL1  H19B 9330   6.349   3.210   7.269 -0.2366  4.7408 -0.3134
   93CHL1  H19C 9331   6.237   3.124   7.366  1.4196 -1.3246 -1.0046
   93CHL1    C1 9332   6.019   3.312   7.276  0.0965 -0.0081 -0.9019
   93CHL1   H1A 9333   5.987   3.210   7.306 -1.3333  0.6881  0.0919
   93CHL1   H1B 9334   5.935   3.376   7.312 -1.2662 -1.7987 -0.7769
   93CHL1    C2 9335   5.990   3.317   7.123  0.0284 -0.2586 -0.1440
   93CHL1   H2A 9336   5.885   3.353   7.115 -0.2168 -0.9222 -0.0308
   93CHL1   H2B 9337   5.996   3.219   7.070 -0.6953 -1.5963  2.0820
   93CHL1   C20 9338   6.267   3.251   8.015  0.1281  0.8092  0.0937
   93CHL1   H20 9339   6.342   3.169   8.007  1.8364  2.0522  2.2078
   93CHL1   C21 9340   6.131   3.184   8.023 -0.4624 -0.1444 -0.2270
   93CHL1  H21A 9341   6.131   3.108   8.104 -0.4141  0.0523 -0.0452
   93CHL1  H21B 9342   6.125   3.121   7.931 -1.6491  0.8172 -0.8319
   93CHL1  H21C 9343   6.048   3.256   8.037  0.7867  0.9632  1.8606
   93CHL1   C22 9344   6.309   3.313   8.151  0.1544 -0.2748  0.2664
   93CHL1  H22A 9345   6.417   3.338   8.158  0.0573  0.0192  0.7212
   93CHL1  H22B 9346   6.259   3.411   8.165  1.6182  0.5256  0.1021
   93CHL1   C23 9347   6.289   3.226   8.272 -0.4992  0.4621 -0.4668
   93CHL1  H23A 9348   6.184   3.193   8.287 -0.2292 -0.5339 -0.6833
   93CHL1  H23B 9349   6.337   3.126   8.263 -0.3004  0.2787  2.0080
   93CHL1   C24 9350   6.350   3.285   8.404  0.1897 -0.2102  0.4615
   93CHL1  H24A 9351   6.441   3.347   8.393 -0.2573  0.6095  1.2593
   93CHL1  H24B 9352   6.279   3.367   8.427 -1.9736 -1.4285 -1.4438
   93CHL1   C25 9353   6.357   3.181   8.519  0.3143  0.1586  1.1602
   93CHL1   H25 9354   6.255   3.135   8.516 -0.0990  1.0621 -2.6134
   93CHL1   C26 9355   6.472   3.082   8.495 -0.6417 -0.0867 -1.2885
   93CHL1  H26A 9356   6.468   3.030   8.397  0.7677 -0.7977 -1.0028
   93CHL1  H26B 9357   6.565   3.143   8.497 -0.6158 -0.1368 -0.9373
   93CHL1  H26C 9358   6.479   3.004   8.574 -0.9789  1.4349  0.3091
   93CHL1   C27 9359   6.372   3.254   8.656 -0.6306 -0.3199  0.4205
   93CHL1  H27A 9360   6.467   3.313   8.655  0.0463 -1.3707 -0.9749
   93CHL1  H27B 9361   6.290   3.328   8.667 -0.7164 -0.6824  2.7767
   93CHL1  H27C 9362   6.382   3.194   8.749 -0.2595  1.2710  1.4633
   94CHL1    C3 9363   2.972   6.194   6.773  0.0716 -0.1264 -0.2621
   94CHL1    H3 9364   2.874   6.221   6.819  0.9313 -1.5077  2.6036
   94CHL1    O3 9365   2.972   6.267   6.653  0.1666 -0.4473 -0.5232
   94CHL1   H3' 9366   2.913   6.218   6.596  0.1465 -1.5021  0.3552
   94CHL1    C4 9367   3.084   6.244   6.858  0.1240 -0.0884 -0.0360
   94CHL1   H4A 9368   3.174   6.257   6.795  1.1451  2.5638  1.8258
   94CHL1   H4B 9369   3.051   6.345   6.889 -3.8371 -1.2149 -0.0758
   94CHL1    C5 9370   3.107   6.169   6.989 -0.2034 -1.1475 -0.4634
   94CHL1    C6 9371   3.116   6.235   7.108  0.1890 -0.2696 -0.5154
   94CHL1    H6 9372   3.111   6.345   7.110 -1.6009 -0.3006 -1.4334
   94CHL1    C7 9373   3.134   6.166   7.242  0.0780  0.8797  0.1076
   94CHL1   H7A 9374   3.196   6.218   7.318  2.1818  2.2352 -2.3928
   94CHL1   H7B 9375   3.036   6.146   7.290 -0.7807  2.5979 -0.8298
   94CHL1    C8 9376   3.186   6.016   7.229  0.1806  0.7655 -0.1286
   94CHL1    H8 9377   3.291   6.019   7.194 -0.6526  2.7106 -2.7456
   94CHL1   C14 9378   3.167   5.939   7.359  0.0477 -0.1061  0.3523
   94CHL1   H14 9379   3.056   5.932   7.369  0.0919  0.5549  1.5104
   94CHL1   C15 9380   3.213   6.003   7.503  0.3807  0.8511 -0.1106
   94CHL1  H15A 9381   3.313   6.050   7.488  1.1081 -1.3789 -3.7261
   94CHL1  H15B 9382   3.150   6.081   7.550  0.6614  0.4756  0.9096
   94CHL1   C16 9383   3.218   5.877   7.591  0.3331  0.6003  0.2194
   94CHL1  H16A 9384   3.326   5.877   7.616  0.8097  0.7978 -1.7063
   94CHL1  H16B 9385   3.155   5.893   7.681 -1.6581  1.7716 -1.2955
   94CHL1   C17 9386   3.180   5.752   7.510  0.1057  0.2497 -0.2471
   94CHL1   H17 9387   3.071   5.741   7.527  0.6237 -0.7099  3.3172
   94CHL1   C13 9388   3.209   5.796   7.364  0.0668 -0.4438 -0.4087
   94CHL1   C18 9389   3.358   5.780   7.335 -0.2232  0.8029 -0.0183
   94CHL1  H18A 9390   3.390   5.674   7.334  0.8681  1.1131 -0.8537
   94CHL1  H18B 9391   3.392   5.825   7.239  1.7726  0.2278  0.3766
   94CHL1  H18C 9392   3.407   5.842   7.414 -2.1106  0.9740  1.0842
   94CHL1   C12 9393   3.121   5.719   7.258  0.7662  0.6368  0.0734
   94CHL1  H12A 9394   3.159   5.615   7.248  0.5078  0.5994 -0.5121
   94CHL1  H12B 9395   3.015   5.724   7.290  0.6422 -1.1058  0.0348
   94CHL1   C11 9396   3.129   5.788   7.117  0.0883 -0.2749 -0.3368
   94CHL1  H11A 9397   3.222   5.756   7.064 -0.0008  0.9536 -1.2623
   94CHL1  H11B 9398   3.058   5.737   7.049  0.2175 -1.6127  0.4838
   94CHL1    C9 9399   3.106   5.937   7.116  0.0382 -0.2604 -0.0840
   94CHL1    H9 9400   3.002   5.939   7.156 -0.4420  1.4183 -1.3182
   94CHL1   C10 9401   3.106   6.013   6.981 -0.6902  0.4088 -0.5818
   94CHL1   C19 9402   3.236   5.963   6.908  0.1626 -0.4501  0.2806
   94CHL1  H19A 9403   3.257   6.021   6.815 -0.5497 -0.1753  0.2866
   94CHL1  H19B 9404   3.326   5.978   6.972 -1.5314  2.0931  2.2901
   94CHL1  H19C 9405   3.229   5.855   6.884 -1.5947 -0.1087 -0.9578
   94CHL1    C1 9406   2.987   5.982   6.895 -0.1189  0.1796 -0.2652
   94CHL1   H1A 9407   2.979   5.871   6.890 -0.1975  0.1940 -0.4815
   94CHL1   H1B 9408   2.899   6.025   6.948  0.9222  1.5327  0.4269
   94CHL1    C2 9409   2.993   6.041   6.755 -0.4726 -0.4496  0.4306
   94CHL1   H2A 9410   2.910   6.005   6.690 -1.3401  0.1221  1.2066
   94CHL1   H2B 9411   3.087   6.025   6.696 -0.5163  1.2776 -0.1668
   94CHL1   C20 9412   3.245   5.628   7.572  0.5126 -0.3922 -0.5177
   94CHL1   H20 9413   3.354   5.643   7.584  0.2671  1.7993 -0.6308
   94CHL1   C21 9414   3.215   5.509   7.481 -0.0289 -0.1640  0.4698
   94CHL1  H21A 9415   3.282   5.514   7.392 -1.1103 -0.9875 -0.4070
   94CHL1  H21B 9416   3.108   5.520   7.454  0.7231  2.1513 -2.1361
   94CHL1  H21C 9417   3.242   5.409   7.520 -0.4995 -0.5729 -0.2399
   94CHL1   C22 9418   3.201   5.599   7.719  1.1918  0.4354  0.0831
   94CHL1  H22A 9419   3.232   5.694   7.768  1.2474  1.4019 -1.7296
   94CHL1  H22B 9420   3.097   5.566   7.738  2.0289 -2.3505  0.2853
   94CHL1   C23 9421   3.299   5.494   7.783  0.1880  0.3098 -0.5549
   94CHL1  H23A 9422   3.272   5.393   7.747  0.0179  0.4638 -0.8657
   94CHL1  H23B 9423   3.400   5.515   7.742  0.2985 -0.2859 -0.5843
   94CHL1   C24 9424   3.303   5.487   7.938  0.7277 -0.4093 -0.0514
   94CHL1  H24A 9425   3.310   5.597   7.952 -0.1570 -0.4678  0.9322
   94CHL1  H24B 9426   3.203   5.466   7.981  1.0395  1.9830  2.0746
   94CHL1   C25 9427   3.412   5.420   8.018  0.1736 -0.1737  0.0333
   94CHL1   H25 9428   3.513   5.447   7.980  1.1672 -0.4883  2.2873
   94CHL1   C26 9429   3.405   5.452   8.165 -0.0955  0.6206  0.1786
   94CHL1  H26A 9430   3.299   5.442   8.198  0.0496  1.5630  1.0037
   94CHL1  H26B 9431   3.467   5.379   8.221 -0.5749  0.5522  0.6378
   94CHL1  H26C 9432   3.439   5.557   8.177 -0.0778  0.7371 -0.8727
   94CHL1   C27 9433   3.387   5.275   8.003  0.3856  0.7007  0.3701
   94CHL1  H27A 9434   3.291   5.246   8.052 -0.4582 -2.8010 -2.8974
   94CHL1  H27B 9435   3.373   5.238   7.900 -0.0445  0.1691  0.6134
   94CHL1  H27C 9436   3.466   5.212   8.048 -1.3529 -1.6346  0.3397
   95CHL1    C3 9437   3.641   5.869   6.635  0.2708  0.2901  0.1735
   95CHL1    H3 9438   3.531   5.870   6.652  0.2965 -0.4351  0.4287
   95CHL1    O3 9439   3.676   5.800   6.514  0.5238  0.4047  0.2166
   95CHL1   H3' 9440   3.765   5.764   6.515  0.4318  0.0052 -1.7075
   95CHL1    C4 9441   3.706   6.008   6.633  0.3622  0.3100  0.0755
   95CHL1   H4A 9442   3.816   5.994   6.633  0.1113 -2.1598 -0.5054
   95CHL1   H4B 9443   3.686   6.062   6.538 -0.8321  1.2172  0.8236
   95CHL1    C5 9444   3.661   6.078   6.753  0.8726  0.8347 -0.3964
   95CHL1    C6 9445   3.572   6.175   6.750 -0.8093 -0.0622  0.4989
   95CHL1    H6 9446   3.539   6.218   6.654  0.4395 -0.7859 -0.2854
   95CHL1    C7 9447   3.537   6.262   6.869  0.0617  1.1104 -0.1627
   95CHL1   H7A 9448   3.556   6.371   6.853  2.0020  0.9699  0.9010
   95CHL1   H7B 9449   3.431   6.247   6.900  0.6200  0.7985  1.7167
   95CHL1    C8 9450   3.606   6.226   7.004  0.2565 -0.6721 -0.4613
   95CHL1    H8 9451   3.702   6.279   6.990  0.1219 -0.5413 -0.9184
   95CHL1   C14 9452   3.535   6.283   7.132 -0.4134  0.5111 -0.4599
   95CHL1   H14 9453   3.445   6.219   7.140 -0.9682  1.3306 -0.0717
   95CHL1   C15 9454   3.487   6.425   7.139  0.6987 -0.0168 -0.0010
   95CHL1  H15A 9455   3.545   6.494   7.074  0.5645 -1.8920 -2.2551
   95CHL1  H15B 9456   3.392   6.417   7.081 -0.4683 -0.6341  1.9007
   95CHL1   C16 9457   3.470   6.461   7.284 -0.4964  0.2055 -0.1407
   95CHL1  H16A 9458   3.545   6.536   7.318  1.1947 -0.7755 -1.5631
   95CHL1  H16B 9459   3.367   6.484   7.318 -0.0253  2.0775  0.1420
   95CHL1   C17 9460   3.518   6.331   7.362 -0.3137  0.0520 -0.4736
   95CHL1   H17 9461   3.428   6.267   7.367  1.2933 -2.3130 -0.6006
   95CHL1   C13 9462   3.614   6.265   7.263  0.3296  0.4998 -0.5680
   95CHL1   C18 9463   3.751   6.334   7.269  0.1908  0.4730  0.2245
   95CHL1  H18A 9464   3.826   6.290   7.200  0.6174  1.4876  0.0217
   95CHL1  H18B 9465   3.738   6.440   7.239 -0.2518  0.2754 -0.3119
   95CHL1  H18C 9466   3.800   6.336   7.369  0.4823  0.3570  0.0819
   95CHL1   C12 9467   3.623   6.105   7.275 -0.7527 -0.3273  0.5003
   95CHL1  H12A 9468   3.685   6.083   7.365  0.2473 -1.8987 -0.5302
   95CHL1  H12B 9469   3.518   6.069   7.271 -1.0379  0.3611  1.3481
   95CHL1   C11 9470   3.695   6.039   7.158 -0.4820 -0.3274  0.2378
   95CHL1  H11A 9471   3.800   6.069   7.172 -0.9266  0.3497  2.3501
   95CHL1  H11B 9472   3.687   5.929   7.174  0.6168 -0.0702  2.9028
   95CHL1    C9 9473   3.637   6.072   7.019  0.0651  0.2459 -0.7713
   95CHL1    H9 9474   3.536   6.027   7.024  0.8366 -1.4247  0.7578
   95CHL1   C10 9475   3.710   6.013   6.893  0.2787 -0.5674  0.7809
   95CHL1   C19 9476   3.862   6.018   6.920 -0.2049 -0.5526  0.4086
   95CHL1  H19A 9477   3.892   6.125   6.931 -0.5504 -0.4959  0.8089
   95CHL1  H19B 9478   3.890   5.963   7.012 -2.0520 -0.1795  1.2398
   95CHL1  H19C 9479   3.933   5.968   6.850 -2.2353  0.0699 -2.2829
   95CHL1    C1 9480   3.670   5.861   6.887  0.6482  0.5083  0.5496
   95CHL1   H1A 9481   3.714   5.806   6.973  0.5702  2.0610  1.6177
   95CHL1   H1B 9482   3.560   5.849   6.903  0.3834  0.0420 -1.4092
   95CHL1    C2 9483   3.698   5.790   6.753  0.2678  0.0333  0.0228
   95CHL1   H2A 9484   3.653   5.689   6.752 -0.9076  0.5378 -1.0873
   95CHL1   H2B 9485   3.807   5.772   6.746  0.1922 -0.3574 -0.1482
   95CHL1   C20 9486   3.560   6.366   7.509  0.0947 -0.7301 -0.0453
   95CHL1   H20 9487   3.648   6.432   7.499  0.7837 -1.4930  0.8200
   95CHL1   C21 9488   3.613   6.248   7.589 -0.4643 -0.3502  0.0435
   95CHL1  H21A 9489   3.701   6.210   7.533 -0.8638 -1.2092 -0.0301
   95CHL1  H21B 9490   3.532   6.171   7.594 -1.9303  1.1223 -0.1410
   95CHL1  H21C 9491   3.645   6.285   7.689  1.4772  1.6567 -1.2578
   95CHL1   C22 9492   3.451   6.442   7.587 -0.0038  0.1153 -0.1582
   95CHL1  H22A 9493   3.494   6.471   7.685  0.6050  0.5884 -0.5622
   95CHL1  H22B 9494   3.438   6.539   7.535  3.1468  1.2216  0.9191
   95CHL1   C23 9495   3.316   6.367   7.600 -0.5961 -0.5527 -0.0093
   95CHL1  H23A 9496   3.271   6.369   7.498  1.4001  1.8213 -0.9493
   95CHL1  H23B 9497   3.347   6.265   7.633  1.9925  0.5915  1.3987
   95CHL1   C24 9498   3.222   6.420   7.714 -0.1309 -1.0260  0.9023
   95CHL1  H24A 9499   3.142   6.343   7.715  0.3043 -1.5086  0.1251
   95CHL1  H24B 9500   3.269   6.426   7.815  0.9662 -2.1347  0.4912
   95CHL1   C25 9501   3.151   6.550   7.688  0.0336 -0.0856  0.4865
   95CHL1   H25 9502   3.220   6.632   7.658 -0.3839 -0.0896 -0.5475
   95CHL1   C26 9503   3.045   6.533   7.578  0.0525  0.4002 -0.4075
   95CHL1  H26A 9504   3.089   6.506   7.479 -1.9838  0.4094 -1.3684
   95CHL1  H26B 9505   2.973   6.454   7.609 -0.2900 -0.1140 -2.3268
   95CHL1  H26C 9506   2.981   6.622   7.558  0.5666  0.8850  0.1031
   95CHL1   C27 9507   3.091   6.591   7.826  0.4289 -0.2306 -0.0084
   95CHL1  H27A 9508   3.007   6.662   7.812  1.0311  1.0246  2.1478
   95CHL1  H27B 9509   3.050   6.503   7.880  1.2970  0.1036  1.2664
   95CHL1  H27C 9510   3.157   6.639   7.902  0.6876 -1.6601  0.7047
   96CHL1    C3 9511   4.987   6.383   6.799 -0.4842  0.4785  0.0470
   96CHL1    H3 9512   4.904   6.410   6.730  1.2876 -0.4542 -2.5730
   96CHL1    O3 9513   5.109   6.343   6.723  0.6712  0.5572 -0.1245
   96CHL1   H3' 9514   5.127   6.426   6.679  0.4324 -0.2965 -1.9511
   96CHL1    C4 9515   5.032   6.502   6.886  0.7021  0.1040 -0.3408
   96CHL1   H4A 9516   5.127   6.474   6.937  0.1632 -2.0798 -0.4384
   96CHL1   H4B 9517   5.050   6.586   6.816 -3.5314  2.4876  1.0612
   96CHL1    C5 9518   4.929   6.549   6.997  0.1206 -0.8833  0.3339
   96CHL1    C6 9519   4.900   6.684   6.999 -1.1644  0.4711  0.2339
   96CHL1    H6 9520   4.947   6.751   6.926 -1.7469 -1.7358 -2.3506
   96CHL1    C7 9521   4.801   6.741   7.091 -0.5314  0.3953  0.1318
   96CHL1   H7A 9522   4.830   6.837   7.139 -0.7369 -0.7251  2.6105
   96CHL1   H7B 9523   4.705   6.755   7.036 -0.0702 -0.6934 -0.9773
   96CHL1    C8 9524   4.771   6.630   7.208  0.1807  0.2862  0.4400
   96CHL1    H8 9525   4.859   6.631   7.276  0.9645  0.4820 -0.5470
   96CHL1   C14 9526   4.650   6.670   7.291  0.0029 -0.0014 -0.3691
   96CHL1   H14 9527   4.566   6.681   7.220 -1.8308 -0.1295  1.6648
   96CHL1   C15 9528   4.654   6.805   7.368 -0.4457 -0.7580  0.2168
   96CHL1  H15A 9529   4.756   6.842   7.390  0.4895 -2.5315 -0.9309
   96CHL1  H15B 9530   4.613   6.874   7.290  0.4587  1.4157  1.5908
   96CHL1   C16 9531   4.552   6.795   7.477  0.6199 -0.1730  0.2915
   96CHL1  H16A 9532   4.596   6.812   7.578  0.1576 -1.7121  0.7749
   96CHL1  H16B 9533   4.466   6.863   7.460  0.3484 -0.5137  0.2914
   96CHL1   C17 9534   4.494   6.647   7.471  0.1180  0.1255  0.2642
   96CHL1   H17 9535   4.403   6.654   7.408  1.3541 -1.6086 -1.8179
   96CHL1   C13 9536   4.602   6.569   7.389  0.1043 -0.2940 -0.2284
   96CHL1   C18 9537   4.717   6.532   7.494 -0.2203  0.0692 -0.3385
   96CHL1  H18A 9538   4.681   6.463   7.573 -0.1889 -0.0330 -0.4121
   96CHL1  H18B 9539   4.810   6.492   7.448 -0.8267 -1.1571 -0.5363
   96CHL1  H18C 9540   4.750   6.627   7.540 -1.4335  0.3723 -0.0599
   96CHL1   C12 9541   4.559   6.444   7.311  0.4300  0.1894  0.6456
   96CHL1  H12A 9542   4.530   6.357   7.374 -0.3822  1.1807  1.6904
   96CHL1  H12B 9543   4.468   6.470   7.252  0.2414 -0.2954  0.7129
   96CHL1   C11 9544   4.678   6.390   7.235  0.0725 -0.2667 -0.5357
   96CHL1  H11A 9545   4.763   6.366   7.302  0.8180  0.7327 -1.0940
   96CHL1  H11B 9546   4.644   6.301   7.178 -1.7019  0.9067 -1.3890
   96CHL1    C9 9547   4.744   6.495   7.149 -0.9031  0.1859  0.8899
   96CHL1    H9 9548   4.673   6.514   7.066 -0.0611 -2.7544 -0.6475
   96CHL1   C10 9549   4.867   6.432   7.073 -0.3480  0.3393 -0.4979
   96CHL1   C19 9550   4.981   6.383   7.161 -0.2203  0.4521 -0.0892
   96CHL1  H19A 9551   5.013   6.476   7.212  0.4314 -0.0811  0.5012
   96CHL1  H19B 9552   4.951   6.304   7.234  0.7808  0.7368  0.6501
   96CHL1  H19C 9553   5.067   6.345   7.102 -1.7614 -3.4356 -0.1657
   96CHL1    C1 9554   4.828   6.309   6.972  0.1842  1.1789  0.3414
   96CHL1   H1A 9555   4.798   6.221   7.034  3.5241 -1.4416 -1.4352
   96CHL1   H1B 9556   4.741   6.347   6.914  0.3807  1.2107  0.0681
   96CHL1    C2 9557   4.939   6.265   6.880  0.3166  0.4896  0.1216
   96CHL1   H2A 9558   4.899   6.196   6.802 -1.0496 -0.9173  1.9569
   96CHL1   H2B 9559   5.018   6.215   6.940 -0.6218  0.2843  1.2466
   96CHL1   C20 9560   4.436   6.600   7.610 -0.2670 -0.0028 -0.1950
   96CHL1   H20 9561   4.524   6.566   7.668 -0.5001  0.4032  0.4057
   96CHL1   C21 9562   4.358   6.470   7.589 -0.4606 -0.0081 -0.3837
   96CHL1  H21A 9563   4.435   6.390   7.582 -2.2709 -1.8679 -0.0277
   96CHL1  H21B 9564   4.301   6.467   7.493  2.0459  0.2026 -1.9706
   96CHL1  H21C 9565   4.291   6.452   7.676  2.3752 -0.0051  1.9462
   96CHL1   C22 9566   4.362   6.709   7.693  0.3915  0.5394  0.4427
   96CHL1  H22A 9567   4.411   6.808   7.679  0.7576  0.5089  1.4340
   96CHL1  H22B 9568   4.263   6.723   7.644  1.3761  0.0067 -1.7984
   96CHL1   C23 9569   4.356   6.672   7.842 -0.1446  0.2989 -0.2360
   96CHL1  H23A 9570   4.314   6.570   7.856 -0.2691  0.5295  1.2045
   96CHL1  H23B 9571   4.459   6.660   7.881 -0.3238 -1.0725 -0.1417
   96CHL1   C24 9572   4.271   6.767   7.924  0.4163  0.7716  0.3699
   96CHL1  H24A 9573   4.324   6.863   7.941 -0.1789  1.7100 -2.4764
   96CHL1  H24B 9574   4.179   6.773   7.862 -0.3744 -1.3897  1.2448
   96CHL1   C25 9575   4.217   6.713   8.055  0.1215 -0.2015  0.0256
   96CHL1   H25 9576   4.184   6.609   8.033  1.7644 -1.1225  1.6136
   96CHL1   C26 9577   4.322   6.716   8.169  0.3890  0.5866  0.3055
   96CHL1  H26A 9578   4.363   6.818   8.186 -2.2399  1.8341 -0.3327
   96CHL1  H26B 9579   4.277   6.681   8.265 -2.7722  0.1026 -1.2282
   96CHL1  H26C 9580   4.400   6.643   8.138 -0.3683  0.5377 -1.6115
   96CHL1   C27 9581   4.094   6.790   8.100  0.2462  0.2859  0.5240
   96CHL1  H27A 9582   4.101   6.896   8.067 -0.7004  0.0382 -0.5358
   96CHL1  H27B 9583   3.999   6.748   8.061  1.1557 -0.5010 -0.9329
   96CHL1  H27C 9584   4.082   6.788   8.210  0.4302 -0.1863  0.5393
   97OSM      N 9585   5.531   6.033  11.176  0.2586  0.4032  0.6269
   97OSM    C15 9586   5.441   6.077  11.288 -0.7011 -0.2568 -0.4204
   97OSM   H15A 9587   5.483   6.036  11.379  1.1842 -0.9321 -1.5463
   97OSM   H15B 9588   5.341   6.037  11.286 -1.0052  0.5057 -0.7111
   97OSM   H15C 9589   5.439   6.183  11.310  0.6980  0.0366 -1.5251
   97OSM    C14 9590   5.661   6.101  11.183 -0.0128 -0.1583 -0.3447
   97OSM   H14A 9591   5.715   6.034  11.118 -1.7819 -1.6040 -0.3880
   97OSM   H14B 9592   5.708   6.100  11.280 -1.6773 -1.6723  0.4883
   97OSM   H14C 9593   5.661   6.202  11.144  1.7313  0.2622  0.5943
   97OSM    C13 9594   5.540   5.880  11.184  0.2129 -1.0574  0.0116
   97OSM   H13A 9595   5.568   5.829  11.093 -1.8075  0.5930 -1.6850
   97OSM   H13B 9596   5.452   5.831  11.223  0.6354 -0.6138  1.5738
   97OSM   H13C 9597   5.610   5.849  11.260  1.1556 -1.0833 -0.8440
   97OSM    C12 9598   5.462   6.068  11.049 -0.9678 -0.1494 -0.1188
   97OSM   H12A 9599   5.431   6.172  11.041  1.0544  0.4850 -0.4033
   97OSM   H12B 9600   5.370   6.013  11.047  0.1749 -2.3264  2.3283
   97OSM    C11 9601   5.543   6.043  10.912  0.0589  0.4724  0.7368
   97OSM   H11A 9602   5.483   6.066  10.822  0.9977 -0.1440 -0.0583
   97OSM   H11B 9603   5.561   5.933  10.907 -1.3565  0.2223  0.6338
   97OSM      P 9604   5.679   6.254  10.870 -0.4172 -0.2822  0.1136
   97OSM    O13 9605   5.619   6.326  10.989  0.2236 -0.2659  0.4882
   97OSM    O14 9606   5.825   6.289  10.839 -0.1845 -0.7176  0.1582
   97OSM    O11 9607   5.583   6.284  10.744  0.1215  0.4535  0.2986
   97OSM    O12 9608   5.671   6.100  10.903 -0.1418 -0.2529  0.1478
   97OSM    C1S 9609   5.642   6.327  10.616 -0.0288  0.2284 -1.0121
   97OSM    H1S 9610   5.747   6.297  10.597 -0.2912 -0.1823 -1.9108
   97OSM    H1T 9611   5.657   6.437  10.616  1.1648  0.1031  0.7063
   97OSM     NF 9612   5.642   6.298  10.371 -0.5207  0.5683 -0.3558
   97OSM    HNF 9613   5.610   6.349  10.291 -0.1447  1.3614 -0.0159
   97OSM    C2S 9614   5.564   6.277  10.490  0.5125  0.0385 -0.7794
   97OSM    H2S 9615   5.534   6.172  10.508 -0.4721  0.6638  1.5487
   97OSM    C3S 9616   5.425   6.342  10.488 -0.0012  0.3128 -0.2751
   97OSM    H3S 9617   5.444   6.452  10.486 -0.1751  0.3393 -0.6596
   97OSM     O3 9618   5.347   6.325  10.606 -0.8305  0.4132  0.1414
   97OSM    HO3 9619   5.415   6.284  10.659 -1.2387 -1.5591 -0.7509
   97OSM    C4S 9620   5.345   6.300  10.362  0.5615 -0.2762 -0.3463
   97OSM    H4S 9621   5.356   6.192  10.343  1.3660 -0.7893  2.5602
   97OSM    C5S 9622   5.270   6.385  10.287 -0.8624  0.1557  0.8409
   97OSM    H5S 9623   5.267   6.494  10.305 -2.3412  0.3042 -0.1397
   97OSM    C6S 9624   5.201   6.347  10.160  0.4461 -0.1380 -0.4896
   97OSM    H6S 9625   5.106   6.403  10.148  0.9859  1.4510  2.0901
   97OSM    H6T 9626   5.163   6.242  10.160 -1.3450  0.4714 -1.1244
   97OSM    C7S 9627   5.307   6.359  10.044 -0.2323  0.0062  0.0605
   97OSM    H7S 9628   5.395   6.294  10.058  0.8127  1.4337  0.3089
   97OSM    H7T 9629   5.347   6.462  10.041  1.1349 -0.4378  1.6030
   97OSM    C8S 9630   5.248   6.322   9.902  0.0058  0.6647 -0.4440
   97OSM    H8S 9631   5.167   6.396   9.884  0.4518  1.4002  0.4963
   97OSM    H8T 9632   5.208   6.218   9.892 -1.2618  1.2807 -2.3502
   97OSM    C9S 9633   5.338   6.351   9.785 -0.2284 -0.4432  0.2360
   97OSM    H9S 9634   5.428   6.291   9.812 -1.0625 -0.9893  1.9393
   97OSM    H9T 9635   5.364   6.459   9.786  2.0156 -0.8180 -2.7928
   97OSM   C10S 9636   5.275   6.304   9.660  0.5825  0.3942 -0.0402
   97OSM   H10S 9637   5.187   6.366   9.633  0.5984  0.4084 -0.0596
   97OSM   H10T 9638   5.250   6.196   9.668  1.7355  0.0901 -0.3090
   97OSM   C11S 9639   5.369   6.306   9.536  0.1908 -0.5245  0.1582
   97OSM   H11S 9640   5.452   6.236   9.560  0.6737  0.5960  1.9759
   97OSM   H11T 9641   5.419   6.405   9.526 -0.3900 -0.0919  1.3399
   97OSM   C12S 9642   5.298   6.270   9.401 -0.2384  0.1933 -0.1159
   97OSM   H12S 9643   5.221   6.343   9.369 -2.0709 -0.0757  3.1677
   97OSM   H12T 9644   5.255   6.168   9.409  1.4932 -0.7605 -2.0730
   97OSM   C13S 9645   5.396   6.264   9.288 -0.0702  0.6411  0.0198
   97OSM   H13S 9646   5.497   6.249   9.333 -0.8593 -0.0895  1.6459
   97OSM   H13T 9647   5.399   6.368   9.249  2.4054  1.3809  1.8860
   97OSM   C14S 9648   5.373   6.158   9.177  0.4544  0.1940 -0.0517
   97OSM   H14S 9649   5.267   6.155   9.142  0.3761  0.6259  0.1439
   97OSM   H14T 9650   5.392   6.059   9.224  2.5577 -0.3672 -1.8988
   97OSM   C15S 9651   5.464   6.177   9.056 -0.5211 -0.3070 -0.0618
   97OSM   H15S 9652   5.565   6.160   9.100 -0.8698  2.0364  1.8378
   97OSM   H15T 9653   5.462   6.278   9.011  2.4639  0.1372  0.5482
   97OSM   C16S 9654   5.438   6.078   8.946 -0.1542  0.0654 -0.0060
   97OSM   H16S 9655   5.354   6.114   8.883  1.2372  2.1199 -0.8177
   97OSM   H16T 9656   5.429   5.980   8.998  1.8454  0.3500  0.9584
   97OSM   C17S 9657   5.548   6.066   8.838  0.2094  0.0485 -0.0527
   97OSM   H17S 9658   5.647   6.056   8.889  0.8537  0.9146 -1.0691
   97OSM   H17T 9659   5.548   6.169   8.795  1.4739  0.9074  1.8482
   97OSM   C18S 9660   5.523   5.967   8.722  0.4648 -0.2898  0.0913
   97OSM   H18S 9661   5.549   5.863   8.752  0.0527 -0.4903 -0.2456
   97OSM   H18T 9662   5.593   5.986   8.638  0.2713  0.6163  0.1281
   97OSM   H18U 9663   5.415   5.967   8.695 -0.2029 -1.6027  2.4752
   97OSM    C1F 9664   5.763   6.235  10.358 -0.1334  0.2163 -0.2329
   97OSM     OF 9665   5.805   6.158  10.445 -0.6871  0.5596  0.2141
   97OSM    C2F 9666   5.845   6.251  10.235 -0.2493 -0.1433 -0.6651
   97OSM    H2F 9667   5.926   6.175  10.238 -0.7186 -0.7495 -2.2297
   97OSM    H2G 9668   5.892   6.352  10.246  1.4087 -0.9953  0.6149
   97OSM    C3F 9669   5.763   6.226  10.098  0.7497  0.0561 -0.3581
   97OSM    H3F 9670   5.683   6.303  10.094  0.5964 -0.1019 -0.3501
   97OSM    H3G 9671   5.714   6.127  10.105 -0.8393  0.6673 -2.0755
   97OSM    C4F 9672   5.844   6.249   9.977  0.0598  0.9820  0.6917
   97OSM    H4F 9673   5.933   6.182   9.982 -1.1282 -0.7569 -0.2911
   97OSM    H4G 9674   5.864   6.357   9.964  0.2940  0.7393 -1.1694
   97OSM    C5F 9675   5.774   6.220   9.836 -0.5623  0.6313 -0.0713
   97OSM    H5F 9676   5.708   6.308   9.819 -0.4490  0.4050 -1.9185
   97OSM    H5G 9677   5.730   6.118   9.839  1.5601 -0.3349 -0.0573
   97OSM    C6F 9678   5.874   6.212   9.716  0.1720 -0.8584  0.0104
   97OSM    H6F 9679   5.965   6.152   9.736 -0.2863 -2.0322 -1.2806
   97OSM    H6G 9680   5.904   6.315   9.689 -1.4105 -0.5263 -0.5640
   97OSM    C7F 9681   5.815   6.136   9.593  0.7777  0.3169  0.2370
   97OSM    H7F 9682   5.718   6.174   9.554  0.6906 -0.1676 -0.0211
   97OSM    H7G 9683   5.791   6.035   9.632 -2.1669  0.7641 -0.2209
   97OSM    C8F 9684   5.900   6.126   9.467  0.2151  0.8080  0.3222
   97OSM    H8F 9685   6.000   6.093   9.503  0.5917  0.2184 -1.1612
   97OSM    H8G 9686   5.916   6.229   9.427 -1.8062  1.0429  0.0250
   97OSM    C9F 9687   5.837   6.039   9.362  0.0396 -0.5299  0.0326
   97OSM    H9F 9688   5.805   5.936   9.385 -2.2664  0.3905  1.3250
   97OSM   C10F 9689   5.825   6.086   9.233 -0.3583  0.1540  0.0907
   97OSM   H10F 9690   5.778   6.026   9.154 -1.0273  0.6307  0.1206
   97OSM   C11F 9691   5.866   6.221   9.181  0.2915  0.3732  0.0270
   97OSM   H11F 9692   5.969   6.245   9.215  1.0016  1.9027 -2.8770
   97OSM   H11G 9693   5.806   6.306   9.218  0.5046  0.5912 -0.1230
   97OSM   C12F 9694   5.868   6.246   9.030 -0.3243  0.2352 -0.1179
   97OSM   H12F 9695   5.860   6.355   9.008 -4.1855 -0.0350 -0.8053
   97OSM   H12G 9696   5.777   6.205   8.980 -1.0047  0.4356  0.9129
   97OSM   C13F 9697   5.982   6.181   8.953 -0.9099  0.2861  0.0419
   97OSM   H13F 9698   5.966   6.072   8.941 -1.6541  0.2552  1.2155
   97OSM   H13G 9699   6.079   6.174   9.007 -0.5001  0.3805 -0.6690
   97OSM   C14F 9700   6.011   6.234   8.805  0.1892  0.1796  0.3145
   97OSM   H14F 9701   6.041   6.341   8.808 -0.1526  0.2568  1.2513
   97OSM   H14G 9702   5.914   6.212   8.757 -0.0565 -1.1757  1.3519
   97OSM   C15F 9703   6.118   6.155   8.735  0.0807  0.0463 -0.2262
   97OSM   H15F 9704   6.096   6.047   8.750  0.2549 -0.0593 -0.7112
   97OSM   H15G 9705   6.214   6.164   8.791  0.5895 -1.3095 -0.8340
   97OSM   C16F 9706   6.138   6.174   8.587 -0.5782  0.4879 -0.9556
   97OSM   H16F 9707   6.045   6.153   8.530 -0.3225 -1.6770 -0.6487
   97OSM   H16G 9708   6.210   6.094   8.560  1.0206  1.4716  0.2446
   97OSM   C17F 9709   6.171   6.321   8.547 -0.1978 -0.7660  0.3254
   97OSM   H17F 9710   6.083   6.374   8.589  0.1243 -0.4633  0.6323
   97OSM   H17G 9711   6.176   6.330   8.437  1.0042 -4.2255 -0.0228
   97OSM   C18F 9712   6.289   6.399   8.611 -0.5638 -0.6553  0.5354
   97OSM   H18F 9713   6.283   6.392   8.722  0.4324  0.7235  0.7072
   97OSM   H18G 9714   6.283   6.508   8.587  0.5038 -0.2050  2.1479
   97OSM   H18H 9715   6.389   6.359   8.585  0.1386  0.2394  1.7428
   98OSM      N 9716   0.203   3.700  10.633  0.3656  0.1783  0.2381
   98OSM    C15 9717   0.272   3.743  10.507 -0.3299  0.1632 -0.1213
   98OSM   H15A 9718   0.297   3.847  10.512 -4.2446  1.2343  0.4384
   98OSM   H15B 9719   0.217   3.725  10.416 -2.4582  0.0060  1.1320
   98OSM   H15C 9720   0.366   3.688  10.500 -1.1319 -1.4923  1.2010
   98OSM    C14 9721   0.254   3.783  10.749 -0.2320 -0.1601 -0.1879
   98OSM   H14A 9722   0.361   3.781  10.751 -0.2354  0.0652  0.4627
   98OSM   H14B 9723   0.221   3.749  10.847 -1.4019  0.2951 -0.4016
   98OSM   H14C 9724   0.225   3.887  10.746  0.0442 -0.0964 -0.7504
   98OSM    C13 9725   0.061   3.751  10.620  0.3757 -0.2912  0.4571
   98OSM   H13A 9726  -0.002   3.697  10.551  0.7946 -0.7986  0.4630
   98OSM   H13B 9727   0.059   3.855  10.590 -1.4796  0.0401  1.5781
   98OSM   H13C 9728   0.013   3.757  10.716 -2.0690 -1.4265 -0.6080
   98OSM    C12 9729   0.209   3.554  10.658  0.1792  0.3273 -0.2674
   98OSM   H12A 9730   0.164   3.500  10.575 -2.3654  1.2942  0.4014
   98OSM   H12B 9731   0.140   3.529  10.737 -1.5000  0.5563 -1.6100
   98OSM    C11 9732   0.351   3.491  10.682  0.0861 -0.9794 -0.3974
   98OSM   H11A 9733   0.347   3.383  10.707 -1.0924 -0.9253 -0.3039
   98OSM   H11B 9734   0.389   3.548  10.770 -1.0824 -1.7147  0.6245
   98OSM      P 9735   0.587   3.551  10.579 -0.6630 -0.2668 -0.3365
   98OSM    O13 9736   0.617   3.658  10.486 -0.0789  0.0511 -0.6635
   98OSM    O14 9737   0.622   3.574  10.723 -0.1223  0.2798 -0.4272
   98OSM    O11 9738   0.668   3.429  10.531 -0.0037  0.5570 -0.1996
   98OSM    O12 9739   0.436   3.506  10.569 -0.4095 -0.8318 -0.1819
   98OSM    C1S 9740   0.630   3.290  10.532 -0.4911  0.1758  0.1597
   98OSM    H1S 9741   0.534   3.278  10.478  0.2891 -0.2985 -1.1630
   98OSM    H1T 9742   0.626   3.255  10.638  0.0206  2.9137  1.1870
   98OSM     NF 9743   0.692   3.065  10.460 -0.8598 -0.7684 -0.1199
   98OSM    HNF 9744   0.737   3.010  10.530  2.5217  1.6190 -0.2045
   98OSM    C2S 9745   0.737   3.204  10.466  0.2363  0.0052  0.7276
   98OSM    H2S 9746   0.749   3.235  10.360  1.6734 -1.3779  0.4380
   98OSM    C3S 9747   0.872   3.226  10.529  0.4852  0.8756 -0.2445
   98OSM    H3S 9748   0.860   3.201  10.637  0.6537  2.6103  0.2165
   98OSM     O3 9749   0.921   3.357  10.546 -0.1359 -0.2034  0.2246
   98OSM    HO3 9750   0.839   3.404  10.526 -0.4538 -1.5732 -1.9822
   98OSM    C4S 9751   0.979   3.142  10.469 -0.5918 -0.0465  0.1810
   98OSM    H4S 9752   0.975   3.038  10.504  0.1906 -0.3990 -0.7695
   98OSM    C5S 9753   1.062   3.181  10.370 -0.1429  0.9666  0.3086
   98OSM    H5S 9754   1.064   3.283  10.328  0.0476  1.4322  1.4114
   98OSM    C6S 9755   1.171   3.096  10.308 -0.1199 -0.3715 -0.9733
   98OSM    H6S 9756   1.169   2.994  10.352 -0.0683  0.6485  1.5668
   98OSM    H6T 9757   1.261   3.145  10.351  0.8416 -2.4914 -0.4374
   98OSM    C7S 9758   1.185   3.083  10.159 -0.0803  0.4240 -0.0648
   98OSM    H7S 9759   1.283   3.037  10.134 -1.0435  0.1676 -3.9900
   98OSM    H7T 9760   1.182   3.180  10.106  1.8362  0.0208 -0.9836
   98OSM    C8S 9761   1.073   2.995  10.096  0.5255  0.1765 -0.0108
   98OSM    H8S 9762   0.975   3.024  10.140  0.7000  1.5842 -0.4866
   98OSM    H8T 9763   1.097   2.891  10.124  0.6542  0.2193  0.0415
   98OSM    C9S 9764   1.067   3.001   9.947  0.0977  0.6202 -0.1639
   98OSM    H9S 9765   1.019   3.099   9.925  0.1726  0.6082 -0.3841
   98OSM    H9T 9766   1.004   2.921   9.902  1.7568 -0.3500 -0.8580
   98OSM   C10S 9767   1.189   2.984   9.861 -0.2673  0.1337  1.1453
   98OSM   H10S 9768   1.271   2.924   9.907  0.1708  0.5309  0.8903
   98OSM   H10T 9769   1.234   3.082   9.835 -0.0907 -0.6365 -1.8482
   98OSM   C11S 9770   1.158   2.926   9.713  0.4783  0.0788 -0.2102
   98OSM   H11S 9771   1.082   2.992   9.666 -1.0046 -1.6456 -0.3634
   98OSM   H11T 9772   1.111   2.826   9.723  0.1145  0.1283 -1.2812
   98OSM   C12S 9773   1.277   2.924   9.613 -0.1260 -0.0155  0.7645
   98OSM   H12S 9774   1.360   2.865   9.657  1.3250 -0.9347 -2.8361
   98OSM   H12T 9775   1.310   3.029   9.601 -1.2180  0.1013 -1.9888
   98OSM   C13S 9776   1.234   2.878   9.474 -0.3205  0.4705  0.4837
   98OSM   H13S 9777   1.144   2.933   9.440 -0.8196 -0.9957 -0.6550
   98OSM   H13T 9778   1.204   2.771   9.481 -0.3517  0.2770 -1.8784
   98OSM   C14S 9779   1.344   2.882   9.372  0.7230 -0.9580  0.1736
   98OSM   H14S 9780   1.417   2.803   9.401  0.3620 -0.7128  1.8856
   98OSM   H14T 9781   1.407   2.973   9.383  1.9473 -1.9952  2.7588
   98OSM   C15S 9782   1.298   2.866   9.224  0.2165  0.5857 -0.8651
   98OSM   H15S 9783   1.231   2.950   9.192 -0.6045 -0.6271 -2.4652
   98OSM   H15T 9784   1.229   2.782   9.203  0.1383  0.6773 -0.9760
   98OSM   C16S 9785   1.419   2.868   9.137 -0.4196 -0.0995 -0.6184
   98OSM   H16S 9786   1.479   2.779   9.166 -2.3576 -0.7951  1.5282
   98OSM   H16T 9787   1.484   2.956   9.159  0.0972 -0.5044 -0.5179
   98OSM   C17S 9788   1.384   2.859   8.989 -0.4393 -0.5107 -0.7667
   98OSM   H17S 9789   1.336   2.952   8.951 -0.2677 -1.7293 -4.3293
   98OSM   H17T 9790   1.306   2.781   8.975  0.0788 -0.7070 -2.8274
   98OSM   C18S 9791   1.502   2.819   8.904 -0.1143 -0.2080  0.0039
   98OSM   H18S 9792   1.537   2.914   8.858 -1.2942 -0.3281 -1.2158
   98OSM   H18T 9793   1.478   2.748   8.822 -0.3092  1.5099 -1.4885
   98OSM   H18U 9794   1.581   2.773   8.967 -1.3639 -0.9149  1.1186
   98OSM    C1F 9795   0.585   3.017  10.392  0.9069 -0.4161  0.2860
   98OSM     OF 9796   0.536   3.088  10.307 -0.1929 -0.4059  0.0067
   98OSM    C2F 9797   0.527   2.875  10.427 -0.0662  0.2039  0.1816
   98OSM    H2F 9798   0.420   2.882  10.455 -0.0845 -0.3504  0.2567
   98OSM    H2G 9799   0.594   2.833  10.506 -0.4498  1.5555  1.2737
   98OSM    C3F 9800   0.534   2.781  10.306 -0.1469 -0.2358  0.1888
   98OSM    H3F 9801   0.490   2.838  10.221 -0.0230 -0.3500  0.0471
   98OSM    H3G 9802   0.472   2.689  10.316  0.7625 -0.9374 -0.5008
   98OSM    C4F 9803   0.675   2.745  10.258  0.1223  0.0588 -0.3428
   98OSM    H4F 9804   0.719   2.678  10.335  0.8562  0.3758 -0.4782
   98OSM    H4G 9805   0.738   2.836  10.248  0.3556 -0.1793 -1.1796
   98OSM    C5F 9806   0.674   2.675  10.130  0.0224  0.1939  0.4343
   98OSM    H5F 9807   0.596   2.725  10.068 -0.0709  0.0246  0.4150
   98OSM    H5G 9808   0.650   2.567  10.136  0.4690  0.1410  1.6109
   98OSM    C6F 9809   0.805   2.679  10.045  0.1163  0.5270  0.3343
   98OSM    H6F 9810   0.895   2.632  10.090  1.3852 -0.6832 -3.1199
   98OSM    H6G 9811   0.832   2.785  10.024 -1.9454  0.6419 -2.2314
   98OSM    C7F 9812   0.778   2.616   9.905 -0.0089  0.8564  0.6804
   98OSM    H7F 9813   0.681   2.655   9.866 -0.1597  0.8161  1.0149
   98OSM    H7G 9814   0.767   2.505   9.912  0.7226  0.7153 -0.1720
   98OSM    C8F 9815   0.879   2.637   9.796 -0.3726  0.0419  0.3016
   98OSM    H8F 9816   0.902   2.746   9.787  2.2859 -0.3559  1.3190
   98OSM    H8G 9817   0.844   2.604   9.696  1.7200 -2.0302  0.1686
   98OSM    C9F 9818   1.010   2.571   9.833  0.2475 -0.6468 -0.8070
   98OSM    H9F 9819   1.055   2.622   9.919 -0.4040  0.4578 -1.0899
   98OSM   C10F 9820   1.068   2.475   9.764 -0.3778  0.7593 -0.1212
   98OSM   H10F 9821   1.172   2.444   9.781 -0.4660 -0.7758 -2.0815
   98OSM   C11F 9822   1.014   2.406   9.642  0.3613 -0.0172 -0.6935
   98OSM   H11F 9823   0.904   2.411   9.639  0.3007  2.3431  2.0270
   98OSM   H11G 9824   1.044   2.298   9.644 -0.8184 -0.3582 -1.0086
   98OSM   C12F 9825   1.062   2.451   9.504  0.8990 -0.8547  0.9702
   98OSM   H12F 9826   1.037   2.557   9.480  1.0981 -0.6926  1.4584
   98OSM   H12G 9827   1.016   2.388   9.425 -0.2165  0.5592  0.4465
   98OSM   C13F 9828   1.218   2.446   9.479  0.4017  0.1908  0.0598
   98OSM   H13F 9829   1.252   2.348   9.517  2.0018  1.1998  1.4021
   98OSM   H13G 9830   1.266   2.519   9.548  3.3576 -0.6090 -1.0151
   98OSM   C14F 9831   1.266   2.473   9.338 -0.3611  0.5404  0.7273
   98OSM   H14F 9832   1.377   2.471   9.338 -0.3419 -1.3950 -0.6346
   98OSM   H14G 9833   1.231   2.570   9.297 -0.4557 -1.0666 -3.4686
   98OSM   C15F 9834   1.226   2.371   9.229 -0.3001  0.6127  0.4674
   98OSM   H15F 9835   1.116   2.370   9.214 -0.1922 -1.5870 -0.4730
   98OSM   H15G 9836   1.250   2.273   9.273 -0.8250 -0.2211 -1.0324
   98OSM   C16F 9837   1.287   2.381   9.096 -0.0315 -0.5687 -0.2412
   98OSM   H16F 9838   1.252   2.292   9.039 -2.2359  0.5590 -0.7531
   98OSM   H16G 9839   1.398   2.373   9.100  0.0429  0.9026  2.5000
   98OSM   C17F 9840   1.246   2.501   9.012  1.1625  0.1633 -0.8210
   98OSM   H17F 9841   1.313   2.514   8.925  0.8902 -2.7584 -1.5643
   98OSM   H17G 9842   1.243   2.587   9.082 -0.0134 -1.1349  0.8033
   98OSM   C18F 9843   1.110   2.475   8.946  0.1796 -0.3007  0.0470
   98OSM   H18F 9844   1.123   2.393   8.873  0.4825  0.0733 -0.3235
   98OSM   H18G 9845   1.067   2.553   8.880 -1.3169 -0.6394  0.5718
   98OSM   H18H 9846   1.038   2.434   9.021  1.1513 -0.3759  0.9638
   99OSM      N 9847   6.371   5.439  10.956 -0.3024 -0.2190  0.4557
   99OSM    C15 9848   6.492   5.402  11.030  1.0271  0.1706  0.1925
   99OSM   H15A 9849   6.471   5.306  11.074 -0.1839 -0.0604 -0.8117
   99OSM   H15B 9850   6.518   5.464  11.115 -0.2317  0.0153  0.7165
   99OSM   H15C 9851   6.581   5.398  10.969 -0.8569 -0.7353 -2.7621
   99OSM    C14 9852   6.318   5.322  10.874  0.1353  0.1161  0.0166
   99OSM   H14A 9853   6.386   5.296  10.795  0.1813 -0.6315  0.2940
   99OSM   H14B 9854   6.219   5.342  10.837  0.3594 -1.3644 -1.5440
   99OSM   H14C 9855   6.300   5.232  10.932  1.7397  0.3257  0.9173
   99OSM    C13 9856   6.272   5.487  11.061 -0.1220 -0.2235  0.0096
   99OSM   H13A 9857   6.314   5.568  11.119 -1.4779  0.2149  0.4110
   99OSM   H13B 9858   6.248   5.408  11.131 -1.3374 -0.5421 -0.7292
   99OSM   H13C 9859   6.184   5.523  11.010  0.5850  1.5288 -0.0346
   99OSM    C12 9860   6.399   5.562  10.872 -0.1674 -0.0457  0.2368
   99OSM   H12A 9861   6.414   5.649  10.934 -1.2693 -1.0228  1.9686
   99OSM   H12B 9862   6.311   5.578  10.812  0.1697 -2.0535 -0.8755
   99OSM    C11 9863   6.514   5.556  10.767 -0.9903  0.3251 -0.1646
   99OSM   H11A 9864   6.495   5.643  10.701 -1.7523 -1.0423 -1.8114
   99OSM   H11B 9865   6.500   5.469  10.699  0.1066 -0.8190  1.0049
   99OSM      P 9866   6.774   5.479  10.795 -0.1396  0.0751  0.2068
   99OSM    O13 9867   6.901   5.546  10.834 -0.0289 -0.3294  0.0589
   99OSM    O14 9868   6.761   5.340  10.853 -0.2551 -0.6956  0.5751
   99OSM    O11 9869   6.768   5.482  10.638  0.2344  0.5278  1.3194
   99OSM    O12 9870   6.644   5.566  10.836  0.1147 -0.3191  0.3059
   99OSM    C1S 9871   6.782   5.603  10.559  0.0076  0.6705  0.1064
   99OSM    H1S 9872   6.860   5.673  10.596  1.3329 -1.3315  1.2821
   99OSM    H1T 9873   6.680   5.646  10.567 -0.9054 -1.4815  0.8868
   99OSM     NF 9874   6.893   5.658  10.351 -0.1276 -0.1852  0.2493
   99OSM    HNF 9875   6.839   5.719  10.294 -1.8343 -1.8494 -0.0029
   99OSM    C2S 9876   6.823   5.552  10.420  0.0376  0.2762 -0.5509
   99OSM    H2S 9877   6.893   5.468  10.440 -0.2430 -0.1819 -1.4266
   99OSM    C3S 9878   6.706   5.502  10.342 -0.4023  0.4772  0.7810
   99OSM    H3S 9879   6.653   5.596  10.316 -0.8661  1.2995  4.1702
   99OSM     O3 9880   6.620   5.411  10.411 -0.4322 -0.0955 -0.3153
   99OSM    HO3 9881   6.657   5.414  10.500 -0.9360 -0.5261 -0.0844
   99OSM    C4S 9882   6.748   5.439  10.213  0.1039  0.2852  0.0556
   99OSM    H4S 9883   6.830   5.366  10.226 -0.5554 -0.6118 -0.6173
   99OSM    C5S 9884   6.689   5.452  10.090  0.0580 -0.2850 -0.0871
   99OSM    H5S 9885   6.593   5.505  10.076 -0.9784 -2.3288 -1.0069
   99OSM    C6S 9886   6.725   5.383   9.964 -1.3474  0.1346  0.0636
   99OSM    H6S 9887   6.725   5.448   9.874  1.2856  0.3233  0.1217
   99OSM    H6T 9888   6.651   5.299   9.961 -1.8295  0.2812  3.5594
   99OSM    C7S 9889   6.870   5.330   9.951  0.4716 -0.2016 -0.2539
   99OSM    H7S 9890   6.889   5.271  10.043  0.8738  1.7786  0.9974
   99OSM    H7T 9891   6.934   5.419   9.968 -0.8622  0.5536  1.0316
   99OSM    C8S 9892   6.896   5.273   9.813  0.2828 -0.4554  0.4678
   99OSM    H8S 9893   7.002   5.278   9.779  0.1348  1.3665  0.1739
   99OSM    H8T 9894   6.843   5.339   9.742 -0.3388 -1.2052  0.2254
   99OSM    C9S 9895   6.852   5.136   9.787 -0.2812  0.4664  0.1028
   99OSM    H9S 9896   6.744   5.129   9.812 -0.5672 -0.7791 -1.3230
   99OSM    H9T 9897   6.909   5.070   9.856 -0.0911  1.0461  0.5086
   99OSM   C10S 9898   6.873   5.071   9.650 -0.5559 -1.1561 -0.0366
   99OSM   H10S 9899   6.869   5.151   9.573  2.0172 -0.2052  0.6957
   99OSM   H10T 9900   6.783   5.007   9.644 -0.1910 -1.7321  0.5382
   99OSM   C11S 9901   7.010   5.003   9.631 -0.4401 -0.0794 -0.4150
   99OSM   H11S 9902   7.043   4.963   9.730  1.8372  3.0996  0.2388
   99OSM   H11T 9903   7.072   5.092   9.609  0.3249 -0.3313  0.6128
   99OSM   C12S 9904   7.012   4.909   9.518 -0.0741  0.1501  0.2770
   99OSM   H12S 9905   7.111   4.863   9.500 -0.6045 -0.3640 -1.6219
   99OSM   H12T 9906   6.932   4.832   9.527 -0.5107  0.5097 -0.4376
   99OSM   C13S 9907   6.987   4.972   9.378 -0.3380 -0.1411 -0.1352
   99OSM   H13S 9908   7.065   5.048   9.358 -0.2951 -0.1939 -0.1700
   99OSM   H13T 9909   6.885   5.012   9.396  0.8642  2.9515  0.4155
   99OSM   C14S 9910   6.986   4.870   9.263 -0.2649  1.3245  0.5007
   99OSM   H14S 9911   7.089   4.832   9.247 -0.4659  0.9000  0.2047
   99OSM   H14T 9912   6.949   4.926   9.174 -0.7255 -0.5251 -0.5241
   99OSM   C15S 9913   6.882   4.750   9.274 -0.4510 -0.9836 -0.7093
   99OSM   H15S 9914   6.787   4.792   9.314  0.8117  0.1950  1.2139
   99OSM   H15T 9915   6.919   4.672   9.345  0.5463 -0.5058 -0.6908
   99OSM   C16S 9916   6.858   4.679   9.138 -0.0215  0.9678 -0.3599
   99OSM   H16S 9917   6.783   4.598   9.150  0.5188  0.4984 -0.0857
   99OSM   H16T 9918   6.947   4.622   9.103 -1.3383 -1.5399  0.1982
   99OSM   C17S 9919   6.805   4.770   9.037 -0.2722  0.2329  0.1707
   99OSM   H17S 9920   6.882   4.847   9.015 -1.2532  1.2624  0.2605
   99OSM   H17T 9921   6.724   4.831   9.082 -1.8126 -1.2831 -0.4286
   99OSM   C18S 9922   6.756   4.710   8.904  0.7424  0.2034 -0.3593
   99OSM   H18S 9923   6.809   4.614   8.885  1.7068  0.5454  0.4928
   99OSM   H18T 9924   6.789   4.778   8.822 -3.1075  1.2676 -1.2276
   99OSM   H18U 9925   6.646   4.699   8.893  1.0011 -1.4245 -1.7392
   99OSM    C1F 9926   7.017   5.687  10.390  0.3658 -0.0047  0.2652
   99OSM     OF 9927   7.082   5.603  10.457 -0.1218 -0.0673 -0.1342
   99OSM    C2F 9928   7.074   5.818  10.352  0.3608 -0.5601  0.3423
   99OSM    H2F 9929   7.115   5.872  10.440  0.4270 -0.6213  0.3497
   99OSM    H2G 9930   6.990   5.875  10.307 -0.2069 -1.6825 -0.0602
   99OSM    C3F 9931   7.194   5.804  10.249  0.5227  0.1027  0.7743
   99OSM    H3F 9932   7.235   5.906  10.262  1.6587  0.0054 -1.5394
   99OSM    H3G 9933   7.273   5.734  10.283 -0.0222 -0.2991  1.2267
   99OSM    C4F 9934   7.146   5.758  10.115  0.3220  0.0751 -0.4559
   99OSM    H4F 9935   7.081   5.842  10.085 -1.4872 -0.6542  1.1707
   99OSM    H4G 9936   7.079   5.671  10.134  0.1824  0.6185  1.8550
   99OSM    C5F 9937   7.258   5.743  10.022  0.0088  0.2494  0.3712
   99OSM    H5F 9938   7.333   5.668  10.055  1.8427  1.6940 -0.3030
   99OSM    H5G 9939   7.320   5.834  10.007  2.4359 -1.6470 -2.0881
   99OSM    C6F 9940   7.213   5.687   9.878 -0.8291 -0.6922 -0.5802
   99OSM    H6F 9941   7.164   5.770   9.824 -1.4844 -2.3335 -2.6389
   99OSM    H6G 9942   7.137   5.608   9.894 -2.3142  0.7423 -0.3550
   99OSM    C7F 9943   7.331   5.639   9.793  0.4100 -0.0076 -0.0670
   99OSM    H7F 9944   7.381   5.548   9.834  1.1552  1.5688  2.7705
   99OSM    H7G 9945   7.411   5.715   9.802  1.6151 -1.3203  0.7688
   99OSM    C8F 9946   7.289   5.617   9.641 -0.0648 -0.2020 -0.2299
   99OSM    H8F 9947   7.384   5.589   9.591 -0.1102 -0.4645 -0.1691
   99OSM    H8G 9948   7.253   5.716   9.605 -0.7079  0.7071  2.6711
   99OSM    C9F 9949   7.180   5.513   9.635  0.3333  0.0139  0.0876
   99OSM    H9F 9950   7.093   5.527   9.700  1.2589 -0.8496  1.5549
   99OSM   C10F 9951   7.174   5.409   9.557 -0.2823  0.3188 -0.0050
   99OSM   H10F 9952   7.086   5.344   9.568  1.4097 -1.6939  3.3306
   99OSM   C11F 9953   7.277   5.378   9.454  0.1335 -0.5264 -0.2332
   99OSM   H11F 9954   7.365   5.330   9.501 -0.3302 -0.0318  1.1838
   99OSM   H11G 9955   7.297   5.466   9.388  1.4381 -0.6493 -0.0150
   99OSM   C12F 9956   7.223   5.257   9.374  0.5661  0.3542 -0.2709
   99OSM   H12F 9957   7.126   5.280   9.325 -0.3881 -0.1406  1.3514
   99OSM   H12G 9958   7.198   5.178   9.448  0.1557  0.1633 -0.6126
   99OSM   C13F 9959   7.336   5.210   9.275  0.9973  0.0478  0.6824
   99OSM   H13F 9960   7.414   5.189   9.352  0.2007  2.8037  2.4304
   99OSM   H13G 9961   7.351   5.304   9.217 -1.0930  0.7655  1.2134
   99OSM   C14F 9962   7.305   5.095   9.176  0.1869  0.6512 -0.9252
   99OSM   H14F 9963   7.274   5.002   9.230  0.0144  0.7234 -0.8971
   99OSM   H14G 9964   7.399   5.075   9.121  0.3504  0.1372 -0.4689
   99OSM   C15F 9965   7.192   5.127   9.069  0.6082 -0.3062 -0.2754
   99OSM   H15F 9966   7.191   5.236   9.047  1.1719 -0.3223 -0.3909
   99OSM   H15G 9967   7.105   5.097   9.132  0.2081  2.8317  0.8168
   99OSM   C16F 9968   7.193   5.052   8.936  0.5161  0.2129 -0.2844
   99OSM   H16F 9969   7.204   4.945   8.962  1.0506  0.4257  0.4124
   99OSM   H16G 9970   7.284   5.089   8.884 -0.5048  1.8332 -1.0181
   99OSM   C17F 9971   7.066   5.086   8.854  0.3574 -0.0658 -0.0214
   99OSM   H17F 9972   7.084   5.190   8.818  2.3489  0.3227  1.8805
   99OSM   H17G 9973   6.973   5.083   8.915  0.8530 -1.1040  0.7060
   99OSM   C18F 9974   7.042   5.000   8.730 -0.0553  0.3100  0.4784
   99OSM   H18F 9975   7.014   4.893   8.739  1.2019 -0.0771  0.0443
   99OSM   H18G 9976   7.131   5.008   8.664 -0.8336  2.3673 -0.4111
   99OSM   H18H 9977   6.968   5.040   8.658 -0.5636  0.3377  1.0096
  100OSM      N 9978   3.284   6.777  10.526 -0.0632 -0.5911 -0.5331
  100OSM    C15 9979   3.212   6.644  10.513  0.4909 -0.0413  0.4823
  100OSM   H15A 9980   3.264   6.579  10.445 -0.4854  0.4906 -0.8178
  100OSM   H15B 9981   3.111   6.660  10.477 -0.1793 -1.0893  1.7817
  100OSM   H15C 9982   3.219   6.588  10.605  1.4502 -1.5909 -0.4786
  100OSM    C14 9983   3.273   6.842  10.395 -0.2485 -0.6082  0.4344
  100OSM   H14A 9984   3.314   6.941  10.385 -0.1259 -0.8070 -1.1676
  100OSM   H14B 9985   3.173   6.850  10.356 -0.4194 -1.3386  0.7009
  100OSM   H14C 9986   3.313   6.780  10.316  1.4194 -0.2791  0.9760
  100OSM    C13 9987   3.217   6.862  10.628 -0.2523  0.5738  0.3075
  100OSM   H13A 9988   3.274   6.952  10.642 -0.0247  0.9772 -2.6203
  100OSM   H13B 9989   3.211   6.812  10.723  1.9518 -0.1858  0.1038
  100OSM   H13C 9990   3.115   6.876  10.593 -1.4202 -0.8385  2.8629
  100OSM    C12 9991   3.428   6.753  10.565  0.6220 -0.0619 -0.2325
  100OSM   H12A 9992   3.484   6.845  10.557  0.5748  0.1026  1.1171
  100OSM   H12B 9993   3.476   6.679  10.502  2.5405  0.2718  0.7896
  100OSM    C11 9994   3.450   6.705  10.706 -0.2555  0.1862  0.0983
  100OSM   H11A 9995   3.409   6.775  10.782  1.3152 -0.2158  1.3820
  100OSM   H11B 9996   3.560   6.701  10.720 -0.1836 -0.0467 -0.5051
  100OSM      P 9997   3.470   6.439  10.732  0.2556  0.2548  0.1147
  100OSM    O13 9998   3.566   6.439  10.844 -0.2503  0.0749 -0.2216
  100OSM    O14 9999   3.379   6.325  10.712 -0.0754  0.2299 -0.7485
  100OSM    O1110000   3.539   6.464  10.584  0.2050  0.0249 -0.7098
  100OSM    O1210001   3.389   6.578  10.734  0.4654  0.3580  0.6080
  100OSM    C1S10002   3.561   6.363  10.490 -0.8196  0.2451  0.0448
  100OSM    H1S10003   3.483   6.285  10.486  0.7356 -1.4251  0.6634
  100OSM    H1T10004   3.660   6.313  10.498 -1.5062 -1.4307 -1.3755
  100OSM     NF10005   3.559   6.340  10.242 -0.9191 -0.3213  0.1730
  100OSM    HNF10006   3.641   6.325  10.188 -0.3625  4.2385 -0.6381
  100OSM    C2S10007   3.559   6.432  10.351  0.5750  0.5475  0.5686
  100OSM    H2S10008   3.468   6.494  10.336  0.0558 -0.5533 -1.2947
  100OSM    C3S10009   3.677   6.532  10.334  0.0125 -0.0038  0.3519
  100OSM    H3S10010   3.771   6.480  10.306 -1.3956 -2.2493 -0.4505
  100OSM     O310011   3.708   6.614  10.450  0.5748  0.0514 -0.8698
  100OSM    HO310012   3.658   6.568  10.518  0.6533 -0.7681 -1.3433
  100OSM    C4S10013   3.649   6.628  10.219 -0.1206 -0.3246 -0.4734
  100OSM    H4S10014   3.553   6.682  10.225 -0.3041 -0.6644 -0.3171
  100OSM    C5S10015   3.749   6.654  10.124  0.5800 -0.3117  0.0579
  100OSM    H5S10016   3.850   6.610  10.135  0.4085 -0.3384  1.7094
  100OSM    C6S10017   3.733   6.760  10.020  0.7645  0.1950 -0.3770
  100OSM    H6S10018   3.806   6.842  10.041  0.3673  0.6593 -0.7823
  100OSM    H6T10019   3.630   6.801  10.022  0.7473  0.1534 -0.4234
  100OSM    C7S10020   3.779   6.734   9.872 -0.3250 -0.4900 -0.3508
  100OSM    H7S10021   3.722   6.648   9.831 -0.4953 -2.2600  3.2025
  100OSM    H7T10022   3.884   6.699   9.883 -0.5071 -0.9768 -0.1610
  100OSM    C8S10023   3.771   6.858   9.780  0.4906 -0.6622 -0.1886
  100OSM    H8S10024   3.831   6.947   9.812  1.7906 -1.4012 -0.5210
  100OSM    H8T10025   3.664   6.889   9.781  0.7341  0.2551 -0.7993
  100OSM    C9S10026   3.803   6.821   9.636  0.0510  0.6839  0.2856
  100OSM    H9S10027   3.724   6.752   9.599  0.6720 -0.7664  1.5237
  100OSM    H9T10028   3.897   6.762   9.643 -0.4884 -0.1671  0.4928
  100OSM   C10S10029   3.809   6.936   9.536  0.1000 -0.5418  0.5938
  100OSM   H10S10030   3.866   7.021   9.579 -2.1687  1.6289 -0.4302
  100OSM   H10T10031   3.711   6.984   9.514  0.1490 -0.7244 -0.0642
  100OSM   C11S10032   3.869   6.899   9.395 -0.3120  1.0460 -0.7146
  100OSM   H11S10033   3.822   6.805   9.357  0.5924  0.2038  0.1613
  100OSM   H11T10034   3.977   6.884   9.415 -0.3186  2.0102  0.1191
  100OSM   C12S10035   3.859   7.006   9.284 -0.2032  0.2738 -0.0992
  100OSM   H12S10036   3.902   7.106   9.310  2.7904 -0.8071 -0.4687
  100OSM   H12T10037   3.753   7.010   9.252 -0.2267 -0.5760 -0.1333
  100OSM   C13S10038   3.933   6.955   9.163 -0.3926 -0.3941  0.1966
  100OSM   H13S10039   3.883   6.861   9.131 -2.1460 -0.1386  2.0082
  100OSM   H13T10040   4.037   6.935   9.199  0.6630  3.2681 -0.3789
  100OSM   C14S10041   3.940   7.047   9.041 -0.9736 -0.0107 -0.3968
  100OSM   H14S10042   4.000   7.139   9.055  2.5606 -2.2075 -0.0941
  100OSM   H14T10043   3.836   7.081   9.023 -1.4835 -0.0957  2.0175
  100OSM   C15S10044   4.004   6.971   8.926 -0.3227  0.1861 -0.1317
  100OSM   H15S10045   3.954   6.875   8.902  0.2426 -0.2632  0.4169
  100OSM   H15T10046   4.113   6.949   8.939  0.3899  2.0886 -2.2425
  100OSM   C16S10047   3.993   7.065   8.804  0.1461 -0.2217  0.3190
  100OSM   H16S10048   4.054   7.156   8.819 -0.3096  0.2008 -0.3549
  100OSM   H16T10049   3.886   7.092   8.793 -0.3234 -1.8777  0.4570
  100OSM   C17S10050   4.029   6.992   8.672  0.2029 -0.3164 -0.1676
  100OSM   H17S10051   4.019   7.069   8.593  1.1684 -0.6999 -0.6748
  100OSM   H17T10052   3.960   6.908   8.649  1.4750 -1.0732 -1.4033
  100OSM   C18S10053   4.169   6.928   8.665  0.9067 -0.3429 -0.3271
  100OSM   H18S10054   4.173   6.873   8.568 -3.3539 -1.2529 -0.1694
  100OSM   H18T10055   4.182   6.857   8.749  0.9908 -0.2567 -0.2676
  100OSM   H18U10056   4.251   7.003   8.664  1.8856 -1.3245  1.4441
  100OSM    C1F10057   3.463   6.246  10.222 -0.2543  0.4232 -0.7423
  100OSM     OF10058   3.360   6.233  10.284  0.2393  0.7016  0.2230
  100OSM    C2F10059   3.499   6.135  10.113  0.1022  0.4879  0.0182
  100OSM    H2F10060   3.499   6.035  10.161  0.4510 -0.0506 -1.0652
  100OSM    H2G10061   3.605   6.142  10.079 -0.3865  0.7686 -1.4861
  100OSM    C3F10062   3.390   6.121  10.004  0.2165 -0.0014  0.3126
  100OSM    H3F10063   3.381   6.219   9.953  1.4947 -0.0096  0.0361
  100OSM    H3G10064   3.291   6.101  10.050  0.2570  0.9153  0.8155
  100OSM    C4F10065   3.416   6.038   9.883 -0.0912 -0.4410  0.0992
  100OSM    H4F10066   3.431   5.935   9.922 -1.8768 -1.3583 -1.4994
  100OSM    H4G10067   3.504   6.072   9.826  1.8296 -2.2387  1.8172
  100OSM    C5F10068   3.283   6.036   9.806 -0.1599 -0.1679 -0.8978
  100OSM    H5F10069   3.246   6.135   9.772 -0.6442  0.1707  0.5544
  100OSM    H5G10070   3.206   5.996   9.874  0.5819  0.3507  0.2821
  100OSM    C6F10071   3.300   5.948   9.677 -0.1802 -0.2818  0.2419
  100OSM    H6F10072   3.295   5.838   9.697  0.6271 -0.4246 -0.2956
  100OSM    H6G10073   3.404   5.962   9.640 -0.7345  3.5699 -0.1945
  100OSM    C7F10074   3.204   5.983   9.559  0.1313 -0.1793  0.4814
  100OSM    H7F10075   3.100   5.994   9.596  1.0605  1.9110  2.7819
  100OSM    H7G10076   3.207   5.902   9.483  2.3279 -1.9880  2.3441
  100OSM    C8F10077   3.248   6.114   9.482  0.6999 -0.3958 -0.5295
  100OSM    H8F10078   3.252   6.203   9.548  1.0787 -0.8480  0.0579
  100OSM    H8G10079   3.156   6.131   9.421  0.4234 -0.9570 -0.2826
  100OSM    C9F10080   3.379   6.100   9.403 -0.2996 -0.2395 -1.3353
  100OSM    H9F10081   3.469   6.058   9.451 -0.1891  1.4328 -0.0164
  100OSM   C10F10082   3.381   6.110   9.267  0.3225  0.0025 -0.6033
  100OSM   H10F10083   3.476   6.082   9.220 -0.1311 -1.0161 -0.9374
  100OSM   C11F10084   3.275   6.153   9.166 -0.6225 -0.4337  0.0888
  100OSM   H11F10085   3.300   6.246   9.111 -1.8428  0.7437  1.4548
  100OSM   H11G10086   3.187   6.185   9.226 -0.1170  1.4417 -0.1000
  100OSM   C12F10087   3.255   6.038   9.062  0.1239 -0.3728 -0.1188
  100OSM   H12F10088   3.356   5.999   9.039 -0.4430 -1.5459 -0.6860
  100OSM   H12G10089   3.209   6.080   8.970 -2.7228  1.2754  1.8830
  100OSM   C13F10090   3.172   5.927   9.121 -0.1239  0.0500  0.0653
  100OSM   H13F10091   3.221   5.887   9.213  1.1313 -2.1098 -1.4519
  100OSM   H13G10092   3.184   5.850   9.042 -0.1128  0.8048 -0.6820
  100OSM   C14F10093   3.028   5.969   9.141  0.0678  0.1762 -0.5964
  100OSM   H14F10094   2.989   5.998   9.041  1.8464  0.6181 -1.2065
  100OSM   H14G10095   3.015   6.060   9.204 -0.9695 -0.1878 -0.2645
  100OSM   C15F10096   2.971   5.849   9.218 -0.7931  0.7203 -0.0365
  100OSM   H15F10097   3.029   5.826   9.310 -0.5203 -2.3005 -0.8723
  100OSM   H15G10098   2.982   5.765   9.146 -2.0243  1.1265 -0.7420
  100OSM   C16F10099   2.817   5.871   9.260 -0.1988  0.0394  0.3655
  100OSM   H16F10100   2.775   5.935   9.180 -0.9484 -0.6792  0.1637
  100OSM   H16G10101   2.799   5.936   9.348 -2.3606 -1.5521  1.2001
  100OSM   C17F10102   2.739   5.748   9.266  1.5185 -0.2011 -0.0605
  100OSM   H17F10103   2.794   5.680   9.335 -1.2948 -1.3834  1.2156
  100OSM   H17G10104   2.743   5.700   9.166 -1.8696  0.7481 -0.7711
  100OSM   C18F10105   2.592   5.757   9.317 -0.2334  0.7440 -0.5693
  100OSM   H18F10106   2.559   5.673   9.382 -0.8893  1.5295  0.1356
  100OSM   H18G10107   2.520   5.767   9.234 -1.2204  1.0032  0.2896
  100OSM   H18H10108   2.585   5.845   9.385  0.4792 -0.0015  0.5243
  101OSM      N10109   1.554   6.429  11.215 -0.2205 -0.6139  0.2738
  101OSM    C1510110   1.407   6.387  11.199 -0.0345 -0.5021  0.2293
  101OSM   H15A10111   1.410   6.280  11.181 -1.4209 -0.4381 -0.5263
  101OSM   H15B10112   1.362   6.431  11.111 -1.3250 -0.7786  0.7357
  101OSM   H15C10113   1.353   6.424  11.284 -0.4074 -0.7253  0.0908
  101OSM    C1410114   1.554   6.581  11.215  0.0977  0.1510 -0.0327
  101OSM   H14A10115   1.520   6.620  11.120  0.8494  1.7727  0.3174
  101OSM   H14B10116   1.651   6.626  11.231  1.2137 -2.0686 -0.1778
  101OSM   H14C10117   1.485   6.617  11.289  1.2883 -2.1879  2.3915
  101OSM    C1310118   1.610   6.390  11.349 -0.0640  0.0843  0.1768
  101OSM   H13A10119   1.580   6.289  11.373 -1.0274  0.7396  1.8913
  101OSM   H13B10120   1.551   6.446  11.420 -1.8646 -0.3222 -0.9521
  101OSM   H13C10121   1.715   6.415  11.359  0.0781 -1.1015  2.1120
  101OSM    C1210122   1.631   6.374  11.101 -0.1250 -0.1887  0.3205
  101OSM   H12A10123   1.730   6.414  11.084 -1.1520  2.0561 -0.8220
  101OSM   H12B10124   1.575   6.391  11.010  0.1470 -1.8355 -0.1719
  101OSM    C1110125   1.645   6.221  11.107  0.1381  0.0260 -0.1041
  101OSM   H11A10126   1.683   6.187  11.205 -0.5923  1.1055  0.5757
  101OSM   H11B10127   1.723   6.205  11.030 -0.4244  1.4314 -0.9945
  101OSM      P10128   1.480   6.129  10.922 -0.5463  0.8880  0.4253
  101OSM    O1310129   1.542   5.997  10.872  0.1716 -0.5750 -0.3428
  101OSM    O1410130   1.334   6.140  10.908  0.1329 -0.0899 -0.8282
  101OSM    O1110131   1.539   6.250  10.845  0.0868 -0.3095 -0.5401
  101OSM    O1210132   1.522   6.146  11.074  0.1700  0.3050  0.2095
  101OSM    C1S10133   1.635   6.246  10.745 -0.3124  0.4239 -0.1199
  101OSM    H1S10134   1.714   6.170  10.767 -0.8662 -0.5309 -1.3392
  101OSM    H1T10135   1.680   6.347  10.759 -1.1281  1.2239 -2.7088
  101OSM     NF10136   1.684   6.226  10.499  0.4599  0.0601 -0.0214
  101OSM    HNF10137   1.686   6.297  10.429  0.3665 -0.4134 -0.5183
  101OSM    C2S10138   1.578   6.229  10.598  0.7649 -0.3149  0.1095
  101OSM    H2S10139   1.534   6.127  10.596  0.6909 -0.3411  1.6878
  101OSM    C3S10140   1.469   6.334  10.573  0.2706  0.0765 -0.3159
  101OSM    H3S10141   1.517   6.435  10.574 -0.2834  0.3449 -0.7605
  101OSM     O310142   1.356   6.324  10.661 -0.2921  0.7467 -0.2394
  101OSM    HO310143   1.388   6.273  10.736  0.8639 -0.4369 -1.4755
  101OSM    C4S10144   1.409   6.312  10.433  0.1717 -0.1263 -0.1226
  101OSM    H4S10145   1.361   6.214  10.423 -1.3234  0.6977 -1.6951
  101OSM    C5S10146   1.401   6.399  10.333 -0.7374  0.1409 -0.5985
  101OSM    H5S10147   1.439   6.501  10.348 -0.3081 -0.1917  0.7092
  101OSM    C6S10148   1.342   6.365  10.197 -0.2426 -0.1237 -0.5335
  101OSM    H6S10149   1.282   6.455  10.171 -1.0154 -0.3923  0.2612
  101OSM    H6T10150   1.266   6.284  10.208 -2.5404  2.0202  0.4977
  101OSM    C7S10151   1.430   6.345  10.069  0.3238 -0.8105 -0.1343
  101OSM    H7S10152   1.480   6.246  10.074  0.8301 -0.5649 -0.2421
  101OSM    H7T10153   1.504   6.427  10.060 -1.5119  1.0743  1.0963
  101OSM    C8S10154   1.338   6.345   9.945  0.3688 -0.3633 -0.4064
  101OSM    H8S10155   1.300   6.449   9.932  1.7597  0.3438  0.8901
  101OSM    H8T10156   1.252   6.276   9.952  0.4144 -0.4983 -1.0708
  101OSM    C9S10157   1.421   6.320   9.816  0.4783  0.1075  0.0373
  101OSM    H9S10158   1.457   6.216   9.824  2.1996  0.5352 -1.4220
  101OSM    H9T10159   1.514   6.380   9.802  0.0494  0.6285 -0.6268
  101OSM   C10S10160   1.326   6.339   9.699 -0.0625 -0.6670 -0.5602
  101OSM   H10S10161   1.302   6.446   9.714 -1.7189 -1.2949  2.0923
  101OSM   H10T10162   1.226   6.299   9.728  0.4732 -1.6492  0.0227
  101OSM   C11S10163   1.378   6.281   9.563 -0.0341 -0.0518  0.4244
  101OSM   H11S10164   1.397   6.171   9.568  0.2798  0.0073  0.5121
  101OSM   H11T10165   1.469   6.334   9.528 -1.1547  1.2639 -0.5994
  101OSM   C12S10166   1.275   6.306   9.448  0.0278 -0.0602  0.2895
  101OSM   H12S10167   1.281   6.415   9.430 -3.2094  0.0887 -0.3741
  101OSM   H12T10168   1.175   6.281   9.490  0.0256 -2.2004 -0.8365
  101OSM   C13S10169   1.320   6.239   9.314 -0.1235 -1.1055 -0.3928
  101OSM   H13S10170   1.341   6.132   9.331  1.9305 -0.5283  1.1214
  101OSM   H13T10171   1.417   6.279   9.276 -0.3624 -1.0899 -1.0021
  101OSM   C14S10172   1.214   6.262   9.201 -0.6839  0.1473 -0.1121
  101OSM   H14S10173   1.113   6.231   9.234  0.3824 -3.7400  0.0082
  101OSM   H14T10174   1.236   6.190   9.119  3.6518  1.5203 -0.3993
  101OSM   C15S10175   1.214   6.410   9.151 -0.2563  0.5266  0.1972
  101OSM   H15S10176   1.309   6.464   9.171 -1.3374  2.0606  1.4910
  101OSM   H15T10177   1.143   6.462   9.219 -1.0241  0.7505 -0.7532
  101OSM   C16S10178   1.173   6.444   9.010  0.7884  0.2618 -0.6150
  101OSM   H16S10179   1.072   6.402   8.989 -0.4542  3.0419 -0.6410
  101OSM   H16T10180   1.237   6.403   8.928 -0.8934 -0.0175 -1.8522
  101OSM   C17S10181   1.148   6.593   9.008  0.3770 -0.0685  0.0511
  101OSM   H17S10182   1.238   6.657   9.019 -0.0865  0.3031  2.3442
  101OSM   H17T10183   1.078   6.622   9.089 -1.9602 -0.6896 -1.6423
  101OSM   C18S10184   1.076   6.632   8.877 -0.2707  0.0337  0.0320
  101OSM   H18S10185   1.054   6.741   8.875  1.0079  0.2910 -1.8607
  101OSM   H18T10186   0.978   6.581   8.882  0.1237 -0.7170  0.3243
  101OSM   H18U10187   1.127   6.604   8.783 -0.6497 -0.2172 -0.0990
  101OSM    C1F10188   1.775   6.133  10.502 -0.4602  0.9119  0.3089
  101OSM     OF10189   1.766   6.035  10.581 -0.7555 -0.6323 -0.4299
  101OSM    C2F10190   1.889   6.144  10.413 -1.1663  0.2741  0.1570
  101OSM    H2F10191   1.974   6.090  10.461 -0.0738  1.8045  0.0087
  101OSM    H2G10192   1.913   6.252  10.407 -4.3683  1.3479  3.2632
  101OSM    C3F10193   1.872   6.075  10.277 -0.3586  0.1229  0.1442
  101OSM    H3F10194   1.847   5.968  10.290  0.3898  0.1033  1.6547
  101OSM    H3G10195   1.968   6.089  10.223 -1.8174  3.6147 -1.9094
  101OSM    C4F10196   1.760   6.136  10.191  0.3705 -0.4442 -0.4955
  101OSM    H4F10197   1.772   6.242  10.161 -1.2500 -0.6317 -1.9818
  101OSM    H4G10198   1.666   6.143  10.250 -1.2738  2.7009 -3.1814
  101OSM    C5F10199   1.734   6.054  10.064 -0.0076  0.5852  0.6227
  101OSM    H5F10200   1.625   6.056  10.046 -0.0011 -1.3173  0.1921
  101OSM    H5G10201   1.760   5.946  10.074 -2.4816 -0.0447  0.7713
  101OSM    C6F10202   1.798   6.120   9.942  0.0889  0.2742  0.2147
  101OSM    H6F10203   1.771   6.228   9.938  1.0968  0.5437  0.4107
  101OSM    H6G10204   1.908   6.111   9.927 -0.1202  0.0864 -1.3148
  101OSM    C7F10205   1.742   6.062   9.809  0.7857  0.4217 -0.2399
  101OSM    H7F10206   1.632   6.074   9.806  0.6629 -0.7168 -0.9870
  101OSM    H7G10207   1.762   5.954   9.821  1.3118  0.6744  1.3085
  101OSM    C8F10208   1.804   6.103   9.677  0.5880 -0.2959  0.0569
  101OSM    H8F10209   1.774   6.032   9.597  0.5828 -0.6224  0.3510
  101OSM    H8G10210   1.915   6.099   9.686  0.5213  1.5277  2.7811
  101OSM    C9F10211   1.763   6.235   9.611  0.3335 -0.2710 -0.3915
  101OSM    H9F10212   1.694   6.301   9.666  1.5577  2.4991 -1.9791
  101OSM   C10F10213   1.794   6.262   9.486 -0.0382  0.0024  1.2344
  101OSM   H10F10214   1.760   6.358   9.445  0.1195 -0.7945 -0.8721
  101OSM   C11F10215   1.874   6.178   9.382  0.6048 -0.5191 -0.4551
  101OSM   H11F10216   1.931   6.109   9.448 -0.8959 -0.0429  1.4105
  101OSM   H11G10217   1.946   6.252   9.339 -1.3640  1.0489 -1.2180
  101OSM   C12F10218   1.799   6.105   9.266 -0.4993  0.3494 -0.7020
  101OSM   H12F10219   1.736   6.179   9.212 -0.5180 -0.9042 -2.4833
  101OSM   H12G10220   1.734   6.023   9.304 -1.5151  1.4021 -0.0825
  101OSM   C13F10221   1.896   6.051   9.158 -1.0108  0.3724  0.1523
  101OSM   H13F10222   1.968   5.981   9.203 -1.3625 -0.6475 -0.8180
  101OSM   H13G10223   1.958   6.136   9.122 -0.6678  0.1406  0.1879
  101OSM   C14F10224   1.826   5.991   9.038 -0.5191  0.8328  0.4335
  101OSM   H14F10225   1.759   6.070   8.997 -0.0604  0.0215 -2.0628
  101OSM   H14G10226   1.771   5.897   9.063  1.7031 -0.2343  1.5852
  101OSM   C15F10227   1.928   5.948   8.932 -0.0743 -0.1899 -0.3857
  101OSM   H15F10228   1.986   5.860   8.969  0.6213  0.3438 -0.1901
  101OSM   H15G10229   2.000   6.028   8.904  0.8163 -1.0193 -0.5245
  101OSM   C16F10230   1.850   5.913   8.809 -0.3029  0.9281  0.1833
  101OSM   H16F10231   1.781   5.993   8.776 -1.1188 -0.3079 -1.2528
  101OSM   H16G10232   1.783   5.827   8.833  0.3194 -0.0429 -1.3484
  101OSM   C17F10233   1.941   5.870   8.691  0.3387 -0.9618  0.0297
  101OSM   H17F10234   1.874   5.835   8.609 -0.5592 -2.4256  1.3285
  101OSM   H17G10235   2.009   5.784   8.713 -0.6892 -1.7234  0.2859
  101OSM   C18F10236   2.030   5.985   8.642  0.1480 -0.2437 -0.2372
  101OSM   H18F10237   1.969   6.073   8.613 -0.1776  0.2137  1.7102
  101OSM   H18G10238   2.075   5.941   8.550 -0.4434  1.5845 -1.4508
  101OSM   H18H10239   2.107   6.016   8.716  1.0692  0.5985 -1.5210
  102OSM      N10240   2.339   1.366  10.696  0.2026  0.1784  0.0124
  102OSM    C1510241   2.203   1.423  10.734  0.0738 -0.8126  0.5960
  102OSM   H15A10242   2.156   1.463  10.646 -2.0712 -0.0965  1.9788
  102OSM   H15B10243   2.215   1.509  10.798 -1.6496  0.9629 -1.3258
  102OSM   H15C10244   2.139   1.344  10.773  0.5003 -1.3157  0.2899
  102OSM    C1410245   2.435   1.486  10.665 -0.4079  0.3382 -0.7588
  102OSM   H14A10246   2.437   1.554  10.750 -1.1196 -0.2988 -0.2180
  102OSM   H14B10247   2.390   1.550  10.590  1.8229  1.4782 -1.2180
  102OSM   H14C10248   2.538   1.455  10.654 -0.0522  1.4754 -0.7910
  102OSM    C1310249   2.397   1.307  10.821 -0.5477 -0.4012 -0.1894
  102OSM   H13A10250   2.502   1.285  10.807 -1.2886 -5.5870  0.4423
  102OSM   H13B10251   2.352   1.213  10.849  2.0036 -1.4744  0.6323
  102OSM   H13C10252   2.387   1.375  10.905 -0.5593 -0.7966  0.1317
  102OSM    C1210253   2.323   1.268  10.584  0.1833 -0.0422 -0.3428
  102OSM   H12A10254   2.257   1.190  10.620 -0.2772  0.8214  0.7631
  102OSM   H12B10255   2.419   1.226  10.558  0.2905  0.3413 -0.5778
  102OSM    C1110256   2.251   1.316  10.453 -0.2921 -0.6099  0.4762
  102OSM   H11A10257   2.255   1.247  10.366 -1.1673  2.3789 -2.1510
  102OSM   H11B10258   2.301   1.406  10.411 -2.5140  0.1586 -0.7137
  102OSM      P10259   2.009   1.222  10.511 -0.2985 -0.2878  0.2725
  102OSM    O1310260   2.080   1.113  10.571  0.1999 -0.0040  0.1961
  102OSM    O1410261   1.894   1.283  10.578 -0.0629 -0.3268 -0.1289
  102OSM    O1110262   1.961   1.179  10.373  0.0371  0.4363  0.0795
  102OSM    O1210263   2.112   1.343  10.480 -0.0483  0.3362 -0.5018
  102OSM    C1S10264   1.903   1.278  10.286  0.0295  0.2212  0.0446
  102OSM    H1S10265   1.955   1.376  10.293  2.2017 -0.9509  1.2093
  102OSM    H1T10266   1.798   1.296  10.318  0.5718  1.6928  1.1153
  102OSM     NF10267   1.885   1.333  10.049  0.2778 -0.0664 -0.4374
  102OSM    HNF10268   1.800   1.329   9.998  1.2796 -0.6569 -2.1528
  102OSM    C2S10269   1.917   1.225  10.141 -0.4393  0.0904 -0.1991
  102OSM    H2S10270   2.026   1.206  10.130 -0.5783  0.5873 -3.3565
  102OSM    C3S10271   1.833   1.095  10.115  0.0378  0.1967 -0.6448
  102OSM    H3S10272   1.728   1.133  10.116  1.1487  3.5861 -0.1007
  102OSM     O310273   1.851   0.988  10.210  0.2952 -0.5963  0.2530
  102OSM    HO310274   1.890   1.029  10.287 -0.1267  0.2532  0.0205
  102OSM    C4S10275   1.862   1.052   9.971  0.5766 -0.0576 -0.9247
  102OSM    H4S10276   1.966   1.016   9.960  0.4145 -0.8626  0.0526
  102OSM    C5S10277   1.774   1.055   9.868 -0.3969 -0.3556  0.1609
  102OSM    H5S10278   1.669   1.083   9.883  0.1237  2.3603 -0.8175
  102OSM    C6S10279   1.806   1.014   9.725  0.2771 -0.8530 -0.2465
  102OSM    H6S10280   1.744   1.081   9.662  0.7283  0.6744  0.8817
  102OSM    H6T10281   1.774   0.908   9.711 -1.4078 -0.4803  0.5163
  102OSM    C7S10282   1.960   1.020   9.687 -0.8443  0.9946 -0.3526
  102OSM    H7S10283   2.026   0.937   9.718 -0.5876  1.3447  0.0477
  102OSM    H7T10284   1.997   1.116   9.729  1.0578  0.5262 -0.8717
  102OSM    C8S10285   1.964   1.019   9.533  0.0423 -0.7922  0.0933
  102OSM    H8S10286   1.888   1.085   9.487  0.5300  0.7073  1.3325
  102OSM    H8T10287   1.933   0.918   9.499 -0.1449 -0.3354 -1.1286
  102OSM    C9S10288   2.096   1.069   9.482  0.3228  0.1529  0.1627
  102OSM    H9S10289   2.178   0.993   9.482 -0.7828 -1.0866 -0.8627
  102OSM    H9T10290   2.122   1.156   9.547 -1.9415 -0.0583  1.4312
  102OSM   C10S10291   2.082   1.109   9.330  0.4857 -0.8817 -0.6399
  102OSM   H10S10292   2.175   1.164   9.303 -0.3657  0.4537 -0.9372
  102OSM   H10T10293   2.009   1.192   9.313  0.5620 -1.1180 -2.3574
  102OSM   C11S10294   2.062   0.996   9.237 -0.4867  0.2975 -0.3079
  102OSM   H11S10295   1.959   0.958   9.253 -0.7129 -0.0266 -2.2483
  102OSM   H11T10296   2.148   0.930   9.261 -0.2225  1.0342  0.8289
  102OSM   C12S10297   2.085   1.038   9.093 -0.1121 -0.0970 -0.2986
  102OSM   H12S10298   2.190   1.071   9.079 -0.5126  0.9554 -0.8993
  102OSM   H12T10299   2.029   1.130   9.066  2.0679  0.5313 -3.0722
  102OSM   C13S10300   2.055   0.921   8.998  0.2454  0.4321 -0.0500
  102OSM   H13S10301   1.946   0.910   9.017 -0.1908  2.3830 -1.1975
  102OSM   H13T10302   2.093   0.822   9.031 -3.1235 -1.8368 -2.3312
  102OSM   C14S10303   2.101   0.943   8.859  0.2055 -0.4307  0.7136
  102OSM   H14S10304   2.210   0.948   8.838  0.0124 -0.4504 -0.3187
  102OSM   H14T10305   2.066   1.041   8.821  1.2081 -0.4735 -0.3854
  102OSM   C15S10306   2.040   0.835   8.766  0.1198  0.0043 -0.3143
  102OSM   H15S10307   2.007   0.881   8.670 -1.9383  1.1831  0.8682
  102OSM   H15T10308   1.951   0.785   8.810 -0.5214  0.1577 -1.3845
  102OSM   C16S10309   2.131   0.711   8.735 -0.0058 -0.3332 -0.6788
  102OSM   H16S10310   2.142   0.653   8.829  0.4258  1.6083  0.5119
  102OSM   H16T10311   2.220   0.761   8.691  0.1318  0.3312  0.3394
  102OSM   C17S10312   2.070   0.625   8.627 -0.1476 -0.1381  0.6050
  102OSM   H17S10313   2.031   0.693   8.549  0.0336 -1.5797 -0.7922
  102OSM   H17T10314   1.988   0.560   8.663  1.1947 -1.2465  1.7946
  102OSM   C18S10315   2.185   0.545   8.552  0.4875  0.1303 -0.7345
  102OSM   H18S10316   2.254   0.492   8.621 -0.5931  1.0402  1.1316
  102OSM   H18T10317   2.241   0.610   8.481 -1.7235  0.7903 -1.9332
  102OSM   H18U10318   2.134   0.475   8.484  0.4108 -0.5092 -0.0308
  102OSM    C1F10319   1.955   1.441  10.033 -0.1669 -0.3149  0.3800
  102OSM     OF10320   2.070   1.450  10.078  0.1726  0.1791  0.0612
  102OSM    C2F10321   1.883   1.551   9.954 -0.2032 -0.3887  0.2807
  102OSM    H2F10322   1.900   1.648  10.004 -3.2721 -0.0169  0.8173
  102OSM    H2G10323   1.774   1.530   9.950 -0.2540 -0.4874  1.7283
  102OSM    C3F10324   1.937   1.551   9.804  0.3758 -0.6911  0.1780
  102OSM    H3F10325   2.046   1.574   9.807  0.0105  1.1379  0.6601
  102OSM    H3G10326   1.885   1.631   9.748  0.0853  0.0876  1.5154
  102OSM    C4F10327   1.919   1.420   9.720 -0.4266 -0.7420  0.5560
  102OSM    H4F10328   1.814   1.382   9.726 -1.3548  0.9356 -2.7139
  102OSM    H4G10329   1.980   1.349   9.779  1.0955  2.0314  2.5078
  102OSM    C5F10330   1.966   1.431   9.577 -0.2359 -0.1893  0.0964
  102OSM    H5F10331   2.004   1.333   9.543 -1.3843 -1.2814  1.8235
  102OSM    H5G10332   2.057   1.494   9.565  1.5982 -2.9478 -1.4042
  102OSM    C6F10333   1.868   1.490   9.472 -0.3581  0.4733  0.8033
  102OSM    H6F10334   1.834   1.585   9.517 -0.1727  1.2527 -0.6490
  102OSM    H6G10335   1.781   1.421   9.459 -0.7838  0.9888  0.8918
  102OSM    C7F10336   1.931   1.538   9.336  0.1785 -0.0621  0.0629
  102OSM    H7F10337   1.998   1.458   9.297  2.9705  2.6454 -1.1398
  102OSM    H7G10338   2.000   1.622   9.360 -1.1205  0.4724  2.1660
  102OSM    C8F10339   1.840   1.592   9.229  0.1970 -0.2187  0.2375
  102OSM    H8F10340   1.898   1.623   9.139  0.4546  0.1895  0.5404
  102OSM    H8G10341   1.780   1.676   9.271  0.8285 -1.0429  2.9728
  102OSM    C9F10342   1.747   1.485   9.181 -0.8705 -0.3310  0.4139
  102OSM    H9F10343   1.796   1.413   9.113 -0.5036  0.7207 -0.4723
  102OSM   C10F10344   1.610   1.480   9.200 -0.8006  0.7916  0.8091
  102OSM   H10F10345   1.552   1.392   9.168  0.7815  0.3796 -1.0761
  102OSM   C11F10346   1.538   1.579   9.283 -1.2535  0.2250 -0.3458
  102OSM   H11F10347   1.599   1.619   9.367 -1.9453  0.8894 -0.1417
  102OSM   H11G10348   1.459   1.511   9.322 -1.6238  0.1831 -1.1377
  102OSM   C12F10349   1.478   1.692   9.198  0.3788  1.0203 -0.6776
  102OSM   H12F10350   1.544   1.737   9.121  0.1303  4.5813  1.0198
  102OSM   H12G10351   1.448   1.784   9.253 -2.2838 -0.0240 -0.1842
  102OSM   C13F10352   1.354   1.648   9.123 -0.4909 -1.1650  0.4668
  102OSM   H13F10353   1.273   1.615   9.191 -0.8090 -3.0413 -0.7626
  102OSM   H13G10354   1.378   1.563   9.056  2.2514  0.6482 -1.0417
  102OSM   C14F10355   1.276   1.739   9.019 -0.3749  0.3515  0.0911
  102OSM   H14F10356   1.200   1.677   8.966  2.0663 -1.3788 -1.5935
  102OSM   H14G10357   1.345   1.759   8.934 -1.9153 -0.9939 -1.5500
  102OSM   C15F10358   1.219   1.872   9.062 -0.4477 -0.0908  0.0582
  102OSM   H15F10359   1.155   1.906   8.978 -0.0113  0.5493 -0.0194
  102OSM   H15G10360   1.307   1.939   9.072 -0.7814  0.2208  1.0862
  102OSM   C16F10361   1.139   1.876   9.198  0.2497 -0.4170 -0.1708
  102OSM   H16F10362   1.200   1.853   9.288  0.7145  0.8861 -0.1383
  102OSM   H16G10363   1.050   1.809   9.198 -1.0221  1.1293 -2.5042
  102OSM   C17F10364   1.087   2.019   9.230  0.1672  0.2202  0.1572
  102OSM   H17F10365   1.047   2.059   9.134 -1.6277  2.4702  1.7202
  102OSM   H17G10366   1.178   2.078   9.253  0.4491  0.7794 -2.1649
  102OSM   C18F10367   0.981   2.022   9.341  0.4138  0.6711 -0.6177
  102OSM   H18F10368   1.012   1.983   9.441 -0.8262 -1.8527 -1.1325
  102OSM   H18G10369   0.902   1.950   9.309  1.7287 -1.0852 -0.1008
  102OSM   H18H10370   0.944   2.125   9.361 -0.7976 -0.0749  1.3507
  103OSM      N10371   0.736   5.022  11.005 -0.2798  0.1497  0.2810
  103OSM    C1510372   0.694   5.155  11.068 -0.8891 -0.3907  0.2263
  103OSM   H15A10373   0.759   5.227  11.022 -0.2289 -2.4533 -2.2922
  103OSM   H15B10374   0.722   5.155  11.173 -2.8571  1.7496  0.8254
  103OSM   H15C10375   0.589   5.179  11.059 -0.2570  2.7851  0.1651
  103OSM    C1410376   0.665   4.906  11.079 -0.3582 -0.1954  0.4493
  103OSM   H14A10377   0.693   4.902  11.183  0.8493 -0.4802  0.1298
  103OSM   H14B10378   0.687   4.808  11.038 -0.0002 -0.8630  2.1536
  103OSM   H14C10379   0.558   4.915  11.065 -0.2208  0.8216 -0.0296
  103OSM    C1310380   0.681   5.020  10.861 -0.3260 -0.1961  0.7357
  103OSM   H13A10381   0.579   5.055  10.861 -0.3606 -0.2958  0.6448
  103OSM   H13B10382   0.696   4.927  10.807  1.5441  0.7106 -0.4096
  103OSM   H13C10383   0.732   5.098  10.807 -1.6091  1.3592  1.6627
  103OSM    C1210384   0.882   5.000  11.007  0.7471 -0.3832 -0.1797
  103OSM   H12A10385   0.907   4.897  10.986  0.1056 -0.5385 -0.2114
  103OSM   H12B10386   0.926   5.023  11.103  0.6138  1.5229 -0.5339
  103OSM    C1110387   0.956   5.089  10.906 -0.2875  0.6065  0.5946
  103OSM   H11A10388   0.940   5.057  10.801 -1.0890  1.2691  0.5035
  103OSM   H11B10389   1.064   5.075  10.929  0.0508  1.0230 -0.6509
  103OSM      P10390   0.924   5.330  10.811  0.0661 -0.3601 -0.0359
  103OSM    O1310391   0.878   5.460  10.860 -0.3705  0.0814 -0.1774
  103OSM    O1410392   1.053   5.329  10.741 -0.2357 -0.1897  0.6414
  103OSM    O1110393   0.807   5.258  10.728 -0.5649 -0.0211 -0.0428
  103OSM    O1210394   0.938   5.224  10.927  0.4435 -0.5329 -0.5209
  103OSM    C1S10395   0.835   5.239  10.588 -0.6455  0.2590  0.4676
  103OSM    H1S10396   0.895   5.146  10.577  0.6417  1.1770 -0.4774
  103OSM    H1T10397   0.907   5.309  10.541  1.0122 -1.3652  0.4860
  103OSM     NF10398   0.726   5.181  10.371  0.0139  0.1451  0.0950
  103OSM    HNF10399   0.729   5.255  10.303 -1.4990 -0.9094 -1.1946
  103OSM    C2S10400   0.700   5.227  10.508  0.0143 -0.1126 -0.1259
  103OSM    H2S10401   0.642   5.146  10.557 -1.1653 -0.4732 -2.0189
  103OSM    C3S10402   0.636   5.365  10.512 -0.1278  0.3454  0.5138
  103OSM    H3S10403   0.706   5.444  10.477  0.2785 -1.0298 -2.0433
  103OSM     O310404   0.601   5.406  10.648  0.2003  0.0079  0.2151
  103OSM    HO310405   0.670   5.379  10.709 -0.6514 -0.0629  1.1801
  103OSM    C4S10406   0.511   5.371  10.429  0.6984  0.5602 -0.2888
  103OSM    H4S10407   0.420   5.333  10.478  0.4555 -0.5915 -1.5667
  103OSM    C5S10408   0.496   5.427  10.305  0.3875  0.4450  0.3188
  103OSM    H5S10409   0.565   5.496  10.255 -0.2795 -0.1246 -1.4566
  103OSM    C6S10410   0.361   5.421  10.224 -0.8082 -0.4013  0.3955
  103OSM    H6S10411   0.314   5.520  10.239  0.1338  0.2910 -0.9041
  103OSM    H6T10412   0.288   5.345  10.257 -0.9563 -0.3276  0.2409
  103OSM    C7S10413   0.402   5.400  10.080 -0.2375  0.2105  0.2442
  103OSM    H7S10414   0.489   5.466  10.059 -0.7677  0.8809  0.0986
  103OSM    H7T10415   0.327   5.447  10.012  0.8660  0.4184 -0.8485
  103OSM    C8S10416   0.424   5.251  10.043 -0.1990 -0.2582  0.1426
  103OSM    H8S10417   0.329   5.195  10.049 -0.1568 -0.3675 -0.1584
  103OSM    H8T10418   0.509   5.202  10.096  2.5397 -0.0058 -3.5746
  103OSM    C9S10419   0.466   5.243   9.895  0.4938 -0.5893 -0.4421
  103OSM    H9S10420   0.565   5.291   9.879  2.4860 -4.6374 -1.6557
  103OSM    H9T10421   0.389   5.288   9.829  1.5761 -0.6625 -1.8102
  103OSM   C10S10422   0.493   5.100   9.847  0.3265  0.3130  0.2895
  103OSM   H10S10423   0.400   5.041   9.857  0.4134  0.2124  0.5117
  103OSM   H10T10424   0.563   5.045   9.914 -0.6663 -0.5605  0.6376
  103OSM   C11S10425   0.542   5.086   9.705 -1.0090  0.5146 -0.2484
  103OSM   H11S10426   0.614   5.170   9.690 -1.9858  1.1165 -1.7543
  103OSM   H11T10427   0.460   5.089   9.631 -0.4997 -0.7866 -0.8914
  103OSM   C12S10428   0.616   4.954   9.682  0.6642 -0.4140 -0.3575
  103OSM   H12S10429   0.709   4.959   9.743 -0.2466 -0.2249  1.0423
  103OSM   H12T10430   0.650   4.949   9.576  0.9084  1.3992 -0.3855
  103OSM   C13S10431   0.539   4.825   9.707  0.5156  0.3708 -0.7987
  103OSM   H13S10432   0.453   4.821   9.637 -0.4285 -0.6691  0.3545
  103OSM   H13T10433   0.484   4.837   9.803  0.2712  1.7633 -1.0928
  103OSM   C14S10434   0.632   4.705   9.693  0.0975 -0.5611 -0.0940
  103OSM   H14S10435   0.700   4.693   9.780  0.5267  0.4207 -0.2742
  103OSM   H14T10436   0.692   4.716   9.600  0.2869  0.1196  0.0989
  103OSM   C15S10437   0.553   4.572   9.684 -0.3039  0.4054 -0.3180
  103OSM   H15S10438   0.464   4.581   9.750 -0.2227  4.7143 -0.5422
  103OSM   H15T10439   0.617   4.501   9.740  0.1277  0.1209 -1.1457
  103OSM   C16S10440   0.533   4.513   9.543  0.6704  0.0416 -0.0847
  103OSM   H16S10441   0.523   4.403   9.561  1.4907 -0.1255 -0.5796
  103OSM   H16T10442   0.629   4.531   9.490  0.5601 -0.0280 -0.3080
  103OSM   C17S10443   0.428   4.582   9.461 -0.0414  0.3237  0.0590
  103OSM   H17S10444   0.444   4.546   9.357 -2.1762 -0.5431 -0.0352
  103OSM   H17T10445   0.447   4.691   9.469  3.3916 -0.3211  3.9041
  103OSM   C18S10446   0.289   4.527   9.492 -0.2386 -0.2405  0.5943
  103OSM   H18S10447   0.289   4.504   9.601  2.0028 -0.2590  0.6306
  103OSM   H18T10448   0.251   4.436   9.440  0.2008 -0.0603 -0.0497
  103OSM   H18U10449   0.213   4.608   9.489  0.9496  0.9119  0.9197
  103OSM    C1F10450   0.779   5.066  10.347 -0.4232  0.3218  0.1009
  103OSM     OF10451   0.769   4.971  10.419 -0.4747  0.2403  0.6311
  103OSM    C2F10452   0.831   5.046  10.203  0.3958 -0.5402  0.3482
  103OSM    H2F10453   0.871   5.137  10.155 -1.2433 -0.6244 -1.2948
  103OSM    H2G10454   0.728   5.034  10.162  0.4311  0.0864  0.0742
  103OSM    C3F10455   0.904   4.912  10.175  0.3571 -0.4058 -0.1622
  103OSM    H3F10456   0.826   4.840  10.206  1.6254 -1.8950 -0.2973
  103OSM    H3G10457   0.998   4.889  10.229  0.2016 -0.3354  0.1392
  103OSM    C4F10458   0.936   4.905  10.023 -0.3816 -0.7134  0.7019
  103OSM    H4F10459   1.014   4.978   9.992 -0.1275 -1.7748 -1.3249
  103OSM    H4G10460   0.842   4.919   9.965 -0.9674 -0.8710  1.6006
  103OSM    C5F10461   0.993   4.769   9.999  0.3167 -0.4592  0.5940
  103OSM    H5F10462   0.915   4.694  10.027 -2.0085  1.4110 -0.5110
  103OSM    H5G10463   1.074   4.765  10.074 -0.5039  0.1231  1.5352
  103OSM    C6F10464   1.040   4.740   9.856 -0.0566  0.8490  0.7523
  103OSM    H6F10465   1.104   4.814   9.802 -0.1002 -0.1815 -0.7814
  103OSM    H6G10466   0.950   4.732   9.792 -0.0940  1.0821  0.7716
  103OSM    C7F10467   1.111   4.608   9.848 -0.6829  0.9569  0.3722
  103OSM    H7F10468   1.039   4.527   9.872 -1.1651  0.8039 -1.4641
  103OSM    H7G10469   1.195   4.611   9.921 -0.9857  0.4244  0.7541
  103OSM    C8F10470   1.155   4.587   9.702 -0.2624 -0.7159 -0.2609
  103OSM    H8F10471   1.238   4.513   9.692  0.0883 -0.7045  2.0340
  103OSM    H8G10472   1.199   4.686   9.679  0.2621 -0.7434  0.5727
  103OSM    C9F10473   1.038   4.542   9.615 -0.7675  0.2120 -0.5335
  103OSM    H9F10474   1.000   4.446   9.651 -0.3708  0.5383  0.8322
  103OSM   C10F10475   0.963   4.603   9.524  0.1586 -0.0420 -0.5270
  103OSM   H10F10476   0.876   4.546   9.488 -1.3147  2.4679 -1.1347
  103OSM   C11F10477   0.981   4.746   9.478  0.0083  1.0306 -0.1500
  103OSM   H11F10478   1.081   4.783   9.510  0.3024 -1.0302  1.5168
  103OSM   H11G10479   0.905   4.806   9.533 -1.5649 -0.6341 -0.4197
  103OSM   C12F10480   0.951   4.780   9.332  0.4983  0.5877 -0.0832
  103OSM   H12F10481   1.000   4.698   9.275  0.0316 -0.2046  0.6117
  103OSM   H12G10482   0.996   4.875   9.298 -0.9276  1.1324 -0.5118
  103OSM   C13F10483   0.806   4.770   9.288  0.4287 -0.0243 -0.4392
  103OSM   H13F10484   0.747   4.853   9.332 -2.2519 -2.0937  0.1826
  103OSM   H13G10485   0.756   4.680   9.330 -1.0310  0.5725 -0.8278
  103OSM   C14F10486   0.783   4.781   9.138 -0.4720 -0.3612  0.2607
  103OSM   H14F10487   0.840   4.696   9.096 -0.6468 -0.5249  0.3508
  103OSM   H14G10488   0.826   4.874   9.094 -0.1174 -1.2399 -1.3565
  103OSM   C15F10489   0.632   4.792   9.104 -0.4516 -0.4020  0.0767
  103OSM   H15F10490   0.626   4.838   9.003 -0.0711  0.3623  0.3956
  103OSM   H15G10491   0.590   4.864   9.177  1.0729 -0.6589  1.2747
  103OSM   C16F10492   0.559   4.657   9.094 -0.4266 -0.0407 -0.5006
  103OSM   H16F10493   0.571   4.606   9.192 -1.1042  0.5007 -0.1209
  103OSM   H16G10494   0.610   4.594   9.018 -2.7749 -1.2321 -1.1813
  103OSM   C17F10495   0.408   4.657   9.059 -0.2397 -0.6058  0.1247
  103OSM   H17F10496   0.402   4.720   8.967  2.4550 -0.7542 -0.2323
  103OSM   H17G10497   0.349   4.702   9.142  3.3019  3.9271  0.5755
  103OSM   C18F10498   0.365   4.509   9.035 -0.0022  0.0504  0.1063
  103OSM   H18F10499   0.441   4.457   8.973  0.2095 -0.3211  0.6606
  103OSM   H18G10500   0.264   4.496   8.990  0.5563  0.2690 -1.2555
  103OSM   H18H10501   0.362   4.461   9.136 -1.3996 -2.1224 -0.8875
  104OSM      N10502   1.230   3.719  11.010 -0.5398  0.0058  0.0747
  104OSM    C1510503   1.248   3.627  10.892 -0.1632  0.3998  0.7517
  104OSM   H15A10504   1.234   3.677  10.797 -1.1231 -1.3620 -0.1048
  104OSM   H15B10505   1.180   3.543  10.895 -1.5573  1.3733 -1.2298
  104OSM   H15C10506   1.347   3.587  10.908 -0.9555 -0.8232  3.1030
  104OSM    C1410507   1.085   3.770  11.006  0.3086  0.2466  0.5995
  104OSM   H14A10508   1.067   3.832  10.919  0.9579 -1.8996 -1.1624
  104OSM   H14B10509   1.058   3.830  11.092 -2.8861  0.9843 -0.7880
  104OSM   H14C10510   1.020   3.684  11.004 -0.6072  0.9303  0.1677
  104OSM    C1310511   1.245   3.636  11.134  0.2822  0.6465 -0.2884
  104OSM   H13A10512   1.179   3.551  11.131  0.3423  0.5978 -2.7853
  104OSM   H13B10513   1.204   3.682  11.222 -2.5395  2.0617 -2.1770
  104OSM   H13C10514   1.349   3.612  11.150 -0.1993 -0.1277  2.0480
  104OSM    C1210515   1.325   3.833  11.004 -0.0812  0.2189  0.1482
  104OSM   H12A10516   1.428   3.801  11.013 -0.1101  0.5090  1.7306
  104OSM   H12B10517   1.311   3.903  11.085 -1.9943  1.6479 -1.3310
  104OSM    C1110518   1.306   3.923  10.878 -0.2388 -0.3974  0.2974
  104OSM   H11A10519   1.290   3.863  10.785  1.4731 -2.0135  0.9656
  104OSM   H11B10520   1.395   3.989  10.864 -0.8969  0.0576 -2.3526
  104OSM      P10521   1.087   4.047  10.784  0.3655 -0.3868  0.3890
  104OSM    O1310522   0.960   4.091  10.853 -0.2224 -0.1633 -0.6465
  104OSM    O1410523   1.140   4.138  10.680  0.1973  0.1879  0.1606
  104OSM    O1110524   1.055   3.903  10.728 -0.5252  0.1391  0.2985
  104OSM    O1210525   1.200   4.015  10.894  0.6598 -0.3725 -0.6868
  104OSM    C1S10526   0.936   3.862  10.672  0.9808  0.5122  0.4847
  104OSM    H1S10527   0.856   3.939  10.679  0.0385 -0.4949  0.9040
  104OSM    H1T10528   0.891   3.777  10.727  0.5465 -0.0293 -0.6639
  104OSM     NF10529   0.817   3.852  10.449  0.2464  0.3155 -0.0394
  104OSM    HNF10530   0.763   3.769  10.436  0.4861  0.3864 -1.6495
  104OSM    C2S10531   0.945   3.824  10.525 -1.2116  1.2361  0.0764
  104OSM    H2S10532   1.020   3.893  10.481 -1.8635  0.1843 -2.8988
  104OSM    C3S10533   1.004   3.683  10.507 -0.3749 -0.0586 -0.1489
  104OSM    H3S10534   0.940   3.615  10.567 -0.7201  1.0322  0.7618
  104OSM     O310535   1.130   3.675  10.560  0.1566 -0.2203 -0.3892
  104OSM    HO310536   1.132   3.751  10.620  0.6450  1.6598 -2.6585
  104OSM    C4S10537   1.006   3.652  10.357 -0.0276  0.4915 -0.6452
  104OSM    H4S10538   0.907   3.622  10.318  0.1857  0.6584 -1.3350
  104OSM    C5S10539   1.104   3.661  10.265 -0.0505  0.1307 -0.3444
  104OSM    H5S10540   1.204   3.700  10.291 -0.0596 -0.1326  0.0987
  104OSM    C6S10541   1.085   3.647  10.115  0.0344  0.1217 -0.0876
  104OSM    H6S10542   1.070   3.742  10.058  0.6685 -1.7304 -3.5956
  104OSM    H6T10543   0.992   3.588  10.097 -0.4048  1.2359 -1.7276
  104OSM    C7S10544   1.187   3.565  10.035  0.2118  0.7326  0.9858
  104OSM    H7S10545   1.193   3.462  10.077  0.7532  0.2985 -0.1035
  104OSM    H7T10546   1.286   3.611  10.057 -0.0915  0.3219  3.5769
  104OSM    C8S10547   1.150   3.549   9.878 -0.3336 -0.2691 -0.0175
  104OSM    H8S10548   1.236   3.490   9.840  1.0143  1.7653 -0.2825
  104OSM    H8T10549   1.155   3.653   9.838  0.7753 -0.2699  0.0963
  104OSM    C9S10550   1.028   3.467   9.841 -0.3828  0.3353 -1.0595
  104OSM    H9S10551   0.951   3.520   9.901 -0.5577  2.2526 -2.8834
  104OSM    H9T10552   1.038   3.366   9.886 -2.7163 -0.5294 -2.3113
  104OSM   C10S10553   0.991   3.461   9.688  0.1248 -0.3675  0.2297
  104OSM   H10S10554   1.004   3.566   9.657  1.3319  0.6594  3.6838
  104OSM   H10T10555   0.888   3.422   9.677  0.3406 -0.9303  0.1338
  104OSM   C11S10556   1.074   3.363   9.609 -0.3963 -0.0094  0.2166
  104OSM   H11S10557   1.021   3.265   9.617 -0.5365 -0.0357 -0.8081
  104OSM   H11T10558   1.176   3.347   9.649 -0.7945  3.3532  2.9361
  104OSM   C12S10559   1.092   3.413   9.470  0.4362 -0.5347  0.0019
  104OSM   H12S10560   1.172   3.489   9.456 -0.0086 -0.2138 -0.9352
  104OSM   H12T10561   1.003   3.476   9.445  1.7591  1.1526 -0.6233
  104OSM   C13S10562   1.113   3.303   9.372  0.2480  0.3410 -0.2937
  104OSM   H13S10563   1.022   3.239   9.365 -0.1552  0.9671 -0.9909
  104OSM   H13T10564   1.193   3.235   9.408 -1.3325 -1.3582  0.1702
  104OSM   C14S10565   1.139   3.350   9.225  0.3520  0.3928 -0.1845
  104OSM   H14S10566   1.196   3.267   9.179  0.4515  0.1266  0.4162
  104OSM   H14T10567   1.211   3.435   9.224 -0.4297  1.0707 -1.4708
  104OSM   C15S10568   1.005   3.393   9.159 -0.2303  0.0138  0.5179
  104OSM   H15S10569   0.962   3.469   9.228  0.3051 -1.0730  2.0985
  104OSM   H15T10570   0.931   3.312   9.140 -0.5152  0.3904 -0.0293
  104OSM   C16S10571   1.041   3.453   9.022 -0.6581  0.0394 -0.0662
  104OSM   H16S10572   1.127   3.524   9.033 -0.1900 -0.6640  1.0378
  104OSM   H16T10573   0.955   3.507   8.978 -0.7238 -0.9157 -1.1516
  104OSM   C17S10574   1.068   3.355   8.907 -0.2995  0.5500 -0.3009
  104OSM   H17S10575   0.972   3.301   8.895  0.6285 -1.5050  0.9680
  104OSM   H17T10576   1.141   3.275   8.934  0.9184  1.8342  0.3653
  104OSM   C18S10577   1.108   3.416   8.775  0.6682 -0.0021 -0.5769
  104OSM   H18S10578   1.197   3.481   8.767  1.0940 -0.4900  0.0667
  104OSM   H18T10579   1.024   3.486   8.753 -1.8978 -2.8492 -0.5274
  104OSM   H18U10580   1.109   3.330   8.704  0.8266  0.1904 -0.8109
  104OSM    C1F10581   0.759   3.973  10.433 -0.0937  0.4891 -0.0976
  104OSM     OF10582   0.816   4.078  10.464  0.3181 -0.2737  0.3321
  104OSM    C2F10583   0.619   3.966  10.372  0.2803  0.5189 -0.2933
  104OSM    H2F10584   0.550   4.009  10.449 -1.9784  0.9200 -2.4059
  104OSM    H2G10585   0.587   3.863  10.348 -1.4723  1.1658 -0.9208
  104OSM    C3F10586   0.596   4.053  10.246 -1.3303 -0.4370 -0.5771
  104OSM    H3F10587   0.614   4.157  10.279 -2.2410 -0.4961  0.1402
  104OSM    H3G10588   0.486   4.045  10.230 -1.5058 -2.4891  1.2674
  104OSM    C4F10589   0.667   4.012  10.116 -0.1709  0.1012 -0.0573
  104OSM    H4F10590   0.772   4.011  10.150  0.1718  1.3446 -1.0055
  104OSM    H4G10591   0.645   4.095  10.045 -1.2235  0.3199  0.5115
  104OSM    C5F10592   0.617   3.878  10.065 -0.2229  0.6922 -0.7349
  104OSM    H5F10593   0.506   3.880  10.065 -0.5971 -3.0080 -5.2439
  104OSM    H5G10594   0.656   3.796  10.130 -0.5688  0.8053 -0.3839
  104OSM    C6F10595   0.661   3.852   9.920  0.0282 -0.1528 -0.2483
  104OSM    H6F10596   0.772   3.843   9.923  0.1746  1.3387 -0.3577
  104OSM    H6G10597   0.638   3.929   9.843  2.6549 -0.6631 -1.6811
  104OSM    C7F10598   0.609   3.718   9.870  0.0533  0.3981 -0.1619
  104OSM    H7F10599   0.503   3.733   9.840 -0.2126 -1.2011 -0.1224
  104OSM    H7G10600   0.604   3.636   9.944 -1.7878 -1.2126 -1.9377
  104OSM    C8F10601   0.701   3.664   9.756  0.1151  0.2667  0.5076
  104OSM    H8F10602   0.790   3.613   9.799  0.0738  0.7344  1.1720
  104OSM    H8G10603   0.739   3.748   9.695  0.5918 -0.9465 -0.9334
  104OSM    C9F10604   0.637   3.558   9.673 -0.3139  0.1024  0.6213
  104OSM    H9F10605   0.594   3.474   9.729 -0.8144  2.1807  3.5831
  104OSM   C10F10606   0.628   3.565   9.536  0.5444  0.2793  0.0623
  104OSM   H10F10607   0.587   3.474   9.490 -0.4291  0.1063  1.2280
  104OSM   C11F10608   0.666   3.672   9.443  0.1261 -0.0605 -0.1483
  104OSM   H11F10609   0.753   3.726   9.486  1.3982 -1.4526 -0.8934
  104OSM   H11G10610   0.585   3.747   9.430 -0.1684 -0.2928  0.3231
  104OSM   C12F10611   0.698   3.618   9.297 -0.5066 -0.5698 -0.1342
  104OSM   H12F10612   0.605   3.565   9.265 -0.7449  0.5432 -1.3806
  104OSM   H12G10613   0.780   3.543   9.297  0.0877 -0.0099 -2.6091
  104OSM   C13F10614   0.727   3.713   9.191 -1.1389 -0.7098  0.5778
  104OSM   H13F10615   0.658   3.799   9.202  2.0697  2.2774 -0.5161
  104OSM   H13G10616   0.717   3.673   9.087  2.2649  1.1842 -0.6586
  104OSM   C14F10617   0.870   3.779   9.184  0.1501  0.3157  0.2775
  104OSM   H14F10618   0.937   3.690   9.179  0.2233  0.4299 -1.3048
  104OSM   H14G10619   0.892   3.833   9.279 -0.9279 -0.1549  0.8090
  104OSM   C15F10620   0.899   3.872   9.069 -0.6534  0.5057 -0.9139
  104OSM   H15F10621   0.993   3.924   9.098 -0.2319 -0.9080  0.3837
  104OSM   H15G10622   0.824   3.954   9.080 -0.4936  0.7387 -1.5234
  104OSM   C16F10623   0.914   3.810   8.928 -0.5883 -0.6190  0.9312
  104OSM   H16F10624   0.823   3.749   8.907 -1.3300  0.9630 -0.7291
  104OSM   H16G10625   0.999   3.740   8.929  0.3497  0.3382 -2.0038
  104OSM   C17F10626   0.923   3.925   8.820  0.1926 -0.2101 -0.0744
  104OSM   H17F10627   1.012   3.990   8.838  1.0123 -1.1065 -0.7566
  104OSM   H17G10628   0.838   3.992   8.845 -0.1718 -0.5023 -0.5225
  104OSM   C18F10629   0.920   3.885   8.678  0.0518 -0.2934 -0.5322
  104OSM   H18F10630   0.813   3.867   8.656 -0.7959  1.5927  1.6233
  104OSM   H18G10631   0.982   3.794   8.664  1.9549  0.7611  0.5484
  104OSM   H18H10632   0.957   3.964   8.608  1.2898  0.6239  1.0998
  105OSM      N10633   6.370   6.370  10.722  0.9682  0.7266 -0.5939
  105OSM    C1510634   6.314   6.353  10.864 -0.6472 -0.0056  0.7271
  105OSM   H15A10635   6.378   6.298  10.933  0.7219 -0.5213 -0.8925
  105OSM   H15B10636   6.219   6.302  10.869  0.1307 -1.4880  1.1331
  105OSM   H15C10637   6.295   6.451  10.905 -1.3982  0.0176  0.3186
  105OSM    C1410638   6.352   6.231  10.660 -0.1303  0.7236 -0.4721
  105OSM   H14A10639   6.245   6.218  10.650 -0.4388  2.4362  0.0981
  105OSM   H14B10640   6.394   6.157  10.726 -2.9361  0.7968  1.6077
  105OSM   H14C10641   6.391   6.221  10.560 -1.1613  1.1233 -0.9343
  105OSM    C1310642   6.289   6.466  10.645  0.7076 -0.2658 -0.2360
  105OSM   H13A10643   6.301   6.562  10.694  1.2923  0.6826 -2.1141
  105OSM   H13B10644   6.187   6.435  10.664  0.5199 -0.2028 -1.0611
  105OSM   H13C10645   6.315   6.482  10.541 -1.3915  1.0239 -0.6402
  105OSM    C1210646   6.521   6.415  10.716  0.3543 -0.5355 -0.2024
  105OSM   H12A10647   6.540   6.445  10.614 -0.8818  0.9745 -0.0242
  105OSM   H12B10648   6.586   6.331  10.736 -0.4118 -0.9117  0.7763
  105OSM    C1110649   6.557   6.548  10.799 -0.8327 -0.6834 -0.2232
  105OSM   H11A10650   6.666   6.548  10.819 -1.3016 -0.8397  2.7273
  105OSM   H11B10651   6.511   6.558  10.899  2.5544 -0.6651  1.4819
  105OSM      P10652   6.584   6.726  10.610  0.0645 -0.0665 -0.3055
  105OSM    O1310653   6.727   6.725  10.640 -0.3333  0.0062 -0.1643
  105OSM    O1410654   6.535   6.666  10.487  0.0394 -0.3532  0.7295
  105OSM    O1110655   6.520   6.871  10.623 -0.4514 -0.4639  0.1897
  105OSM    O1210656   6.502   6.653  10.724 -0.1100 -0.2080 -0.4841
  105OSM    C1S10657   6.546   6.969  10.516  0.7811  0.7489 -0.5858
  105OSM    H1S10658   6.602   6.920  10.434  1.2314 -0.2716  0.2969
  105OSM    H1T10659   6.609   7.052  10.555  1.4604  1.1545 -2.4532
  105OSM     NF10660   6.463   7.095  10.328  0.7634 -0.3507 -0.7225
  105OSM    HNF10661   6.448   7.193  10.327 -0.2597 -0.4942 -0.5862
  105OSM    C2S10662   6.421   7.021  10.441  0.3447 -0.6275  0.5343
  105OSM    H2S10663   6.375   6.931  10.396 -0.6816  1.6279 -3.5043
  105OSM    C3S10664   6.336   7.091  10.548  0.9207  0.0892  0.3457
  105OSM    H3S10665   6.405   7.167  10.589  1.6989  0.1653 -1.0393
  105OSM     O310666   6.299   7.006  10.660  0.1358  0.6259 -0.2821
  105OSM    HO310667   6.375   6.948  10.664 -0.3092 -0.2917 -2.9309
  105OSM    C4S10668   6.211   7.149  10.482 -0.4154 -0.1851 -0.0760
  105OSM    H4S10669   6.223   7.254  10.451 -1.8401  0.2310  0.7171
  105OSM    C5S10670   6.087   7.105  10.495  0.0216 -0.1298  0.2689
  105OSM    H5S10671   6.075   7.017  10.561  1.3391  0.6421  1.6019
  105OSM    C6S10672   5.974   7.169  10.410 -0.0969  0.7540 -1.0695
  105OSM    H6S10673   5.901   7.217  10.478  1.3523  1.6624 -0.0925
  105OSM    H6T10674   5.927   7.087  10.352  0.3272  0.2441 -0.7073
  105OSM    C7S10675   6.016   7.277  10.308  0.6479  0.8562 -0.2030
  105OSM    H7S10676   6.078   7.353  10.359  0.0675  0.1898  1.5987
  105OSM    H7T10677   5.921   7.329  10.286  0.5754  0.3234 -1.2235
  105OSM    C8S10678   6.090   7.221  10.188  0.3507 -0.6176 -0.1474
  105OSM    H8S10679   6.054   7.119  10.160  1.7616 -0.2169 -4.1375
  105OSM    H8T10680   6.197   7.216  10.216  0.3391 -1.8371 -0.2370
  105OSM    C9S10681   6.062   7.302  10.062  0.0061  0.1043 -0.2719
  105OSM    H9S10682   6.106   7.403  10.080 -0.2839 -0.4438  4.8523
  105OSM    H9T10683   5.954   7.316  10.042 -0.1935  0.6688  1.0806
  105OSM   C10S10684   6.132   7.242   9.937 -0.3137 -0.1440  0.2934
  105OSM   H10S10685   6.085   7.144   9.913  0.3631 -0.8179  1.5607
  105OSM   H10T10686   6.234   7.212   9.972 -0.5957 -0.6365  0.7002
  105OSM   C11S10687   6.128   7.336   9.817  0.5949  0.3339 -0.1845
  105OSM   H11S10688   6.132   7.442   9.849  0.7037  0.3845 -0.3658
  105OSM   H11T10689   6.024   7.325   9.778  0.7584  0.6561 -0.7175
  105OSM   C12S10690   6.229   7.308   9.708 -0.0374  0.2673 -0.3068
  105OSM   H12S10691   6.258   7.201   9.700 -0.4705  0.0763  0.6353
  105OSM   H12T10692   6.323   7.367   9.720  0.3679 -0.6314  1.2745
  105OSM   C13S10693   6.156   7.343   9.572  0.5961  0.6884 -0.3938
  105OSM   H13S10694   6.126   7.450   9.584 -2.6971 -0.2433  0.4574
  105OSM   H13T10695   6.065   7.280   9.580  0.7705  0.5884  1.1049
  105OSM   C14S10696   6.227   7.321   9.439 -0.8364 -0.4139 -0.1513
  105OSM   H14S10697   6.281   7.224   9.438 -0.8881 -0.4538  0.4511
  105OSM   H14T10698   6.299   7.403   9.421 -1.5897  0.2055 -0.4139
  105OSM   C15S10699   6.131   7.326   9.320 -0.1375 -0.1293  0.1954
  105OSM   H15S10700   6.087   7.428   9.324 -0.7117 -0.3002 -1.0749
  105OSM   H15T10701   6.042   7.259   9.326 -0.4165  0.3589  2.1325
  105OSM   C16S10702   6.194   7.311   9.188 -0.2546 -0.1230  0.3206
  105OSM   H16S10703   6.213   7.205   9.161  0.3539  0.1625 -0.4010
  105OSM   H16T10704   6.292   7.361   9.170 -1.7939  1.8143 -4.1724
  105OSM   C17S10705   6.102   7.372   9.073  0.1131 -0.8120  0.0227
  105OSM   H17S10706   6.083   7.481   9.083 -1.9956 -1.2082  0.9534
  105OSM   H17T10707   6.001   7.326   9.082  1.1239 -2.6335  4.0251
  105OSM   C18S10708   6.151   7.346   8.934  0.4069 -0.6925 -0.9174
  105OSM   H18S10709   6.136   7.239   8.905  0.5765  0.0315 -3.9274
  105OSM   H18T10710   6.256   7.377   8.914 -0.0420  0.6186 -1.3012
  105OSM   H18U10711   6.091   7.402   8.860 -1.7274 -1.6819 -0.0432
  105OSM    C1F10712   6.519   7.042  10.216  0.1863 -0.6125  0.2682
  105OSM     OF10713   6.536   6.922  10.202  0.3896 -0.6049 -0.0857
  105OSM    C2F10714   6.563   7.140  10.119  0.4487  0.2721 -0.5275
  105OSM    H2F10715   6.667   7.176  10.135  1.1466 -1.8753  0.2977
  105OSM    H2G10716   6.493   7.226  10.130  0.5542  0.1761  1.3001
  105OSM    C3F10717   6.563   7.070   9.981  0.1260  0.1323  0.5424
  105OSM    H3F10718   6.460   7.033   9.965 -0.3061  1.8085 -0.8010
  105OSM    H3G10719   6.638   6.988   9.973 -0.4089 -1.1419  5.2091
  105OSM    C4F10720   6.590   7.166   9.866 -0.6319  0.5036 -0.0388
  105OSM    H4F10721   6.684   7.220   9.892  0.1640 -0.5928 -0.5655
  105OSM    H4G10722   6.512   7.245   9.863 -0.1280  1.0680  1.1016
  105OSM    C5F10723   6.577   7.092   9.732 -0.1500 -0.2696  0.5800
  105OSM    H5F10724   6.476   7.047   9.729 -0.9939  1.0778  3.8218
  105OSM    H5G10725   6.658   7.016   9.730 -0.8565 -1.0180 -0.1359
  105OSM    C6F10726   6.587   7.179   9.612 -0.1365 -0.0110  0.3214
  105OSM    H6F10727   6.680   7.240   9.611 -0.1175 -0.0384  0.4349
  105OSM    H6G10728   6.498   7.246   9.601  2.9018  4.3795 -0.1969
  105OSM    C7F10729   6.581   7.085   9.488 -0.4075 -0.7921 -0.0237
  105OSM    H7F10730   6.500   7.014   9.514 -1.0945 -0.0465 -0.0721
  105OSM    H7G10731   6.677   7.030   9.483 -0.6789 -1.2505 -0.2767
  105OSM    C8F10732   6.567   7.165   9.364 -0.1940 -1.0576  0.0622
  105OSM    H8F10733   6.646   7.243   9.354 -2.9090  1.7063 -1.8114
  105OSM    H8G10734   6.473   7.223   9.375  0.5195  0.1459  0.0637
  105OSM    C9F10735   6.565   7.079   9.238  0.5208  1.1660 -0.0799
  105OSM    H9F10736   6.467   7.033   9.215  0.6696 -0.7641  2.6455
  105OSM   C10F10737   6.672   7.048   9.169 -0.5579 -0.0771 -0.2121
  105OSM   H10F10738   6.679   6.992   9.074  3.3235  0.5375 -0.4671
  105OSM   C11F10739   6.806   7.092   9.196 -0.2119  0.0800 -0.8992
  105OSM   H11F10740   6.877   7.007   9.199 -0.3362 -0.0983 -2.3129
  105OSM   H11G10741   6.812   7.140   9.296 -0.2697  0.2029 -0.9543
  105OSM   C12F10742   6.873   7.187   9.095  0.3393  0.0559  0.4788
  105OSM   H12F10743   6.810   7.278   9.088 -1.2381 -1.0530 -0.4292
  105OSM   H12G10744   6.864   7.136   8.996 -3.5375 -0.2390  0.8261
  105OSM   C13F10745   7.015   7.220   9.118  0.1456  0.0808 -0.1981
  105OSM   H13F10746   7.059   7.125   9.154 -1.9787 -0.5463  0.8859
  105OSM   H13G10747   7.018   7.287   9.207  1.9482  0.4996 -0.5313
  105OSM   C14F10748   7.088   7.281   9.001  0.0202  0.2706 -0.5304
  105OSM   H14F10749   7.043   7.379   8.972 -0.7261  0.2051  0.3735
  105OSM   H14G10750   7.072   7.220   8.910 -1.8661 -0.4890  0.2514
  105OSM   C15F10751   7.238   7.283   9.021 -0.5754  0.4696 -0.3479
  105OSM   H15F10752   7.274   7.180   9.037  0.4670  0.7519 -0.7937
  105OSM   H15G10753   7.269   7.344   9.108 -0.9450  0.9920 -0.5738
  105OSM   C16F10754   7.313   7.338   8.899 -0.3707  0.3037  0.8166
  105OSM   H16F10755   7.282   7.289   8.805 -2.0704  1.3178  0.8084
  105OSM   H16G10756   7.415   7.301   8.923 -0.7079 -2.5889 -1.6099
  105OSM   C17F10757   7.302   7.486   8.876  0.0617 -0.9654 -0.7920
  105OSM   H17F10758   7.325   7.536   8.972 -2.8941  0.6934 -0.8346
  105OSM   H17G10759   7.204   7.525   8.842 -0.0590 -1.4096 -0.9572
  105OSM   C18F10760   7.413   7.509   8.770  0.1171 -0.0739 -0.6306
  105OSM   H18F10761   7.510   7.474   8.810  0.3131  1.4291  0.2994
  105OSM   H18G10762   7.430   7.618   8.758 -2.1405  0.5787  1.1711
  105OSM   H18H10763   7.378   7.463   8.676 -1.4379  0.3184 -0.2855
  106OSM      N10764   6.576   0.393  10.987  0.1468 -0.1936 -0.2477
  106OSM    C1510765   6.548   0.314  10.862 -0.5175  0.2527  0.2046
  106OSM   H15A10766   6.603   0.361  10.783 -1.0948 -1.7964 -1.5120
  106OSM   H15B10767   6.444   0.328  10.837 -1.1811  2.0139  3.3436
  106OSM   H15C10768   6.556   0.206  10.858 -1.7421  0.1549 -4.0540
  106OSM    C1410769   6.475   0.352  11.086 -0.3086 -0.3857 -0.1121
  106OSM   H14A10770   6.449   0.247  11.080  0.4488 -0.5766 -0.1368
  106OSM   H14B10771   6.384   0.399  11.051  0.7186 -0.2532 -2.8353
  106OSM   H14C10772   6.503   0.386  11.184 -2.2973  3.1994 -0.6426
  106OSM    C1310773   6.713   0.355  11.028 -0.1093  0.3158 -0.4944
  106OSM   H13A10774   6.704   0.248  11.042  0.1033  0.4736  1.0094
  106OSM   H13B10775   6.743   0.395  11.124 -0.7457 -2.9431  1.2097
  106OSM   H13C10776   6.780   0.392  10.952  0.4026  0.2171 -0.0916
  106OSM    C1210777   6.577   0.546  10.961  0.2521 -0.5185 -1.0556
  106OSM   H12A10778   6.618   0.587  11.052 -0.8598 -1.3557 -0.1440
  106OSM   H12B10779   6.475   0.579  10.946  0.6439  0.6394 -1.3267
  106OSM    C1110780   6.652   0.591  10.831  0.6195 -0.1379 -0.4593
  106OSM   H11A10781   6.749   0.543  10.804 -0.2232 -0.7552 -2.6589
  106OSM   H11B10782   6.678   0.699  10.839  1.1403 -0.3939  2.1766
  106OSM      P10783   6.438   0.664  10.693  0.2053  0.1280 -0.3925
  106OSM    O1310784   6.374   0.617  10.564  0.0925 -0.3859  0.3402
  106OSM    O1410785   6.357   0.660  10.820 -0.1336  0.4720  0.3309
  106OSM    O1110786   6.492   0.811  10.676 -0.2625 -0.0949  0.0258
  106OSM    O1210787   6.570   0.581  10.711  0.6339 -0.5076 -1.0034
  106OSM    C1S10788   6.580   0.850  10.563 -0.0088  0.1866  0.5775
  106OSM    H1S10789   6.595   0.757  10.504 -1.1139 -0.1842  0.8535
  106OSM    H1T10790   6.676   0.880  10.607  0.8663  0.5900 -1.4845
  106OSM     NF10791   6.600   0.969  10.355 -0.1583 -0.0329 -0.3690
  106OSM    HNF10792   6.687   1.016  10.364  0.3480 -1.0535  0.3014
  106OSM    C2S10793   6.523   0.964  10.475 -0.3714  0.1263  0.3747
  106OSM    H2S10794   6.419   0.935  10.449 -0.2081  0.1932 -0.3752
  106OSM    C3S10795   6.515   1.096  10.561 -0.2739 -0.1271  0.9766
  106OSM    H3S10796   6.616   1.131  10.593  0.2034  1.7442 -2.1232
  106OSM     O310797   6.444   1.080  10.682  0.0773  0.2843 -0.5361
  106OSM    HO310798   6.470   0.993  10.713  2.2841  0.5257 -1.5157
  106OSM    C4S10799   6.454   1.205  10.472  0.1945 -0.5167 -0.0873
  106OSM    H4S10800   6.517   1.287  10.435 -1.7878  0.8493 -0.5804
  106OSM    C5S10801   6.327   1.223  10.442  0.0083  0.2296  0.5247
  106OSM    H5S10802   6.249   1.155  10.480 -2.4189  1.1920 -2.2941
  106OSM    C6S10803   6.271   1.331  10.359  0.1869 -0.1578  0.7208
  106OSM    H6S10804   6.240   1.415  10.424 -0.3790  0.5593 -0.4462
  106OSM    H6T10805   6.183   1.297  10.300  0.6198 -0.6643  0.3595
  106OSM    C7S10806   6.365   1.391  10.254 -0.0608  0.5239  0.0978
  106OSM    H7S10807   6.448   1.447  10.302 -0.0464  0.5342  0.0603
  106OSM    H7T10808   6.305   1.460  10.191  2.8535  2.5456 -0.6421
  106OSM    C8S10809   6.425   1.281  10.154  0.0427 -0.1094  0.8642
  106OSM    H8S10810   6.361   1.192  10.174 -0.3925  0.0100  0.0424
  106OSM    H8T10811   6.530   1.258  10.182  0.8171  1.2381 -0.7025
  106OSM    C9S10812   6.409   1.324  10.005 -0.7066  0.1024  0.4520
  106OSM    H9S10813   6.456   1.421   9.980  0.8155 -0.5240  0.8111
  106OSM    H9T10814   6.301   1.346   9.992 -0.5840  0.5686  0.2267
  106OSM   C10S10815   6.470   1.234   9.893 -0.5990  0.4580  0.0842
  106OSM   H10S10816   6.425   1.132   9.899  0.2376 -0.0635 -1.9164
  106OSM   H10T10817   6.575   1.220   9.926 -0.1840 -0.0926 -1.4244
  106OSM   C11S10818   6.448   1.298   9.754 -0.8793 -0.5282  0.8319
  106OSM   H11S10819   6.474   1.406   9.751  0.3797 -0.8270 -1.7274
  106OSM   H11T10820   6.341   1.279   9.731 -0.6242 -0.9705 -0.0349
  106OSM   C12S10821   6.520   1.222   9.647 -0.3921 -0.2336 -0.2404
  106OSM   H12S10822   6.504   1.113   9.637  0.1634 -0.1393 -2.6544
  106OSM   H12T10823   6.627   1.233   9.675  0.2612 -2.0199 -1.8807
  106OSM   C13S10824   6.501   1.281   9.507 -0.4949 -0.1419  1.4739
  106OSM   H13S10825   6.541   1.384   9.497  0.0931 -0.3816  1.2475
  106OSM   H13T10826   6.394   1.300   9.487  0.3568  2.5288 -1.2431
  106OSM   C14S10827   6.564   1.199   9.395  0.4694  0.2222  0.3579
  106OSM   H14S10828   6.502   1.110   9.370  0.1893  0.5041  0.0251
  106OSM   H14T10829   6.658   1.152   9.429 -2.0015 -3.7398  2.5050
  106OSM   C15S10830   6.586   1.282   9.269  0.8250  0.5272  0.0737
  106OSM   H15S10831   6.663   1.360   9.289  0.1979  0.7901  1.5639
  106OSM   H15T10832   6.493   1.342   9.255  0.6502  1.4103  3.8325
  106OSM   C16S10833   6.606   1.197   9.149 -0.2236  0.3352  0.4946
  106OSM   H16S10834   6.510   1.147   9.125  0.9484 -1.4404 -0.7503
  106OSM   H16T10835   6.675   1.112   9.168 -0.5052  0.0208  0.1280
  106OSM   C17S10836   6.638   1.259   9.006  1.0396  0.0514 -0.4256
  106OSM   H17S10837   6.742   1.299   9.006  0.7236  0.9555 -1.8443
  106OSM   H17T10838   6.579   1.349   8.981  0.6250  0.1877  1.0164
  106OSM   C18S10839   6.627   1.154   8.889 -0.2950 -0.3532  0.1517
  106OSM   H18S10840   6.667   1.056   8.924 -2.1036 -1.8456 -1.6896
  106OSM   H18T10841   6.683   1.199   8.804 -0.5170  0.9906  0.6878
  106OSM   H18U10842   6.523   1.134   8.854  0.3543 -0.7496 -1.6686
  106OSM    C1F10843   6.568   0.888  10.255  0.1870 -0.2802  0.1881
  106OSM     OF10844   6.465   0.816  10.261 -0.7606 -0.0257 -0.1219
  106OSM    C2F10845   6.658   0.892  10.131 -0.1678 -0.4717 -0.2390
  106OSM    H2F10846   6.759   0.921  10.166  0.5616  0.3976 -2.8190
  106OSM    H2G10847   6.630   0.980  10.070 -1.3927 -0.1233  0.7743
  106OSM    C3F10848   6.666   0.763  10.040 -0.2859 -1.0128 -0.0248
  106OSM    H3F10849   6.567   0.739   9.995 -1.6605  0.3038  2.1429
  106OSM    H3G10850   6.687   0.684  10.114 -0.4442  0.7585  2.0005
  106OSM    C4F10851   6.773   0.775   9.933 -0.8567 -0.0110  0.0905
  106OSM    H4F10852   6.879   0.795   9.959 -0.3473  3.0247 -3.4047
  106OSM    H4G10853   6.747   0.865   9.873 -0.4749  1.8762  2.5823
  106OSM    C5F10854   6.772   0.662   9.821 -0.2396  0.1493 -0.3948
  106OSM    H5F10855   6.664   0.642   9.804 -0.5296  0.8291  0.5505
  106OSM    H5G10856   6.824   0.573   9.864  0.1417  0.0232 -1.1005
  106OSM    C6F10857   6.835   0.712   9.690 -1.0151 -0.5745  0.2563
  106OSM    H6F10858   6.852   0.619   9.633 -0.1246 -0.4024  0.2219
  106OSM    H6G10859   6.937   0.755   9.700 -0.7846 -0.9837 -0.3108
  106OSM    C7F10860   6.761   0.824   9.612 -0.1437  0.0331  0.2495
  106OSM    H7F10861   6.785   0.918   9.666  1.9466 -0.2892 -0.0268
  106OSM    H7G10862   6.653   0.800   9.608 -0.9143  2.0961  4.0293
  106OSM    C8F10863   6.816   0.827   9.461  0.4781 -0.4607  0.0955
  106OSM    H8F10864   6.923   0.852   9.478  0.5714 -0.2908 -0.7004
  106OSM    H8G10865   6.781   0.914   9.400  1.6227 -0.4727 -0.6204
  106OSM    C9F10866   6.817   0.694   9.383 -0.5519 -0.3035 -0.5479
  106OSM    H9F10867   6.900   0.626   9.407 -1.3154 -1.2504 -0.5391
  106OSM   C10F10868   6.727   0.654   9.297  0.1539 -0.3462 -0.0861
  106OSM   H10F10869   6.742   0.549   9.269  1.0071 -0.5672  1.1233
  106OSM   C11F10870   6.615   0.730   9.243  0.5524 -0.2943  0.8047
  106OSM   H11F10871   6.590   0.811   9.316  0.1105 -0.5064  0.8904
  106OSM   H11G10872   6.536   0.654   9.225  0.1435  0.6105 -1.6640
  106OSM   C12F10873   6.649   0.807   9.109 -0.3576  0.3339  0.3631
  106OSM   H12F10874   6.727   0.884   9.128 -1.5024  2.3495 -2.5100
  106OSM   H12G10875   6.555   0.854   9.073 -0.5049 -0.5405 -0.4286
  106OSM   C13F10876   6.711   0.718   9.002 -0.1922 -0.0213  0.3175
  106OSM   H13F10877   6.812   0.683   9.032 -0.9659 -2.1190  0.6124
  106OSM   H13G10878   6.727   0.781   8.912 -3.4450 -0.5783 -0.7765
  106OSM   C14F10879   6.623   0.595   8.955 -0.0490 -0.7562  0.0296
  106OSM   H14F10880   6.521   0.628   8.927  0.5693  0.8306 -0.4639
  106OSM   H14G10881   6.601   0.518   9.031 -2.2413 -0.3807 -0.1683
  106OSM   C15F10882   6.675   0.533   8.824 -0.5385 -0.2718 -0.5339
  106OSM   H15F10883   6.779   0.500   8.842 -0.7338 -0.0854  1.0439
  106OSM   H15G10884   6.682   0.613   8.747  0.9837  0.0492 -0.0966
  106OSM   C16F10885   6.597   0.411   8.775 -0.2131 -0.2148  0.4547
  106OSM   H16F10886   6.488   0.433   8.777 -0.1386  0.1040  1.7763
  106OSM   H16G10887   6.604   0.332   8.852  2.0712 -0.7190 -0.2002
  106OSM   C17F10888   6.620   0.384   8.625 -0.3628  0.6202 -0.2181
  106OSM   H17F10889   6.583   0.281   8.609  0.0246  0.4871 -0.2593
  106OSM   H17G10890   6.728   0.382   8.602 -0.8745  1.6251 -3.0773
  106OSM   C18F10891   6.547   0.475   8.527 -0.0767  0.0192 -0.1311
  106OSM   H18F10892   6.598   0.468   8.429  2.1567 -1.3191  1.0485
  106OSM   H18G10893   6.540   0.576   8.572  0.4664  0.6697 -1.4866
  106OSM   H18H10894   6.444   0.434   8.514  0.1683 -0.2913 -1.1385
  107OSM      N10895   0.327   2.770  10.990  0.2220  0.6050 -0.4400
  107OSM    C1510896   0.278   2.623  10.989 -0.0277 -0.6543 -0.0257
  107OSM   H15A10897   0.173   2.628  11.014  0.4447  0.1629  1.9541
  107OSM   H15B10898   0.312   2.555  11.066 -0.2151  1.2584  1.8220
  107OSM   H15C10899   0.281   2.575  10.892  1.3812 -1.6708  0.4908
  107OSM    C1410900   0.314   2.819  11.131  0.3756 -0.3897 -0.1113
  107OSM   H14A10901   0.208   2.820  11.151  0.1494  0.7243 -1.2280
  107OSM   H14B10902   0.348   2.919  11.150  0.8042 -0.7466  1.0460
  107OSM   H14C10903   0.358   2.747  11.198 -1.0576 -1.1766  0.0088
  107OSM    C1310904   0.468   2.776  10.948 -0.0065  0.0087  0.0053
  107OSM   H13A10905   0.488   2.742  10.848  0.0561  0.6052 -0.1897
  107OSM   H13B10906   0.523   2.725  11.025 -2.1844  2.6346  3.6390
  107OSM   H13C10907   0.506   2.877  10.954  0.0345 -0.0828  2.3008
  107OSM    C1210908   0.231   2.850  10.913  0.2622  0.3683 -0.1765
  107OSM   H12A10909   0.128   2.829  10.937  0.6705 -0.7884  0.6293
  107OSM   H12B10910   0.239   2.816  10.811 -0.2286 -0.2430 -0.0100
  107OSM    C1110911   0.259   3.004  10.919 -0.0980  0.4519 -0.4451
  107OSM   H11A10912   0.358   3.016  10.871  0.2605 -2.9013 -0.7833
  107OSM   H11B10913   0.273   3.055  11.016  1.0922  1.0523 -0.9127
  107OSM      P10914   0.018   3.105  10.908  0.1563 -0.4353 -0.3931
  107OSM    O1310915  -0.042   2.985  10.975  0.2421  0.1131  0.4837
  107OSM    O1410916   0.039   3.223  10.994  0.3627  0.4519  0.1214
  107OSM    O1110917  -0.078   3.144  10.788 -0.4326 -0.6946 -0.1266
  107OSM    O1210918   0.158   3.071  10.836 -0.4092  0.6908  0.2028
  107OSM    C1S10919  -0.025   3.177  10.662  0.0162  0.0074  0.6450
  107OSM    H1S10920  -0.002   3.088  10.600  1.5477 -0.6376  2.0637
  107OSM    H1T10921   0.071   3.233  10.657 -0.6328  1.0710 -1.6460
  107OSM     NF10922  -0.086   3.281  10.448  0.0278  0.0626 -0.4124
  107OSM    HNF10923  -0.045   3.370  10.433 -3.1262  1.7390 -0.0489
  107OSM    C2S10924  -0.129   3.260  10.583 -0.1922 -0.2769 -0.2990
  107OSM    H2S10925  -0.212   3.187  10.577  1.9576 -3.2992  2.9408
  107OSM    C3S10926  -0.179   3.392  10.653 -0.2117  0.2806 -0.4009
  107OSM    H3S10927  -0.105   3.475  10.653  0.7283 -0.5200  0.8561
  107OSM     O310928  -0.215   3.372  10.785 -0.0245 -0.6681  0.0922
  107OSM    HO310929  -0.174   3.291  10.816 -0.5680 -0.9962 -0.0205
  107OSM    C4S10930  -0.302   3.433  10.572 -0.1693  0.8061  0.1172
  107OSM    H4S10931  -0.388   3.364  10.579 -0.2538  0.4924 -2.6997
  107OSM    C5S10932  -0.322   3.555  10.516  0.4466  0.3442 -0.2607
  107OSM    H5S10933  -0.254   3.641  10.526 -0.7514  1.0672  2.7899
  107OSM    C6S10934  -0.455   3.574  10.454 -0.1545 -0.3960 -0.4322
  107OSM    H6S10935  -0.501   3.666  10.496 -0.6249 -0.7454 -0.1731
  107OSM    H6T10936  -0.537   3.505  10.483  0.0576  0.0602  1.4130
  107OSM    C7S10937  -0.459   3.579  10.303  0.2001 -0.3125 -0.4731
  107OSM    H7S10938  -0.404   3.664  10.257 -0.7151 -0.7412 -2.4620
  107OSM    H7T10939  -0.564   3.598  10.271 -0.6437  1.7561  2.9899
  107OSM    C8S10940  -0.411   3.452  10.239 -0.5738  0.4026 -0.2340
  107OSM    H8S10941  -0.484   3.379  10.279 -1.6558  1.4480 -0.2468
  107OSM    H8T10942  -0.309   3.429  10.277 -0.9382  0.4075  0.8079
  107OSM    C9S10943  -0.419   3.460  10.090 -0.3288  1.4372 -0.2515
  107OSM    H9S10944  -0.521   3.498  10.068 -0.7433 -0.4423 -1.8489
  107OSM    H9T10945  -0.419   3.352  10.064 -0.6489  1.5098 -0.5587
  107OSM   C10S10946  -0.315   3.534  10.022 -0.3059 -0.0007  0.4493
  107OSM   H10S10947  -0.212   3.497  10.042  0.3802  1.5803  0.0320
  107OSM   H10T10948  -0.309   3.635  10.067  5.3745  1.4565 -2.5366
  107OSM   C11S10949  -0.331   3.550   9.864  0.0109 -0.5784  0.2747
  107OSM   H11S10950  -0.258   3.624   9.823 -1.6466  1.1650  0.3422
  107OSM   H11T10951  -0.427   3.605   9.867 -0.4266 -1.3804  1.1594
  107OSM   C12S10952  -0.348   3.420   9.784  0.5146 -0.1082 -0.7274
  107OSM   H12S10953  -0.445   3.385   9.828 -0.7990  1.0170 -2.5968
  107OSM   H12T10954  -0.267   3.345   9.792  0.6641  0.1842  0.8163
  107OSM   C13S10955  -0.383   3.451   9.636 -0.1160  0.1455  0.0260
  107OSM   H13S10956  -0.341   3.549   9.606  1.7877 -1.1857 -2.0094
  107OSM   H13T10957  -0.493   3.456   9.622  0.0746  1.1576 -1.2976
  107OSM   C14S10958  -0.340   3.345   9.538  0.3053 -0.7150  0.9770
  107OSM   H14S10959  -0.392   3.250   9.561 -0.4247 -0.3865  0.7035
  107OSM   H14T10960  -0.231   3.333   9.560  1.0928  2.1776 -0.7138
  107OSM   C15S10961  -0.370   3.385   9.389  0.4427  0.0856  0.2644
  107OSM   H15S10962  -0.317   3.476   9.356  2.5332 -1.3055 -0.4280
  107OSM   H15T10963  -0.479   3.404   9.380  0.4665  1.0120  1.7312
  107OSM   C16S10964  -0.334   3.280   9.290  0.6582  0.2202  0.6199
  107OSM   H16S10965  -0.397   3.192   9.316  2.2382 -0.6450  1.7235
  107OSM   H16T10966  -0.227   3.249   9.299  0.1990 -2.3608 -1.5687
  107OSM   C17S10967  -0.347   3.328   9.145  0.2196  0.2371 -0.3760
  107OSM   H17S10968  -0.272   3.408   9.123  0.4292  0.2389  0.3048
  107OSM   H17T10969  -0.449   3.372   9.141 -1.1524 -2.6266  0.3990
  107OSM   C18S10970  -0.347   3.219   9.044  0.5267  0.5976 -0.6784
  107OSM   H18S10971  -0.245   3.176   9.035 -0.5223 -2.1167 -0.5683
  107OSM   H18T10972  -0.381   3.238   8.940 -1.2465 -1.3989 -0.5307
  107OSM   H18U10973  -0.411   3.133   9.074  1.1540  0.1144 -0.6996
  107OSM    C1F10974  -0.093   3.190  10.351 -0.2915  0.3518 -0.0934
  107OSM     OF10975  -0.137   3.079  10.371 -0.1880 -0.0277 -0.2014
  107OSM    C2F10976  -0.036   3.242  10.217  0.5608  0.3303 -0.3068
  107OSM    H2F10977   0.053   3.306  10.237  0.5177 -0.5968  3.5175
  107OSM    H2G10978  -0.114   3.308  10.173  0.8019 -0.7284 -2.4619
  107OSM    C3F10979  -0.003   3.147  10.108 -0.0319  0.9747  0.1689
  107OSM    H3F10980  -0.082   3.070  10.090  0.7034  0.3785 -0.6113
  107OSM    H3G10981   0.088   3.089  10.136 -0.4148 -1.2476 -2.6565
  107OSM    C4F10982   0.020   3.220   9.977  0.5057  0.1671  0.1492
  107OSM    H4F10983   0.101   3.295   9.988 -1.6370  2.2808  3.1001
  107OSM    H4G10984  -0.066   3.287   9.958  1.7589  1.2681 -1.9487
  107OSM    C5F10985   0.037   3.128   9.862 -0.8037 -0.2173 -0.5182
  107OSM    H5F10986  -0.030   3.041   9.883 -1.6471  0.9774  2.2527
  107OSM    H5G10987   0.142   3.093   9.871 -0.4454  1.1217  0.8366
  107OSM    C6F10988   0.012   3.187   9.723  0.2571 -1.1752  0.0489
  107OSM    H6F10989   0.080   3.275   9.723  0.2442 -1.0829 -2.7843
  107OSM    H6G10990  -0.092   3.226   9.726  0.2685 -1.0767  3.7383
  107OSM    C7F10991   0.027   3.081   9.616  0.1544 -0.8652 -0.6281
  107OSM    H7F10992  -0.028   2.991   9.652 -0.3261 -0.8985 -1.4316
  107OSM    H7G10993   0.137   3.086   9.610  0.0188  1.0643 -2.7023
  107OSM    C8F10994  -0.045   3.116   9.477  0.0545 -0.0241  0.0320
  107OSM    H8F10995  -0.009   3.217   9.447 -0.6162  0.4891  0.9273
  107OSM    H8G10996  -0.153   3.124   9.501  0.0302 -0.4035  0.0513
  107OSM    C9F10997  -0.026   3.008   9.369  0.1286 -0.7530  1.0987
  107OSM    H9F10998  -0.048   2.906   9.403  2.1411 -1.3042  0.9314
  107OSM   C10F10999   0.029   3.028   9.251  0.4741 -1.1612  0.4624
  107OSM   H10F11000   0.050   2.943   9.184  1.2916  0.4247 -1.3598
  107OSM   C11F11001   0.089   3.163   9.208  0.6089  0.0959 -0.3586
  107OSM   H11F11002   0.193   3.171   9.246  0.4782  2.2392 -0.3385
  107OSM   H11G11003   0.022   3.248   9.231  0.0325  0.2302 -2.3729
  107OSM   C12F11004   0.124   3.170   9.053  0.1801 -0.3263 -0.7329
  107OSM   H12F11005   0.184   3.261   9.033 -1.0504  0.0019 -3.4698
  107OSM   H12G11006   0.031   3.167   8.991  1.7018  0.1034 -3.1637
  107OSM   C13F11007   0.201   3.048   9.014 -0.4449  0.1165  0.8114
  107OSM   H13F11008   0.128   2.965   9.003 -1.7035  1.3664 -0.8000
  107OSM   H13G11009   0.272   3.027   9.096  1.8806  0.5757 -0.9801
  107OSM   C14F11010   0.274   3.068   8.879  0.6319 -0.0393 -0.6802
  107OSM   H14F11011   0.320   3.168   8.862 -2.4439  1.4560 -0.7944
  107OSM   H14G11012   0.190   3.065   8.807 -1.3402  0.5005  1.4653
  107OSM   C15F11013   0.375   2.962   8.828 -0.8440 -0.6644  0.1420
  107OSM   H15F11014   0.310   2.873   8.816  1.2100 -2.2301  0.0979
  107OSM   H15G11015   0.456   2.936   8.899 -0.3069 -1.1826 -0.6417
  107OSM   C16F11016   0.420   3.002   8.686  0.6453  0.5032  0.2783
  107OSM   H16F11017   0.492   3.086   8.682  0.6134  0.5905  1.2700
  107OSM   H16G11018   0.326   3.039   8.640 -0.0822 -1.4457  0.0985
  107OSM   C17F11019   0.472   2.878   8.603  1.1520  0.1157  1.3007
  107OSM   H17F11020   0.490   2.799   8.679 -1.2897 -2.8895 -0.9547
  107OSM   H17G11021   0.564   2.901   8.546  0.2225 -1.4711 -1.0208
  107OSM   C18F11022   0.359   2.828   8.514  1.2335  0.2368  0.0932
  107OSM   H18F11023   0.331   2.903   8.437  0.0856 -1.0110 -0.7736
  107OSM   H18G11024   0.265   2.799   8.567  0.5888  2.4281  0.2507
  107OSM   H18H11025   0.403   2.742   8.459  1.2974  1.0654 -1.1932
  108OSM      N11026   4.355   1.446  10.887 -0.7800 -0.6060  0.6075
  108OSM    C1511027   4.463   1.540  10.874 -1.1222  0.1118  0.4189
  108OSM   H15A11028   4.428   1.636  10.840 -0.4397 -0.6538 -2.7454
  108OSM   H15B11029   4.531   1.496  10.802  0.5357  2.8527  0.1785
  108OSM   H15C11030   4.517   1.550  10.967 -0.2986 -1.4652  0.1532
  108OSM    C1411031   4.404   1.316  10.944  0.1432 -0.1173 -0.4066
  108OSM   H14A11032   4.485   1.286  10.880  0.2271 -0.2648 -0.2320
  108OSM   H14B11033   4.322   1.246  10.935 -1.3513  1.3684  0.7457
  108OSM   H14C11034   4.443   1.337  11.043  2.3134 -2.6380 -0.6259
  108OSM    C1311035   4.253   1.496  10.985 -0.5281  0.5790  0.4535
  108OSM   H13A11036   4.206   1.588  10.955  2.0765  2.2202  1.1187
  108OSM   H13B11037   4.298   1.529  11.078 -1.5270  3.5085  0.0030
  108OSM   H13C11038   4.188   1.412  11.007 -0.0160 -0.0269 -0.3225
  108OSM    C1211039   4.290   1.424  10.747 -0.2632  0.7273 -0.0878
  108OSM   H12A11040   4.256   1.519  10.709 -1.0935  0.1637 -0.8187
  108OSM   H12B11041   4.208   1.353  10.750  0.8514 -1.0542 -4.2742
  108OSM    C1111042   4.379   1.366  10.632 -0.2247  0.0086  0.2785
  108OSM   H11A11043   4.469   1.432  10.628 -0.9352  0.9683 -0.5100
  108OSM   H11B11044   4.325   1.377  10.536 -0.2570 -0.3632  0.2542
  108OSM      P11045   4.313   1.119  10.669  0.1417 -0.1244  0.0890
  108OSM    O1311046   4.327   1.049  10.796 -0.1158  0.9834 -0.6282
  108OSM    O1411047   4.181   1.180  10.634 -0.6310 -0.4991 -0.0424
  108OSM    O1111048   4.358   1.011  10.553  0.8322 -0.2694  0.2813
  108OSM    O1211049   4.421   1.236  10.667 -0.1167  0.0909  0.0600
  108OSM    C1S11050   4.313   1.048  10.422  0.9220 -0.7335 -0.4199
  108OSM    H1S11051   4.309   1.156  10.394  0.5410 -0.3006  1.2138
  108OSM    H1T11052   4.210   1.009  10.414  0.4348  0.2689  0.7079
  108OSM     NF11053   4.389   1.052  10.183  0.4978 -0.1962 -0.9492
  108OSM    HNF11054   4.331   0.999  10.122  0.2530 -0.0235 -0.8670
  108OSM    C2S11055   4.409   0.982  10.309 -0.5189  0.2231 -0.2051
  108OSM    H2S11056   4.514   0.991  10.347 -0.3061 -2.4378 -0.0091
  108OSM    C3S11057   4.389   0.828  10.307  0.1415  0.4544 -0.4104
  108OSM    H3S11058   4.282   0.807  10.284  0.3608 -0.5976 -0.4977
  108OSM     O311059   4.407   0.761  10.438 -0.0958  0.0241  0.4701
  108OSM    HO311060   4.381   0.824  10.506 -0.0872  1.4529 -0.7958
  108OSM    C4S11061   4.473   0.766  10.197  0.3963  0.8979 -0.2408
  108OSM    H4S11062   4.418   0.761  10.102  0.6659  0.1536 -0.3674
  108OSM    C5S11063   4.595   0.712  10.198  0.8930  0.2972 -0.3991
  108OSM    H5S11064   4.647   0.701  10.295  1.9582 -0.7766 -1.0621
  108OSM    C6S11065   4.662   0.652  10.077 -1.1148 -0.3282  0.6361
  108OSM    H6S11066   4.692   0.550  10.109 -3.2650 -1.4086 -0.5130
  108OSM    H6T11067   4.757   0.706  10.063 -1.4403  0.1464  0.2294
  108OSM    C7S11068   4.587   0.634   9.943  0.5874 -0.3886  0.4103
  108OSM    H7S11069   4.550   0.736   9.917  0.3390  0.1497  2.6615
  108OSM    H7T11070   4.510   0.557   9.963  1.6291 -2.3082 -2.3609
  108OSM    C8S11071   4.676   0.581   9.830 -0.2768  0.0271 -0.6189
  108OSM    H8S11072   4.724   0.483   9.853 -2.4647 -0.7021  1.1077
  108OSM    H8T11073   4.752   0.661   9.816  0.4401 -0.4680  0.3029
  108OSM    C9S11074   4.611   0.567   9.693 -0.2947  0.1378  0.0011
  108OSM    H9S11075   4.544   0.653   9.666 -0.8956 -0.2103  0.3557
  108OSM    H9T11076   4.544   0.479   9.701 -1.3150  0.8161 -0.7047
  108OSM   C10S11077   4.710   0.560   9.570 -0.0746 -0.9916  0.4166
  108OSM   H10S11078   4.761   0.461   9.567  1.1107 -0.3675 -0.8195
  108OSM   H10T11079   4.792   0.632   9.590 -1.0382  0.7104 -1.4769
  108OSM   C11S11080   4.638   0.580   9.429  0.1078 -0.2344 -0.9136
  108OSM   H11S11081   4.600   0.684   9.423 -0.4192 -0.1641  2.0464
  108OSM   H11T11082   4.555   0.507   9.432 -1.8002  1.8208 -0.6077
  108OSM   C12S11083   4.745   0.551   9.320 -0.3993  0.0208 -0.0666
  108OSM   H12S11084   4.689   0.555   9.224 -0.3380  1.3205 -0.0639
  108OSM   H12T11085   4.784   0.447   9.329  0.6674  0.3651 -0.5274
  108OSM   C13S11086   4.869   0.648   9.319 -0.0001 -0.6076 -0.0285
  108OSM   H13S11087   4.923   0.646   9.416  1.3255 -1.4422 -0.7627
  108OSM   H13T11088   4.828   0.751   9.309 -1.1786 -1.1242 -0.8605
  108OSM   C14S11089   4.970   0.624   9.205 -0.1693 -0.7642  0.5748
  108OSM   H14S11090   5.028   0.529   9.213  1.1550  0.0459  0.9284
  108OSM   H14T11091   5.047   0.704   9.209  0.2480 -1.0889 -0.4454
  108OSM   C15S11092   4.909   0.640   9.062  0.3638 -0.0773 -0.5416
  108OSM   H15S11093   4.844   0.550   9.061 -1.7216  1.3028  1.6559
  108OSM   H15T11094   4.985   0.619   8.982 -2.2041 -2.0311 -2.6538
  108OSM   C16S11095   4.840   0.770   9.032 -0.0821  0.7781 -0.4337
  108OSM   H16S11096   4.896   0.859   9.069 -0.0546 -0.4714  2.8469
  108OSM   H16T11097   4.747   0.783   9.090  0.1610  3.0126 -0.4666
  108OSM   C17S11098   4.807   0.783   8.883  0.2356 -0.4498  0.0610
  108OSM   H17S11099   4.765   0.688   8.843  0.7444 -1.0053  0.8104
  108OSM   H17T11100   4.902   0.814   8.834 -1.1042  1.2100 -1.6098
  108OSM   C18S11101   4.706   0.892   8.865  0.0055  0.0866 -0.6171
  108OSM   H18S11102   4.609   0.861   8.910  0.2478 -2.3826 -1.6317
  108OSM   H18T11103   4.670   0.907   8.761 -2.5281 -0.8996  0.0222
  108OSM   H18U11104   4.739   0.990   8.905  2.4537 -1.1447  0.6299
  108OSM    C1F11105   4.425   1.174  10.151  0.2284  0.2725 -0.4850
  108OSM     OF11106   4.476   1.248  10.236  0.5216  0.2685  0.1714
  108OSM    C2F11107   4.380   1.219  10.020 -0.2785  0.3024  0.0496
  108OSM    H2F11108   4.270   1.230  10.014 -0.3004 -0.4378 -1.3155
  108OSM    H2G11109   4.391   1.144   9.939  0.7336  0.5720 -0.0797
  108OSM    C3F11110   4.442   1.355   9.983  0.1640  0.0920 -0.0487
  108OSM    H3F11111   4.551   1.338   9.971  0.1150  0.2251 -0.7200
  108OSM    H3G11112   4.415   1.428  10.062 -0.3509 -0.0302 -0.1102
  108OSM    C4F11113   4.376   1.412   9.854  0.6295 -0.0132  0.0332
  108OSM    H4F11114   4.371   1.523   9.865 -0.5175 -0.1065  0.6370
  108OSM    H4G11115   4.268   1.388   9.848  0.5135 -0.0209  1.5585
  108OSM    C5F11116   4.444   1.383   9.719 -0.0914 -0.1004 -1.0858
  108OSM    H5F11117   4.426   1.278   9.685  5.2504 -1.7152  0.0662
  108OSM    H5G11118   4.551   1.407   9.734 -0.1413  0.4969 -1.6197
  108OSM    C6F11119   4.406   1.489   9.617 -0.2409  0.3906  0.5263
  108OSM    H6F11120   4.420   1.591   9.658  0.8787 -0.2981  1.9562
  108OSM    H6G11121   4.301   1.480   9.582 -1.0609  1.8490  2.4519
  108OSM    C7F11122   4.489   1.475   9.481  0.5169  0.0769 -0.1612
  108OSM    H7F11123   4.488   1.369   9.449  1.8381  0.3169 -1.1108
  108OSM    H7G11124   4.596   1.496   9.501  0.6321 -0.5771 -0.0721
  108OSM    C8F11125   4.424   1.561   9.367  0.0466 -0.0031 -0.0853
  108OSM    H8F11126   4.434   1.668   9.393  2.5127 -0.4155  0.9664
  108OSM    H8G11127   4.315   1.548   9.352 -0.0540  0.5744  0.1138
  108OSM    C9F11128   4.489   1.549   9.233  0.7485  0.0304 -0.4510
  108OSM    H9F11129   4.584   1.604   9.229  0.4453  0.4892 -1.8169
  108OSM   C10F11130   4.434   1.481   9.126  0.1523 -0.2363 -1.2794
  108OSM   H10F11131   4.493   1.479   9.033  1.3809  0.2400 -0.5364
  108OSM   C11F11132   4.308   1.391   9.142  0.2013  0.4367 -0.0768
  108OSM   H11F11133   4.230   1.460   9.178 -1.6604 -2.2551  1.3907
  108OSM   H11G11134   4.329   1.316   9.221 -0.0122  0.0454 -0.3874
  108OSM   C12F11135   4.258   1.329   9.011  0.3759  0.1923  0.0573
  108OSM   H12F11136   4.227   1.404   8.935 -1.6220  0.6259  1.2441
  108OSM   H12G11137   4.170   1.267   9.035  1.7923 -2.4208 -1.0651
  108OSM   C13F11138   4.366   1.237   8.934  0.5823  0.0678  0.4020
  108OSM   H13F11139   4.409   1.161   9.003 -0.8548  0.0073  1.2854
  108OSM   H13G11140   4.441   1.317   8.919 -1.3061  2.0701  1.0523
  108OSM   C14F11141   4.319   1.179   8.799 -0.1371  0.6099  0.0302
  108OSM   H14F11142   4.209   1.165   8.813  0.0284  0.3948  1.2658
  108OSM   H14G11143   4.366   1.081   8.774 -0.4316  0.3354  0.5132
  108OSM   C15F11144   4.349   1.277   8.685 -0.3378 -0.3333 -0.8318
  108OSM   H15F11145   4.459   1.287   8.678  0.0597 -2.1259  1.4288
  108OSM   H15G11146   4.300   1.372   8.714 -1.5947 -1.3711  0.6748
  108OSM   C16F11147   4.310   1.225   8.544  0.3896  0.1205 -0.2271
  108OSM   H16F11148   4.200   1.217   8.536  0.5365 -1.0415 -1.2940
  108OSM   H16G11149   4.362   1.127   8.536 -0.8252 -0.6155  0.6176
  108OSM   C17F11150   4.369   1.301   8.427  0.2474 -0.5661 -0.5855
  108OSM   H17F11151   4.412   1.233   8.350  1.7721 -1.1047  0.6903
  108OSM   H17G11152   4.454   1.355   8.475 -0.5148 -0.8163  1.1205
  108OSM   C18F11153   4.258   1.392   8.375  0.2723  0.1637  0.2076
  108OSM   H18F11154   4.294   1.454   8.290 -0.0682  0.2678  0.1400
  108OSM   H18G11155   4.199   1.445   8.452  0.6939 -0.8789  1.2868
  108OSM   H18H11156   4.183   1.322   8.332 -1.6557  0.7812  2.3512
  109OSM      N11157   2.397   4.491  11.100  0.1724  0.2637 -0.0076
  109OSM    C1511158   2.514   4.399  11.130  0.5892  0.5391  0.5242
  109OSM   H15A11159   2.588   4.420  11.054  3.1454 -0.2196  2.6343
  109OSM   H15B11160   2.504   4.293  11.116  2.0487  0.4520 -0.0123
  109OSM   H15C11161   2.552   4.413  11.231  1.9780 -1.2096  0.2947
  109OSM    C1411162   2.282   4.469  11.194 -0.1291  0.3597 -0.1260
  109OSM   H14A11163   2.303   4.514  11.291  1.5229 -0.9960  0.2059
  109OSM   H14B11164   2.267   4.367  11.225 -0.0662  0.4636  0.2529
  109OSM   H14C11165   2.191   4.514  11.158  0.6995  1.5707 -0.7946
  109OSM    C1311166   2.445   4.631  11.119  0.4314 -0.1371 -0.1154
  109OSM   H13A11167   2.352   4.686  11.110 -0.8613 -2.2158 -0.1820
  109OSM   H13B11168   2.504   4.663  11.035  1.2021 -1.2961 -0.0394
  109OSM   H13C11169   2.493   4.642  11.215  0.4655 -1.9016  0.1023
  109OSM    C1211170   2.354   4.467  10.958 -0.6175  0.4088  0.2590
  109OSM   H12A11171   2.332   4.362  10.948 -1.4625  0.6202 -0.2451
  109OSM   H12B11172   2.443   4.491  10.901 -0.7593  0.0820 -0.1034
  109OSM    C1111173   2.234   4.549  10.895  0.0298  0.5533 -0.0721
  109OSM   H11A11174   2.141   4.531  10.954 -0.3995  0.2447 -0.8241
  109OSM   H11B11175   2.207   4.501  10.798 -1.2557 -0.8909  0.9460
  109OSM      P11176   2.370   4.742  10.770  0.2396 -0.2400  0.2407
  109OSM    O1311177   2.365   4.886  10.778 -0.5803 -0.3329  0.4231
  109OSM    O1411178   2.496   4.673  10.793  0.5877 -0.2323 -0.0291
  109OSM    O1111179   2.323   4.682  10.629 -0.1310  0.4316  0.1264
  109OSM    O1211180   2.264   4.687  10.879 -0.2091 -0.1945 -0.4002
  109OSM    C1S11181   2.188   4.709  10.589 -0.2301 -0.6551 -0.5649
  109OSM    H1S11182   2.188   4.817  10.561 -1.5304 -0.0315  1.5658
  109OSM    H1T11183   2.115   4.687  10.670  1.8067 -0.1657  1.4969
  109OSM     NF11184   2.024   4.678  10.395  0.0350  0.2645  0.4166
  109OSM    HNF11185   1.944   4.619  10.392  2.2555 -2.9605 -0.6029
  109OSM    C2S11186   2.145   4.632  10.461  0.0180  0.0192  0.2178
  109OSM    H2S11187   2.225   4.622  10.385  0.1242 -1.0372  0.4565
  109OSM    C3S11188   2.128   4.476  10.497  0.2593 -0.4938  0.1913
  109OSM    H3S11189   2.027   4.457  10.541 -1.3203  1.9083 -2.1116
  109OSM     O311190   2.235   4.416  10.578 -0.2073 -0.3477  1.2259
  109OSM    HO311191   2.304   4.478  10.605  1.1241 -1.7075  1.0771
  109OSM    C4S11192   2.110   4.404  10.366 -0.4111  0.0588 -0.3607
  109OSM    H4S11193   2.006   4.397  10.330 -1.4917  2.2440  2.0477
  109OSM    C5S11194   2.214   4.359  10.288  0.0093  0.4044 -0.2964
  109OSM    H5S11195   2.318   4.376  10.319  0.3705  0.0366 -1.2367
  109OSM    C6S11196   2.206   4.296  10.152  0.7761 -0.1191 -0.1091
  109OSM    H6S11197   2.194   4.187  10.166 -1.7995  0.1254  0.1806
  109OSM    H6T11198   2.291   4.323  10.085  0.6758  0.8081  0.1118
  109OSM    C7S11199   2.084   4.337  10.062  0.7428  0.3410 -0.3588
  109OSM    H7S11200   2.075   4.447  10.057 -0.3166  0.2622 -0.4596
  109OSM    H7T11201   1.997   4.313  10.127 -0.0759 -1.5207 -2.0165
  109OSM    C8S11202   2.086   4.275   9.923  0.5724 -0.4439  0.3768
  109OSM    H8S11203   2.093   4.164   9.929  0.5900 -0.4008  1.3029
  109OSM    H8T11204   2.185   4.304   9.881  0.9870  0.5287  1.9690
  109OSM    C9S11205   1.976   4.335   9.839  0.4541 -0.2288  0.3616
  109OSM    H9S11206   1.988   4.443   9.817 -0.8491 -0.2746 -0.6757
  109OSM    H9T11207   1.883   4.316   9.896 -1.3087 -1.2913 -2.6490
  109OSM   C10S11208   1.969   4.250   9.708  0.3609  0.2995 -0.3036
  109OSM   H10S11209   1.921   4.153   9.735  1.5545 -0.6400 -1.4084
  109OSM   H10T11210   2.073   4.230   9.673  0.6278 -1.1695  1.2133
  109OSM   C11S11211   1.883   4.302   9.594  0.2888 -0.1336 -0.1224
  109OSM   H11S11212   1.911   4.409   9.583 -0.8068  0.0376 -1.6160
  109OSM   H11T11213   1.776   4.284   9.619 -0.3928  2.3359 -1.0208
  109OSM   C12S11214   1.920   4.246   9.456  0.3225  0.4726 -0.0301
  109OSM   H12S11215   1.933   4.136   9.461  2.7260  0.5841 -1.9225
  109OSM   H12T11216   2.017   4.297   9.438  0.7773  0.6952  2.6621
  109OSM   C13S11217   1.820   4.286   9.345 -0.2629  0.0930 -0.1400
  109OSM   H13S11218   1.863   4.269   9.244  2.0774 -1.3991  1.0390
  109OSM   H13T11219   1.807   4.396   9.357  4.1798  0.8413 -0.5796
  109OSM   C14S11220   1.682   4.216   9.347  0.4566  0.0280  0.1369
  109OSM   H14S11221   1.638   4.258   9.440 -0.4565  1.6286 -0.9607
  109OSM   H14T11222   1.702   4.107   9.348  1.1150  0.0901 -1.7749
  109OSM   C15S11223   1.589   4.258   9.226  0.3043 -0.1042  0.3698
  109OSM   H15S11224   1.612   4.365   9.208 -2.8827  0.4806 -0.9301
  109OSM   H15T11225   1.484   4.252   9.260  0.0308  2.9103  0.2789
  109OSM   C16S11226   1.615   4.176   9.100  0.1369 -0.3623  0.0896
  109OSM   H16S11227   1.603   4.069   9.128 -0.2907 -0.8232 -1.7489
  109OSM   H16T11228   1.725   4.178   9.084  0.3687  0.7080  1.6214
  109OSM   C17S11229   1.548   4.215   8.968 -0.2660 -0.0483 -0.2113
  109OSM   H17S11230   1.579   4.316   8.934 -1.2236  0.2712 -0.1694
  109OSM   H17T11231   1.440   4.227   8.993  0.0469 -0.0077  1.2105
  109OSM   C18S11232   1.578   4.115   8.855  0.2885 -0.4776  0.0560
  109OSM   H18S11233   1.548   4.014   8.892 -0.8020  0.2977  1.3842
  109OSM   H18T11234   1.687   4.121   8.836 -0.1925  2.6438 -2.5480
  109OSM   H18U11235   1.530   4.146   8.760 -2.1067 -1.9610  0.7013
  109OSM    C1F11236   2.007   4.802  10.340 -0.4454  0.4577 -0.0152
  109OSM     OF11237   2.104   4.880  10.332  0.3936  0.0695 -0.0832
  109OSM    C2F11238   1.868   4.839  10.293  0.1322  0.2231 -0.1493
  109OSM    H2F11239   1.796   4.850  10.376 -0.2536 -1.0947 -0.2927
  109OSM    H2G11240   1.829   4.765  10.220 -2.5318  2.0136 -0.7047
  109OSM    C3F11241   1.870   4.981  10.224  0.5459  0.2450  0.0313
  109OSM    H3F11242   1.936   4.980  10.135  0.6481  2.3315  0.0338
  109OSM    H3G11243   1.909   5.056  10.296 -2.2126  2.1332 -0.3195
  109OSM    C4F11244   1.732   5.024  10.181  0.1814  0.3179 -0.4204
  109OSM    H4F11245   1.680   5.076  10.265  0.3854 -1.8222  1.1216
  109OSM    H4G11246   1.663   4.938  10.164 -0.0278 -0.4453  3.2563
  109OSM    C5F11247   1.738   5.121  10.068  0.2566  0.0976  0.0352
  109OSM    H5F11248   1.775   5.059   9.983 -0.4240 -0.7053  0.3146
  109OSM    H5G11249   1.808   5.206  10.084 -1.5831  1.4568  1.1830
  109OSM    C6F11250   1.604   5.198  10.045 -0.0979  0.0984  0.8140
  109OSM    H6F11251   1.613   5.267   9.958  1.2139  0.7393  1.4302
  109OSM    H6G11252   1.584   5.262  10.134  1.2946  0.7851  0.6642
  109OSM    C7F11253   1.476   5.116  10.017  0.8478 -0.0884  0.2052
  109OSM    H7F11254   1.398   5.196  10.012  0.1195 -0.8113 -0.4474
  109OSM    H7G11255   1.450   5.038  10.091  3.1046 -2.2380 -1.1214
  109OSM    C8F11256   1.481   5.039   9.885 -0.1996 -0.0931 -0.0950
  109OSM    H8F11257   1.533   4.942   9.897  0.5846  0.4055  0.6760
  109OSM    H8G11258   1.548   5.088   9.812 -0.8626  2.0395  0.6342
  109OSM    C9F11259   1.341   5.014   9.824  0.3586  0.7121  0.0821
  109OSM    H9F11260   1.273   4.955   9.887  0.4839  0.1648 -0.2863
  109OSM   C10F11261   1.296   5.046   9.703  0.4119 -0.1587 -0.1304
  109OSM   H10F11262   1.196   5.016   9.668  0.5318 -1.5538  0.6941
  109OSM   C11F11263   1.376   5.119   9.598 -0.7106  0.3616 -0.1582
  109OSM   H11F11264   1.484   5.110   9.621 -1.2038 -0.5877  2.0669
  109OSM   H11G11265   1.349   5.227   9.602 -0.1049  0.5022  0.3271
  109OSM   C12F11266   1.349   5.066   9.460  0.0765  0.6529 -0.1751
  109OSM   H12F11267   1.242   5.090   9.443 -0.0628  1.0416  1.1379
  109OSM   H12G11268   1.353   4.955   9.464  1.0585  0.6915  0.1841
  109OSM   C13F11269   1.431   5.123   9.347 -0.1485  0.1062 -0.7106
  109OSM   H13F11270   1.539   5.109   9.366 -0.3730  1.1167  1.6235
  109OSM   H13G11271   1.424   5.234   9.343  2.4115  0.3611 -0.0440
  109OSM   C14F11272   1.402   5.064   9.211  0.6324  0.4839 -0.1942
  109OSM   H14F11273   1.292   5.061   9.202  0.5685  3.2260 -1.3072
  109OSM   H14G11274   1.425   4.956   9.217 -0.4151  0.2728  0.1610
  109OSM   C15F11275   1.472   5.138   9.095  0.1171 -0.2933 -0.7993
  109OSM   H15F11276   1.582   5.132   9.100  0.1657  0.5593 -0.7188
  109OSM   H15G11277   1.443   5.245   9.093  2.4188  0.3657 -0.8687
  109OSM   C16F11278   1.439   5.080   8.957 -0.1428 -0.3702  0.0337
  109OSM   H16F11279   1.491   4.982   8.957 -1.9444 -1.4449 -2.6935
  109OSM   H16G11280   1.488   5.147   8.883 -1.3493 -0.6836 -1.0897
  109OSM   C17F11281   1.288   5.067   8.927  0.2187 -0.9409 -0.6870
  109OSM   H17F11282   1.229   5.132   8.995 -0.0061  1.6580 -3.1707
  109OSM   H17G11283   1.256   4.962   8.948 -1.1742 -0.3531  0.3259
  109OSM   C18F11284   1.246   5.089   8.783  0.5804 -0.2002  0.5168
  109OSM   H18F11285   1.141   5.055   8.766  1.4490 -3.2187  0.6894
  109OSM   H18G11286   1.314   5.040   8.711 -0.8239  0.7856 -1.5859
  109OSM   H18H11287   1.268   5.193   8.751  0.1826 -0.1776  0.3065
  110OSM      N11288   5.229   3.628  10.942  0.6819  0.3487 -1.1251
  110OSM    C1511289   5.098   3.668  10.993 -0.0538  1.1069  0.4783
  110OSM   H15A11290   5.028   3.589  11.015  0.7332  0.3655  0.3731
  110OSM   H15B11291   5.058   3.747  10.931 -1.0963 -1.5531 -2.5280
  110OSM   H15C11292   5.112   3.709  11.092 -0.3968  0.3811  0.8358
  110OSM    C1411293   5.280   3.518  11.025  0.6582 -0.2486  0.7312
  110OSM   H14A11294   5.274   3.544  11.130 -1.3041 -1.3682  0.9545
  110OSM   H14B11295   5.387   3.503  11.020  0.6943 -0.0651  0.9266
  110OSM   H14C11296   5.216   3.431  11.028 -0.0280  0.2620  2.1251
  110OSM    C1311297   5.210   3.567  10.814  0.3782 -0.4627 -0.1694
  110OSM   H13A11298   5.140   3.622  10.752  0.2191 -1.1403 -0.6019
  110OSM   H13B11299   5.157   3.473  10.822 -0.9022  0.3369  1.2812
  110OSM   H13C11300   5.307   3.554  10.769 -0.3795  0.8868 -2.3694
  110OSM    C1211301   5.339   3.737  10.935 -0.1104  0.2707  0.6587
  110OSM   H12A11302   5.310   3.807  10.859 -3.3270 -1.2190  0.3144
  110OSM   H12B11303   5.430   3.689  10.900  0.9737  2.4621  0.3244
  110OSM    C1111304   5.370   3.821  11.061  0.1458  0.1089  0.0819
  110OSM   H11A11305   5.476   3.852  11.045 -0.1701  0.7772 -0.7764
  110OSM   H11B11306   5.365   3.749  11.146  1.3442  1.3626  1.2751
  110OSM      P11307   5.275   4.052  10.981 -0.3390 -0.2073 -0.1640
  110OSM    O1311308   5.151   4.126  11.003  0.2752 -0.1699  0.1325
  110OSM    O1411309   5.401   4.124  11.005 -0.3754 -0.2543 -0.2153
  110OSM    O1111310   5.292   3.997  10.837  0.3451 -0.3357  0.0398
  110OSM    O1211311   5.277   3.926  11.068 -0.0632 -0.2692 -0.3026
  110OSM    C1S11312   5.173   3.980  10.751 -0.3813  0.2064  0.4016
  110OSM    H1S11313   5.094   4.056  10.771 -1.9829 -1.1475 -0.4604
  110OSM    H1T11314   5.126   3.883  10.776  2.7383 -1.1586  1.4183
  110OSM     NF11315   5.091   3.953  10.518 -0.0633  0.4754  0.0573
  110OSM    HNF11316   5.078   3.869  10.466 -3.4532  1.0035 -0.1780
  110OSM    C2S11317   5.210   3.969  10.599  0.2033  0.0807 -0.3637
  110OSM    H2S11318   5.239   4.073  10.574 -0.0090 -0.0730 -1.2661
  110OSM    C3S11319   5.321   3.859  10.573 -0.0103  0.6260 -0.3719
  110OSM    H3S11320   5.270   3.768  10.611  0.5255 -0.1122 -1.3724
  110OSM     O311321   5.435   3.863  10.661 -0.7231 -0.0379 -0.4712
  110OSM    HO311322   5.407   3.916  10.735 -2.9572  1.4264 -2.2274
  110OSM    C4S11323   5.364   3.846  10.426  0.3039 -0.5325 -0.0765
  110OSM    H4S11324   5.304   3.772  10.371 -2.6990  1.5140  0.2185
  110OSM    C5S11325   5.461   3.910  10.364 -0.1603  0.0555 -0.6276
  110OSM    H5S11326   5.526   3.975  10.424 -0.2939  0.1069 -0.5371
  110OSM    C6S11327   5.500   3.886  10.221 -0.4153  0.0432  0.0810
  110OSM    H6S11328   5.610   3.875  10.207 -0.4178 -0.9328  0.7379
  110OSM    H6T11329   5.480   3.975  10.158  0.0273  0.3451  0.3603
  110OSM    C7S11330   5.435   3.760  10.150  0.6838 -0.2252  0.2920
  110OSM    H7S11331   5.325   3.775  10.143  0.6505  0.5411  1.9552
  110OSM    H7T11332   5.446   3.670  10.213 -2.2936  0.0286  1.3312
  110OSM    C8S11333   5.488   3.730  10.003  0.0959 -0.6852  0.1552
  110OSM    H8S11334   5.597   3.731  10.022  0.3295  0.5617 -1.0924
  110OSM    H8T11335   5.468   3.813   9.931  0.8195  0.4368  1.2201
  110OSM    C9S11336   5.438   3.597   9.939 -0.0065 -0.5644 -0.5444
  110OSM    H9S11337   5.328   3.602   9.922 -0.1724  1.9152  0.8409
  110OSM    H9T11338   5.460   3.524  10.020 -1.5496 -0.3624  0.0915
  110OSM   C10S11339   5.499   3.557   9.809  0.0847 -0.0281 -0.0781
  110OSM   H10S11340   5.456   3.460   9.775  0.0439 -0.2919  0.6912
  110OSM   H10T11341   5.610   3.548   9.815  0.2259  1.8374  0.7695
  110OSM   C11S11342   5.479   3.666   9.709 -0.0647  0.5537  0.0028
  110OSM   H11S11343   5.554   3.744   9.733 -1.5050  1.6333  1.1515
  110OSM   H11T11344   5.374   3.700   9.723 -0.4382 -0.0564 -1.1625
  110OSM   C12S11345   5.506   3.620   9.565 -0.4060  0.2768 -0.4767
  110OSM   H12S11346   5.446   3.536   9.523 -0.0030 -0.4757  0.4214
  110OSM   H12T11347   5.610   3.590   9.543 -0.8915 -0.0736 -2.5343
  110OSM   C13S11348   5.469   3.730   9.457  0.1681  0.5498  0.6813
  110OSM   H13S11349   5.519   3.694   9.364 -1.7740  0.6880 -0.4919
  110OSM   H13T11350   5.530   3.822   9.467  1.0119 -0.0828  1.5146
  110OSM   C14S11351   5.324   3.756   9.416  0.3469  0.1565 -0.5861
  110OSM   H14S11352   5.266   3.803   9.498  2.0756  3.2503 -0.9882
  110OSM   H14T11353   5.275   3.662   9.383  0.2252 -0.2240  0.6300
  110OSM   C15S11354   5.314   3.859   9.306 -0.5812 -0.1415  0.1366
  110OSM   H15S11355   5.406   3.851   9.246  0.1848  1.6760  0.9964
  110OSM   H15T11356   5.317   3.958   9.356 -1.4397  0.2899 -0.6326
  110OSM   C16S11357   5.191   3.853   9.208  0.1029  0.7416  0.6382
  110OSM   H16S11358   5.161   3.747   9.188  1.5306  0.3068  0.7162
  110OSM   H16T11359   5.222   3.904   9.115  0.5137  0.7400  0.7750
  110OSM   C17S11360   5.064   3.942   9.243 -0.7265  0.8125 -0.0228
  110OSM   H17S11361   5.104   4.046   9.244  0.5020  0.3580  0.2318
  110OSM   H17T11362   5.031   3.916   9.346 -0.7135 -2.7675 -0.7860
  110OSM   C18S11363   4.948   3.952   9.148  0.1263 -0.5301 -0.4169
  110OSM   H18S11364   4.867   4.017   9.188 -1.2218 -2.4576  0.1050
  110OSM   H18T11365   4.897   3.853   9.140 -0.5709 -0.0697 -2.2412
  110OSM   H18U11366   4.970   3.987   9.045 -0.4519 -0.0881 -0.3916
  110OSM    C1F11367   4.984   4.033  10.509 -0.6709  0.2978 -0.3375
  110OSM     OF11368   4.980   4.139  10.568 -0.2076  0.0691 -0.3743
  110OSM    C2F11369   4.869   3.978  10.436 -0.4434  0.6634  0.2130
  110OSM    H2F11370   4.799   3.919  10.500  1.5269  0.5426  2.3932
  110OSM    H2G11371   4.900   3.897  10.367  1.0682 -0.9845  2.6599
  110OSM    C3F11372   4.788   4.088  10.369 -0.4686 -0.8141  0.3083
  110OSM    H3F11373   4.844   4.134  10.285 -1.0578 -0.6621 -0.0054
  110OSM    H3G11374   4.764   4.176  10.431  0.4689  1.1902 -2.0140
  110OSM    C4F11375   4.658   4.046  10.305 -0.2402  0.4580  0.0935
  110OSM    H4F11376   4.591   4.004  10.383  0.7557 -0.6301  0.3923
  110OSM    H4G11377   4.677   3.973  10.223 -1.2530  0.7110 -0.3860
  110OSM    C5F11378   4.581   4.159  10.232 -0.3665  0.4977 -0.0949
  110OSM    H5F11379   4.580   4.246  10.301  0.1051  0.5515 -0.1536
  110OSM    H5G11380   4.478   4.118  10.218 -0.5530  0.9230  0.0422
  110OSM    C6F11381   4.632   4.194  10.096 -0.2450  0.4194  0.2576
  110OSM    H6F11382   4.618   4.101  10.036  0.5403  0.5348 -0.1154
  110OSM    H6G11383   4.739   4.223  10.097 -0.2513  0.4483  1.6049
  110OSM    C7F11384   4.543   4.309  10.046  0.4882 -0.1928 -0.0106
  110OSM    H7F11385   4.572   4.398  10.106 -0.9270 -1.0232  2.0077
  110OSM    H7G11386   4.437   4.283  10.069 -0.0163 -1.3636 -3.1040
  110OSM    C8F11387   4.553   4.337   9.893 -0.1593  0.8785  0.0618
  110OSM    H8F11388   4.491   4.428   9.879 -1.9078  0.0634  1.9459
  110OSM    H8G11389   4.503   4.250   9.844  0.9267  0.5216 -0.4410
  110OSM    C9F11390   4.690   4.361   9.853  0.0607  0.0013 -0.0187
  110OSM    H9F11391   4.768   4.392   9.924  0.4221  2.3809 -1.3557
  110OSM   C10F11392   4.728   4.354   9.720 -0.0092 -0.5196  0.8126
  110OSM   H10F11393   4.825   4.391   9.685 -0.4184  1.2947  1.4651
  110OSM   C11F11394   4.649   4.330   9.597 -0.3652 -0.4644  0.5145
  110OSM   H11F11395   4.671   4.404   9.518  0.4659 -1.2888 -0.0370
  110OSM   H11G11396   4.541   4.340   9.620 -0.1245 -0.1132  1.5536
  110OSM   C12F11397   4.669   4.195   9.529 -0.2922 -0.4322  0.1935
  110OSM   H12F11398   4.777   4.170   9.521 -0.1955 -0.1744  0.6661
  110OSM   H12G11399   4.619   4.193   9.430 -1.3032 -0.9420  0.7035
  110OSM   C13F11400   4.612   4.091   9.622  0.4285 -0.2368 -0.3758
  110OSM   H13F11401   4.510   4.127   9.648  1.3719  1.9484  0.5457
  110OSM   H13G11402   4.682   4.081   9.708  0.7552 -0.4145 -0.6604
  110OSM   C14F11403   4.601   3.953   9.560 -0.1852  1.0926 -0.3975
  110OSM   H14F11404   4.703   3.908   9.565 -0.3944  0.5829 -0.6061
  110OSM   H14G11405   4.582   3.964   9.451 -0.8756  0.2147 -0.3732
  110OSM   C15F11406   4.492   3.859   9.632 -0.6300 -0.0812  0.4987
  110OSM   H15F11407   4.479   3.767   9.572 -0.2186 -1.5078  2.5251
  110OSM   H15G11408   4.400   3.922   9.633  0.0215  0.9682 -0.9606
  110OSM   C16F11409   4.542   3.828   9.783  0.6613  0.1250  0.7257
  110OSM   H16F11410   4.591   3.922   9.817 -0.4955  2.1185 -2.5734
  110OSM   H16G11411   4.615   3.745   9.780 -1.8560 -2.2020  0.3494
  110OSM   C17F11412   4.430   3.800   9.885  0.0292 -0.0091  0.0576
  110OSM   H17F11413   4.374   3.706   9.864  1.0020 -0.8442  1.0838
  110OSM   H17G11414   4.369   3.892   9.886  1.4146  0.9413 -0.3230
  110OSM   C18F11415   4.487   3.800  10.029  0.7808  0.7100  0.1252
  110OSM   H18F11416   4.416   3.736  10.085  1.3772 -0.4863 -0.4330
  110OSM   H18G11417   4.482   3.900  10.076 -1.2408 -0.1224  1.8211
  110OSM   H18H11418   4.593   3.772  10.045 -0.0780 -3.6338 -0.5276
  111OSM      N11419   5.336   2.927  10.904 -0.0394  0.0139 -0.5726
  111OSM    C1511420   5.442   3.009  10.976  0.1734 -0.1271  0.0771
  111OSM   H15A11421   5.451   3.110  10.937  1.2726 -0.7400 -1.3940
  111OSM   H15B11422   5.542   2.970  10.965 -0.1185 -0.5143 -1.4693
  111OSM   H15C11423   5.436   3.013  11.084  2.6561  0.3453  0.2581
  111OSM    C1411424   5.325   2.807  10.997  0.4208 -0.3934  0.4452
  111OSM   H14A11425   5.426   2.769  11.009  0.1925 -1.1453 -0.0326
  111OSM   H14B11426   5.273   2.729  10.945 -0.5665  0.1899  0.5318
  111OSM   H14C11427   5.275   2.834  11.089 -1.4457 -0.3908 -0.5269
  111OSM    C1311428   5.206   3.001  10.900  0.2174  0.1967 -0.8643
  111OSM   H13A11429   5.204   3.062  10.811 -0.2860  1.6839  0.1242
  111OSM   H13B11430   5.187   3.051  10.994  0.5849  0.4500 -0.9236
  111OSM   H13C11431   5.131   2.923  10.898  1.7091 -1.4474  1.6746
  111OSM    C1211432   5.384   2.901  10.761 -0.7447  0.5060  0.5503
  111OSM   H12A11433   5.490   2.878  10.770 -0.9281 -0.5823  0.1664
  111OSM   H12B11434   5.373   2.989  10.701 -0.3034  0.9819  1.1525
  111OSM    C1111435   5.323   2.785  10.676  0.4644 -0.4990  0.6725
  111OSM   H11A11436   5.366   2.798  10.574 -2.8863 -0.6432 -0.9000
  111OSM   H11B11437   5.217   2.812  10.657  1.2538  2.2774 -0.3202
  111OSM      P11438   5.471   2.577  10.732  0.3427 -0.4307  0.1503
  111OSM    O1311439   5.577   2.678  10.753 -0.1531 -0.0938  0.2340
  111OSM    O1411440   5.456   2.481  10.842  0.0581  0.1819 -0.5187
  111OSM    O1111441   5.469   2.512  10.581  0.5568 -0.5743 -0.3928
  111OSM    O1211442   5.335   2.659  10.730 -0.0621 -0.4691 -0.1863
  111OSM    C1S11443   5.346   2.499  10.508  0.6988  0.3095  0.2890
  111OSM    H1S11444   5.287   2.591  10.491  0.4204  0.0115 -0.4087
  111OSM    H1T11445   5.281   2.422  10.555  1.9058 -0.4677  0.7480
  111OSM     NF11446   5.275   2.434  10.282  0.2448 -0.4984 -0.4410
  111OSM    HNF11447   5.224   2.349  10.293 -0.6883  0.2163  1.2590
  111OSM    C2S11448   5.389   2.443  10.369  0.1811  0.1206  0.1287
  111OSM    H2S11449   5.462   2.511  10.321 -1.7496  1.0088 -1.7255
  111OSM    C3S11450   5.467   2.306  10.380 -0.2014 -0.1375 -0.5178
  111OSM    H3S11451   5.414   2.219  10.423  4.3903 -3.1100 -0.2274
  111OSM     O311452   5.580   2.311  10.472  0.6037 -0.3805 -0.1122
  111OSM    HO311453   5.563   2.387  10.528  1.4954 -2.2000  2.8451
  111OSM    C4S11454   5.518   2.271  10.245 -0.2899 -0.1343 -0.5265
  111OSM    H4S11455   5.613   2.314  10.209 -0.0916 -1.1621 -1.2717
  111OSM    C5S11456   5.476   2.175  10.158 -0.0607 -0.3689  0.5389
  111OSM    H5S11457   5.394   2.106  10.180  0.9342 -1.5867  0.5578
  111OSM    C6S11458   5.533   2.151  10.021 -0.7811 -0.1287  1.0802
  111OSM    H6S11459   5.531   2.041  10.005 -0.7391 -0.0881  0.7800
  111OSM    H6T11460   5.642   2.171  10.012 -0.9613  0.0494 -2.0638
  111OSM    C7S11461   5.466   2.226   9.908  0.0757 -0.5884  0.0190
  111OSM    H7S11462   5.459   2.335   9.929 -0.1586 -0.8026  1.1030
  111OSM    H7T11463   5.365   2.183   9.924 -1.0502  2.4241  1.9060
  111OSM    C8S11464   5.531   2.194   9.771 -0.2566  0.0958  0.2133
  111OSM    H8S11465   5.503   2.087   9.759 -2.3190  0.1953  3.2503
  111OSM    H8T11466   5.639   2.219   9.777 -0.3044  0.0711  1.2716
  111OSM    C9S11467   5.459   2.274   9.664 -0.1170  1.0512  0.5350
  111OSM    H9S11468   5.492   2.380   9.665  0.9600  0.8456 -2.5452
  111OSM    H9T11469   5.352   2.284   9.694 -0.2434 -0.2864  0.5940
  111OSM   C10S11470   5.469   2.231   9.513 -0.4153 -0.0538  0.8201
  111OSM   H10S11471   5.420   2.307   9.448 -0.1101 -0.2524  0.3521
  111OSM   H10T11472   5.409   2.139   9.496  1.5069 -1.0457 -0.9501
  111OSM   C11S11473   5.613   2.203   9.458  0.5961  0.3290  0.4395
  111OSM   H11S11474   5.665   2.120   9.511  2.7540  2.1947  1.4038
  111OSM   H11T11475   5.668   2.294   9.488 -0.0085  1.2772 -1.1901
  111OSM   C12S11476   5.612   2.163   9.311  0.7549  0.2999  0.7397
  111OSM   H12S11477   5.575   2.058   9.312  0.0345  0.2910 -4.1119
  111OSM   H12T11478   5.714   2.155   9.270  0.6956  1.0753  0.4287
  111OSM   C13S11479   5.523   2.239   9.214 -0.4030 -0.2138  0.3346
  111OSM   H13S11480   5.553   2.346   9.209  1.5809 -0.6708  1.3985
  111OSM   H13T11481   5.413   2.233   9.231 -0.6422 -1.1575 -1.2823
  111OSM   C14S11482   5.545   2.173   9.074  0.2564 -0.2949 -0.0553
  111OSM   H14S11483   5.507   2.069   9.079 -1.2344  0.2529  0.6023
  111OSM   H14T11484   5.656   2.176   9.066  0.2136 -1.3977 -1.5873
  111OSM   C15S11485   5.481   2.257   8.960  0.5728  0.1022  0.3113
  111OSM   H15S11486   5.504   2.366   8.969 -0.4408  0.5344 -1.6681
  111OSM   H15T11487   5.370   2.249   8.968  0.4027 -0.7793 -2.0727
  111OSM   C16S11488   5.527   2.205   8.822  0.1619 -0.0826 -0.2660
  111OSM   H16S11489   5.463   2.119   8.795  0.4432 -0.6943  0.9555
  111OSM   H16T11490   5.632   2.168   8.822  0.4783  0.6301 -2.5022
  111OSM   C17S11491   5.500   2.296   8.702  0.0371  0.0339  0.6919
  111OSM   H17S11492   5.572   2.381   8.705  0.4227 -0.3067  1.7123
  111OSM   H17T11493   5.397   2.337   8.704  0.0638  0.2453 -0.9081
  111OSM   C18S11494   5.516   2.225   8.564 -0.8356 -0.1174 -0.4652
  111OSM   H18S11495   5.586   2.141   8.585 -0.7085 -0.3103 -1.5998
  111OSM   H18T11496   5.535   2.293   8.478 -1.8582  0.5551 -0.1621
  111OSM   H18U11497   5.417   2.184   8.535 -1.2428 -0.3310  1.1731
  111OSM    C1F11498   5.225   2.544  10.229 -0.5854 -0.2913  0.9471
  111OSM     OF11499   5.285   2.651  10.250  0.4568  0.0110  0.1981
  111OSM    C2F11500   5.101   2.545  10.133 -0.6363 -0.1475 -0.3885
  111OSM    H2F11501   5.076   2.647  10.099 -1.0752 -0.2602 -0.4189
  111OSM    H2G11502   5.010   2.514  10.189 -1.3747 -0.7917 -1.8824
  111OSM    C3F11503   5.137   2.474  10.005  0.5530  0.2622  0.3303
  111OSM    H3F11504   5.152   2.364  10.018 -0.3012 -0.2523 -2.5139
  111OSM    H3G11505   5.238   2.511   9.976 -0.1423  1.4297 -0.7017
  111OSM    C4F11506   5.046   2.485   9.883 -0.0181  0.6677  0.5631
  111OSM    H4F11507   4.939   2.483   9.911  0.2925  1.1069  1.8941
  111OSM    H4G11508   5.048   2.392   9.823 -1.9357  1.6262 -1.1068
  111OSM    C5F11509   5.078   2.600   9.791  0.2415 -0.3427 -0.4319
  111OSM    H5F11510   5.121   2.681   9.854 -2.7542 -1.1332  2.9539
  111OSM    H5G11511   4.982   2.622   9.740 -0.4156 -3.1892 -0.5779
  111OSM    C6F11512   5.179   2.575   9.682 -0.2040  0.4909 -0.3209
  111OSM    H6F11513   5.141   2.507   9.602  1.4854 -2.0412  0.8921
  111OSM    H6G11514   5.275   2.546   9.729 -1.5167  1.6212  3.4272
  111OSM    C7F11515   5.200   2.705   9.605 -0.2462 -0.3390  0.3412
  111OSM    H7F11516   5.278   2.763   9.658  0.5871 -1.7986  0.7647
  111OSM    H7G11517   5.106   2.763   9.614 -0.2201 -0.5134  1.9231
  111OSM    C8F11518   5.234   2.681   9.458  0.2520  0.3037  0.9894
  111OSM    H8F11519   5.195   2.771   9.406  0.1318 -0.9654 -1.2552
  111OSM    H8G11520   5.187   2.598   9.401 -0.1595  2.3764 -1.9308
  111OSM    C9F11521   5.383   2.677   9.430  0.3511 -0.3062  0.0343
  111OSM    H9F11522   5.441   2.620   9.504  3.1136  1.0420 -0.9519
  111OSM   C10F11523   5.443   2.733   9.315 -0.2486 -0.5377 -0.1602
  111OSM   H10F11524   5.551   2.721   9.298 -0.4477 -0.7058 -1.4054
  111OSM   C11F11525   5.372   2.800   9.199 -0.0562  0.6342 -0.1157
  111OSM   H11F11526   5.392   2.908   9.181  1.6337  0.1956 -1.0900
  111OSM   H11G11527   5.262   2.785   9.208 -0.5500  3.9551  0.9296
  111OSM   C12F11528   5.399   2.728   9.066  0.0631  0.2959 -0.4856
  111OSM   H12F11529   5.324   2.770   8.995  0.1963  3.4826  1.0810
  111OSM   H12G11530   5.403   2.618   9.081  1.5019  0.3463 -0.4009
  111OSM   C13F11531   5.535   2.762   9.004  0.4974  0.6353 -0.4074
  111OSM   H13F11532   5.611   2.767   9.085 -0.8409  0.8462  0.8711
  111OSM   H13G11533   5.513   2.865   8.968 -0.8261  0.1985 -0.8949
  111OSM   C14F11534   5.583   2.677   8.893 -0.1824  0.0743 -0.1554
  111OSM   H14F11535   5.503   2.680   8.815 -0.6467  0.3933  0.3293
  111OSM   H14G11536   5.617   2.577   8.927  0.8601  0.9319  1.4373
  111OSM   C15F11537   5.700   2.738   8.812 -0.4403 -0.0164  0.5820
  111OSM   H15F11538   5.788   2.755   8.878  0.1784  0.9373 -0.4402
  111OSM   H15G11539   5.681   2.841   8.775  1.2672  0.2912  0.4487
  111OSM   C16F11540   5.735   2.658   8.687 -0.2756  0.2444 -0.5991
  111OSM   H16F11541   5.639   2.630   8.639 -0.1273 -1.1735 -0.1287
  111OSM   H16G11542   5.776   2.562   8.727 -0.6955 -0.8877 -2.7696
  111OSM   C17F11543   5.835   2.729   8.595  1.0776 -0.0530 -0.3559
  111OSM   H17F11544   5.925   2.753   8.655  0.7995 -0.2499  0.1457
  111OSM   H17G11545   5.777   2.817   8.558  0.4406 -0.5530 -0.5670
  111OSM   C18F11546   5.882   2.640   8.475  0.0868 -0.8202  0.0553
  111OSM   H18F11547   5.849   2.534   8.483  1.5299 -1.3014 -0.0536
  111OSM   H18G11548   5.992   2.652   8.461  1.0558 -2.0875  4.8859
  111OSM   H18H11549   5.832   2.683   8.386  1.1857 -1.1412 -0.7450
  112OSM      N11550   0.232   5.894  10.879 -0.4753  0.1394 -0.5726
  112OSM    C1511551   0.268   5.814  10.764 -0.8503  0.8721 -0.3301
  112OSM   H15A11552   0.364   5.834  10.719 -0.9446  0.9232 -0.5082
  112OSM   H15B11553   0.206   5.831  10.677 -1.0819  0.6190 -0.2180
  112OSM   H15C11554   0.260   5.707  10.778 -0.5146  0.5578 -2.2566
  112OSM    C1411555   0.108   5.836  10.922  0.3474  0.7989 -0.3744
  112OSM   H14A11556   0.051   5.879  11.003 -0.4380 -0.7392 -0.0753
  112OSM   H14B11557   0.114   5.731  10.947 -0.2094  0.7313 -0.5150
  112OSM   H14C11558   0.030   5.840  10.847 -1.6933 -0.3522  1.5706
  112OSM    C1311559   0.343   5.889  10.979 -0.1638 -0.0973  0.0022
  112OSM   H13A11560   0.374   5.789  11.003 -0.4585 -0.5251 -1.3596
  112OSM   H13B11561   0.311   5.933  11.072  0.9169  1.7978 -0.4661
  112OSM   H13C11562   0.431   5.937  10.936 -2.3309  3.7189 -0.6753
  112OSM    C1211563   0.212   6.037  10.830 -0.2969 -0.9650 -0.2806
  112OSM   H12A11564   0.307   6.086  10.843 -0.9659  0.9767 -2.2195
  112OSM   H12B11565   0.140   6.086  10.894  0.1737  1.1180 -1.2646
  112OSM    C1111566   0.177   6.057  10.683  0.5124 -0.4931  0.3201
  112OSM   H11A11567   0.251   6.020  10.609  0.2062 -1.3766  0.4392
  112OSM   H11B11568   0.175   6.166  10.663 -0.0900 -0.8876 -2.0430
  112OSM      P11569  -0.087   6.037  10.685 -0.2944  0.2650 -0.5753
  112OSM    O1311570  -0.118   5.985  10.824 -0.6554 -0.6312  0.3417
  112OSM    O1411571  -0.101   6.182  10.672 -0.0802 -0.1270 -0.4535
  112OSM    O1111572  -0.177   5.961  10.580  0.3793 -0.4824 -0.3470
  112OSM    O1211573   0.053   5.995  10.641  0.4968  0.2689 -0.0650
  112OSM    C1S11574  -0.165   5.981  10.438 -0.6311  0.1225 -0.0145
  112OSM    H1S11575  -0.064   5.954  10.399 -1.2557  0.1174 -1.6913
  112OSM    H1T11576  -0.200   6.083  10.411 -0.6550  0.1373  0.0722
  112OSM     NF11577  -0.275   5.924  10.220  0.0443 -0.6079  0.4828
  112OSM    HNF11578  -0.349   5.979  10.181  1.2244 -0.6458 -2.0343
  112OSM    C2S11579  -0.275   5.896  10.361  0.5113 -0.0160  0.3145
  112OSM    H2S11580  -0.249   5.788  10.361 -0.2522 -0.2444 -1.7276
  112OSM    C3S11581  -0.417   5.912  10.431  0.0316 -0.2561 -0.3490
  112OSM    H3S11582  -0.441   6.020  10.427 -2.2679 -0.7180 -0.1428
  112OSM     O311583  -0.431   5.879  10.572  0.1005 -0.2940  0.5873
  112OSM    HO311584  -0.340   5.877  10.601  0.0414 -0.7658  0.7482
  112OSM    C4S11585  -0.518   5.836  10.357 -0.5986 -0.3139  0.0629
  112OSM    H4S11586  -0.593   5.894  10.300 -1.4647  0.7154  2.1401
  112OSM    C5S11587  -0.550   5.705  10.365 -0.1802 -0.1858  0.3674
  112OSM    H5S11588  -0.498   5.641  10.437 -0.3504  0.8374  1.4429
  112OSM    C6S11589  -0.656   5.650  10.283 -0.2615 -0.2259  0.5313
  112OSM    H6S11590  -0.719   5.733  10.243  2.6980  0.8762 -2.3711
  112OSM    H6T11591  -0.715   5.567  10.327 -1.4703 -0.2755 -1.0552
  112OSM    C7S11592  -0.587   5.597  10.150  0.4795 -0.3705 -1.0645
  112OSM    H7S11593  -0.510   5.521  10.171  0.7811 -0.4116 -2.2375
  112OSM    H7T11594  -0.533   5.678  10.097  3.2894 -0.7848  0.9396
  112OSM    C8S11595  -0.697   5.554  10.048  0.1311 -0.2525 -0.0127
  112OSM    H8S11596  -0.773   5.635  10.049  0.9025  0.5006  1.2122
  112OSM    H8T11597  -0.738   5.457  10.083 -3.2234  1.7615  2.1933
  112OSM    C9S11598  -0.651   5.540   9.902 -0.0542 -0.4132  0.2531
  112OSM    H9S11599  -0.582   5.453   9.894  2.7950  1.7730 -0.3736
  112OSM    H9T11600  -0.604   5.637   9.878  1.0646 -1.1354 -0.5780
  112OSM   C10S11601  -0.773   5.520   9.809  0.7380  0.3291  0.0357
  112OSM   H10S11602  -0.827   5.447   9.873  0.8682 -0.8569 -1.1716
  112OSM   H10T11603  -0.748   5.475   9.711  0.6851  1.3814 -0.4784
  112OSM   C11S11604  -0.867   5.635   9.792  0.8012 -0.0169  0.8147
  112OSM   H11S11605  -0.810   5.730   9.789 -1.0928  1.1320 -0.4219
  112OSM   H11T11606  -0.923   5.643   9.888 -0.2840 -1.4638  0.3530
  112OSM   C12S11607  -0.974   5.633   9.680  0.4527  0.2208  0.1907
  112OSM   H12S11608  -1.038   5.724   9.682  0.4770  0.2210  2.0101
  112OSM   H12T11609  -1.044   5.552   9.710  1.6594 -0.5084  1.1294
  112OSM   C13S11610  -0.904   5.607   9.544 -0.2358  0.2114 -0.3077
  112OSM   H13S11611  -0.882   5.499   9.534 -0.6730  0.1310 -0.4157
  112OSM   H13T11612  -0.812   5.666   9.520 -0.6174  0.1102 -2.2176
  112OSM   C14S11613  -1.001   5.637   9.425  0.1419  0.4563 -0.4070
  112OSM   H14S11614  -1.051   5.735   9.437 -0.7225 -0.2607  2.7832
  112OSM   H14T11615  -1.079   5.559   9.423  0.4052  0.1968 -1.5601
  112OSM   C15S11616  -0.923   5.629   9.292 -0.2168  0.2542 -0.0577
  112OSM   H15S11617  -0.882   5.526   9.286 -0.5079  0.0521  1.1759
  112OSM   H15T11618  -0.845   5.706   9.275  0.2027 -0.3083 -0.7523
  112OSM   C16S11619  -1.011   5.651   9.175  0.5573 -0.3567  0.2728
  112OSM   H16S11620  -1.074   5.737   9.204  0.9411  0.7284 -1.8851
  112OSM   H16T11621  -1.061   5.558   9.138  4.3524 -2.5879  0.2170
  112OSM   C17S11622  -0.922   5.701   9.052 -0.1418 -0.6668 -0.1264
  112OSM   H17S11623  -0.863   5.610   9.030  1.3649 -0.2126  1.7394
  112OSM   H17T11624  -0.847   5.776   9.088  0.5841 -1.1229 -0.6483
  112OSM   C18S11625  -0.996   5.753   8.933 -0.2122 -0.5631  0.4592
  112OSM   H18S11626  -1.048   5.672   8.876  1.3388  0.2342 -2.2755
  112OSM   H18T11627  -0.923   5.794   8.860 -0.5197  0.3187  0.6339
  112OSM   H18U11628  -1.065   5.831   8.972  0.5361  0.9509 -1.1422
  112OSM    C1F11629  -0.177   5.892  10.142 -0.2809 -0.6401  0.1172
  112OSM     OF11630  -0.074   5.853  10.189 -0.1385  0.2625 -0.1896
  112OSM    C2F11631  -0.183   5.916   9.995 -0.3734  0.5751  1.5410
  112OSM    H2F11632  -0.101   5.985   9.965  0.7359 -1.0693  0.6839
  112OSM    H2G11633  -0.283   5.957   9.965 -0.1263  0.6087  0.7355
  112OSM    C3F11634  -0.161   5.781   9.914  0.0526  0.2732  0.0655
  112OSM    H3F11635  -0.234   5.708   9.954 -0.8701  0.0849 -1.8184
  112OSM    H3G11636  -0.062   5.737   9.938  0.5346  0.2438 -1.8181
  112OSM    C4F11637  -0.185   5.796   9.762  0.0053  0.2345 -0.8298
  112OSM    H4F11638  -0.123   5.881   9.726 -0.6196  1.0458 -0.0334
  112OSM    H4G11639  -0.290   5.825   9.742  0.3114  1.6312 -0.5437
  112OSM    C5F11640  -0.136   5.676   9.685 -0.6713 -0.6468  0.2260
  112OSM    H5F11641  -0.195   5.587   9.716 -1.9614  0.4091  0.8353
  112OSM    H5G11642  -0.028   5.660   9.708  0.2757  2.4315 -1.4581
  112OSM    C6F11643  -0.162   5.692   9.533  0.2776  0.2805 -0.0800
  112OSM    H6F11644  -0.142   5.796   9.503  0.2946 -0.1441 -1.6084
  112OSM    H6G11645  -0.265   5.674   9.495  1.0411 -0.1527 -2.0829
  112OSM    C7F11646  -0.056   5.607   9.467 -0.4606  0.9484  0.1519
  112OSM    H7F11647   0.032   5.600   9.535 -0.6670 -0.4029  0.3099
  112OSM    H7G11648  -0.017   5.650   9.373  1.9267  0.3944  0.8200
  112OSM    C8F11649  -0.105   5.462   9.445  0.5794  0.2722 -0.1670
  112OSM    H8F11650  -0.198   5.471   9.386 -0.4267 -0.5367  1.2322
  112OSM    H8G11651  -0.135   5.419   9.543  0.3726  2.5483  0.8564
  112OSM    C9F11652  -0.003   5.388   9.368 -0.4128 -0.2401 -0.4024
  112OSM    H9F11653   0.101   5.416   9.387  0.2963  0.0908 -3.9657
  112OSM   C10F11654  -0.020   5.270   9.300  0.2020  0.2268  0.8823
  112OSM   H10F11655   0.062   5.223   9.244  0.8194 -0.4172  2.2807
  112OSM   C11F11656  -0.145   5.191   9.272 -0.2947  0.7465 -0.7864
  112OSM   H11F11657  -0.230   5.260   9.283  0.1420  1.2744 -0.6903
  112OSM   H11G11658  -0.157   5.108   9.345 -1.4555  0.1477 -1.6381
  112OSM   C12F11659  -0.161   5.143   9.124 -0.2829 -0.3128 -0.4174
  112OSM   H12F11660  -0.089   5.059   9.116 -0.0336 -0.0864 -0.5674
  112OSM   H12G11661  -0.139   5.226   9.053 -0.7590 -0.2070 -0.4410
  112OSM   C13F11662  -0.302   5.099   9.096  0.4035 -0.2671 -0.6239
  112OSM   H13F11663  -0.310   5.026   9.012 -4.3912 -0.4891 -0.2393
  112OSM   H13G11664  -0.369   5.184   9.073  0.3472  0.2535  1.3134
  112OSM   C14F11665  -0.375   5.018   9.207 -0.0159 -0.2193 -0.7034
  112OSM   H14F11666  -0.385   5.078   9.300 -0.0429 -0.4094 -0.5821
  112OSM   H14G11667  -0.317   4.925   9.225 -0.6036 -0.4511  0.1027
  112OSM   C15F11668  -0.519   4.972   9.158 -0.1402  0.8196  0.0554
  112OSM   H15F11669  -0.501   4.898   9.078 -1.4711 -0.1698  0.6222
  112OSM   H15G11670  -0.573   5.054   9.106 -0.7745 -1.1839 -2.6882
  112OSM   C16F11671  -0.610   4.907   9.271  0.1436 -0.0806 -0.1457
  112OSM   H16F11672  -0.649   4.980   9.344 -0.3274 -0.8499  0.3910
  112OSM   H16G11673  -0.559   4.834   9.338 -1.1786 -0.3358  0.6141
  112OSM   C17F11674  -0.728   4.831   9.200  0.0451  0.1499  0.0582
  112OSM   H17F11675  -0.777   4.772   9.281 -0.7892  2.5834  1.4146
  112OSM   H17G11676  -0.679   4.767   9.124  2.0761  3.1662 -1.3666
  112OSM   C18F11677  -0.816   4.933   9.123  0.1753  0.1714  0.5478
  112OSM   H18F11678  -0.912   4.889   9.089 -0.1496  1.7544 -0.7319
  112OSM   H18G11679  -0.769   4.970   9.030 -0.2283  1.1242  0.7124
  112OSM   H18H11680  -0.825   5.030   9.178 -1.7195  0.3201  0.0397
  113OSM      N11681   4.643   0.786  10.871  0.1191  0.6030 -0.1047
  113OSM    C1511682   4.711   0.715  10.982  0.1537 -0.5420 -0.3465
  113OSM   H15A11683   4.742   0.618  10.948  1.1118 -0.7615  1.0703
  113OSM   H15B11684   4.643   0.693  11.063  1.7614 -0.3081  1.1131
  113OSM   H15C11685   4.796   0.772  11.016 -2.2282  0.8758  3.9174
  113OSM    C1411686   4.552   0.694  10.811  0.3960 -0.2138 -0.6304
  113OSM   H14A11687   4.599   0.621  10.747 -0.6783 -0.6693 -0.9396
  113OSM   H14B11688   4.483   0.746  10.745  0.6801  0.2824 -0.5430
  113OSM   H14C11689   4.506   0.638  10.890  0.7395  1.7280  1.0283
  113OSM    C1311690   4.559   0.900  10.926 -0.4720  0.8998  0.3305
  113OSM   H13A11691   4.492   0.861  11.001  1.1380 -1.5772  0.6048
  113OSM   H13B11692   4.504   0.958  10.853  1.2121  1.0461 -0.8874
  113OSM   H13C11693   4.624   0.979  10.962  0.3285  1.1978 -1.6317
  113OSM    C1211694   4.728   0.844  10.764 -0.8588 -0.0797 -0.2383
  113OSM   H12A11695   4.797   0.919  10.800  0.2421 -1.2263  0.1226
  113OSM   H12B11696   4.675   0.895  10.685 -1.9503 -0.7046  0.0807
  113OSM    C1111697   4.813   0.739  10.692  0.4110  0.1352  0.3028
  113OSM   H11A11698   4.882   0.796  10.627  0.0003 -0.0707 -0.3122
  113OSM   H11B11699   4.763   0.676  10.617  3.1581 -2.8692  0.7786
  113OSM      P11700   4.906   0.503  10.765 -0.1762 -0.5183  0.3794
  113OSM    O1311701   5.017   0.459  10.847  0.2822 -0.7290 -0.2292
  113OSM    O1411702   4.771   0.443  10.789 -0.5474 -0.3168  0.0311
  113OSM    O1111703   4.950   0.486  10.614 -0.7747  0.6834  0.5253
  113OSM    O1211704   4.894   0.660  10.782  0.0802  0.0590  0.3603
  113OSM    C1S11705   5.081   0.522  10.572 -0.1747 -0.6750  0.3799
  113OSM    H1S11706   5.152   0.458  10.628 -0.7959 -0.7307  1.1329
  113OSM    H1T11707   5.083   0.632  10.589 -0.2893 -0.8871  1.9625
  113OSM     NF11708   5.234   0.511  10.370 -0.0439  0.3838 -0.8946
  113OSM    HNF11709   5.253   0.596  10.321  1.3300 -0.8650 -2.6431
  113OSM    C2S11710   5.095   0.501  10.421  0.3092  0.4106  0.2646
  113OSM    H2S11711   5.067   0.397  10.393  0.3462  0.8905 -1.6999
  113OSM    C3S11712   4.996   0.596  10.335 -0.5897 -0.3990 -0.0539
  113OSM    H3S11713   5.027   0.697  10.368 -1.3585 -0.8888  2.4268
  113OSM     O311714   4.859   0.587  10.375 -0.0148  0.1564  0.4116
  113OSM    HO311715   4.854   0.543  10.460 -0.1799  0.6872  0.6856
  113OSM    C4S11716   5.014   0.576  10.185 -0.5217  0.3051 -0.3242
  113OSM    H4S11717   5.059   0.656  10.124  0.4642 -0.2960 -0.4020
  113OSM    C5S11718   4.976   0.468  10.115 -0.3498 -0.2721 -0.6474
  113OSM    H5S11719   4.921   0.385  10.162 -1.6768  0.3389 -1.0625
  113OSM    C6S11720   4.993   0.446   9.968 -0.2154 -0.1970 -0.0186
  113OSM    H6S11721   4.937   0.526   9.915  0.3148  0.3671  0.2642
  113OSM    H6T11722   4.941   0.351   9.942 -0.1494 -0.1987 -0.1426
  113OSM    C7S11723   5.126   0.474   9.904 -0.4301 -0.1153 -0.5471
  113OSM    H7S11724   5.200   0.419   9.966 -1.6552 -1.6903 -0.4083
  113OSM    H7T11725   5.149   0.581   9.920  0.9948 -0.1036 -2.3403
  113OSM    C8S11726   5.153   0.429   9.758 -1.0314 -0.2232 -0.4806
  113OSM    H8S11727   5.134   0.321   9.770  1.7040 -0.6874  0.3626
  113OSM    H8T11728   5.262   0.438   9.737 -1.3582  1.2966 -1.7825
  113OSM    C9S11729   5.061   0.487   9.649  0.1901 -0.9711 -0.1665
  113OSM    H9S11730   5.091   0.588   9.613 -0.4658 -1.1798 -1.3473
  113OSM    H9T11731   4.960   0.511   9.688 -0.1355 -1.4586 -0.7013
  113OSM   C10S11732   5.053   0.407   9.520 -0.3515 -0.1591  0.1840
  113OSM   H10S11733   4.972   0.453   9.459  0.8098  0.2130 -1.1267
  113OSM   H10T11734   5.032   0.303   9.553 -1.6362  0.6345  2.0156
  113OSM   C11S11735   5.181   0.408   9.429  0.5936  0.7858  0.8816
  113OSM   H11S11736   5.271   0.381   9.489  0.3512 -0.2523  0.8077
  113OSM   H11T11737   5.198   0.508   9.386  0.8660 -0.4483 -2.0979
  113OSM   C12S11738   5.172   0.302   9.309 -0.7827  0.5641 -0.2849
  113OSM   H12S11739   5.064   0.312   9.285 -1.1011 -1.5400  0.1114
  113OSM   H12T11740   5.197   0.199   9.341  1.0636  0.3066 -2.4017
  113OSM   C13S11741   5.253   0.347   9.188 -0.0369  0.1135  0.2757
  113OSM   H13S11742   5.341   0.406   9.224  0.7913 -1.5721  1.1465
  113OSM   H13T11743   5.190   0.412   9.124 -0.1906  1.8258  2.0763
  113OSM   C14S11744   5.308   0.216   9.122  0.1278  0.6520  0.4859
  113OSM   H14S11745   5.336   0.142   9.201  1.4831 -0.0257 -0.5889
  113OSM   H14T11746   5.395   0.237   9.056  1.3357 -0.1231  1.7727
  113OSM   C15S11747   5.204   0.153   9.034 -0.2072 -0.6016  0.2209
  113OSM   H15S11748   5.128   0.220   8.988 -2.4115 -1.3772  2.4787
  113OSM   H15T11749   5.139   0.088   9.097  0.9197 -1.2410  0.7398
  113OSM   C16S11750   5.264   0.075   8.922  0.1400  0.3205  0.7100
  113OSM   H16S11751   5.189  -0.005   8.907 -0.8240  1.0367  1.6149
  113OSM   H16T11752   5.367   0.038   8.938 -0.0278  0.2101  1.5406
  113OSM   C17S11753   5.272   0.164   8.792 -0.4398 -0.3759 -0.3925
  113OSM   H17S11754   5.326   0.258   8.816 -0.7277 -0.2164 -0.3582
  113OSM   H17T11755   5.169   0.197   8.765 -1.2378 -0.4013  2.3435
  113OSM   C18S11756   5.338   0.080   8.688 -0.1745 -0.5756  0.2397
  113OSM   H18S11757   5.272  -0.004   8.656  1.8535 -2.1431 -0.0532
  113OSM   H18T11758   5.422   0.022   8.733 -0.2411  0.2767  1.5005
  113OSM   H18U11759   5.363   0.139   8.597 -0.9121 -0.7412 -0.0748
  113OSM    C1F11760   5.339   0.440  10.414 -0.4868  0.7308 -1.0015
  113OSM     OF11761   5.314   0.333  10.479 -0.2083 -0.2476  0.1159
  113OSM    C2F11762   5.475   0.485  10.386  0.9453  0.2344 -1.1376
  113OSM    H2F11763   5.523   0.510  10.483 -2.2954  0.4446  0.5809
  113OSM    H2G11764   5.471   0.579  10.327  2.0425  0.5072 -0.7970
  113OSM    C3F11765   5.568   0.385  10.310  0.0528 -0.1806 -0.3601
  113OSM    H3F11766   5.545   0.278  10.331  2.3266 -0.8149 -0.7749
  113OSM    H3G11767   5.669   0.392  10.358  0.7680 -2.1719 -1.4482
  113OSM    C4F11768   5.585   0.406  10.166 -0.0375  0.0454  0.3697
  113OSM    H4F11769   5.632   0.506  10.148  0.1817  0.1598  1.5298
  113OSM    H4G11770   5.482   0.404  10.124 -0.1744 -1.6279  0.7458
  113OSM    C5F11771   5.674   0.299  10.101  0.3880 -0.0163 -1.1071
  113OSM    H5F11772   5.615   0.205  10.090 -0.6890  0.4285  0.5559
  113OSM    H5G11773   5.760   0.271  10.165  0.9666 -1.0264 -2.2644
  113OSM    C6F11774   5.709   0.346   9.963 -0.8424  0.1532  0.2905
  113OSM    H6F11775   5.787   0.276   9.927 -0.9048  0.1634  0.1334
  113OSM    H6G11776   5.773   0.436   9.969 -0.2302 -0.3022  0.7022
  113OSM    C7F11777   5.604   0.366   9.852 -0.4317  0.2942 -0.1318
  113OSM    H7F11778   5.661   0.404   9.764 -1.5477  0.4804 -0.7943
  113OSM    H7G11779   5.532   0.443   9.887 -1.1077 -0.0503 -0.7481
  113OSM    C8F11780   5.531   0.243   9.804 -0.0093  0.1772 -0.1991
  113OSM    H8F11781   5.451   0.282   9.737 -0.0165  0.3206 -0.1055
  113OSM    H8G11782   5.481   0.185   9.884 -0.1811  1.9544  1.0213
  113OSM    C9F11783   5.619   0.138   9.735 -0.3808  0.6886 -0.3497
  113OSM    H9F11784   5.679   0.075   9.801 -0.8890 -1.7172 -2.0496
  113OSM   C10F11785   5.633   0.124   9.601  0.0706  0.0741 -1.0392
  113OSM   H10F11786   5.707   0.051   9.563 -0.8348  0.9155 -4.7658
  113OSM   C11F11787   5.584   0.197   9.480  0.5979 -0.5465  0.2015
  113OSM   H11F11788   5.482   0.235   9.502 -0.4839 -2.4281 -1.2104
  113OSM   H11G11789   5.565   0.132   9.392 -2.2986 -1.0766  1.0933
  113OSM   C12F11790   5.672   0.309   9.438  0.2290 -0.3657  0.1940
  113OSM   H12F11791   5.767   0.273   9.393  1.4284 -1.6936  3.4770
  113OSM   H12G11792   5.696   0.386   9.516 -1.0982  2.1551 -1.7388
  113OSM   C13F11793   5.604   0.391   9.323 -0.0884 -0.2487 -0.5513
  113OSM   H13F11794   5.522   0.446   9.374 -3.6481 -1.9710 -3.9188
  113OSM   H13G11795   5.549   0.328   9.251 -0.2621 -2.3072  1.2617
  113OSM   C14F11796   5.707   0.484   9.258  0.5162 -0.9231  0.3850
  113OSM   H14F11797   5.797   0.423   9.237  1.6855  0.6458  0.5852
  113OSM   H14G11798   5.742   0.556   9.336 -0.0113  0.0942 -0.2924
  113OSM   C15F11799   5.658   0.557   9.127  0.5432  0.2290  0.2299
  113OSM   H15F11800   5.568   0.617   9.154 -0.5950 -0.4890 -1.6999
  113OSM   H15G11801   5.623   0.470   9.067 -1.1688 -0.9461  2.7675
  113OSM   C16F11802   5.764   0.643   9.059  0.4335  0.5475 -0.5663
  113OSM   H16F11803   5.827   0.566   9.010 -0.6651 -1.0592  0.4737
  113OSM   H16G11804   5.825   0.690   9.139 -0.4897  0.0497  0.4532
  113OSM   C17F11805   5.712   0.753   8.960  0.6628 -0.2964 -0.5721
  113OSM   H17F11806   5.626   0.714   8.902 -0.3871 -0.2186  0.8616
  113OSM   H17G11807   5.803   0.775   8.899  0.9633  0.2696  0.0698
  113OSM   C18F11808   5.660   0.873   9.043 -0.2497  0.7105 -0.3657
  113OSM   H18F11809   5.745   0.938   9.073 -0.8268  0.6401  1.4891
  113OSM   H18G11810   5.600   0.847   9.132 -0.5345  0.9438 -0.4869
  113OSM   H18H11811   5.592   0.917   8.967  1.5068 -0.1369 -2.5451
  114OSM      N11812   5.831   2.044  11.229  0.3286  0.1311 -0.3855
  114OSM    C1511813   5.746   2.165  11.249 -0.5780 -0.3116  0.0412
  114OSM   H15A11814   5.719   2.219  11.159  0.5850  0.8602  0.3672
  114OSM   H15B11815   5.795   2.229  11.320 -0.1709  1.5032 -1.7662
  114OSM   H15C11816   5.657   2.139  11.305 -0.0577 -0.8399  0.6329
  114OSM    C1411817   5.970   2.079  11.173 -0.1864  0.0164  0.2793
  114OSM   H14A11818   6.033   2.133  11.241  0.9744  1.3906 -1.7601
  114OSM   H14B11819   5.954   2.155  11.098  1.4069 -0.3289 -0.4622
  114OSM   H14C11820   6.024   1.995  11.131  0.9115  0.1565  1.3735
  114OSM    C1311821   5.858   1.983  11.361 -0.3602  0.3910 -0.3680
  114OSM   H13A11822   5.780   1.932  11.416  1.6237  0.1311  2.3657
  114OSM   H13B11823   5.908   2.049  11.430  1.8142 -3.2528  1.8605
  114OSM   H13C11824   5.936   1.909  11.354 -1.5633 -1.2243  2.0021
  114OSM    C1211825   5.768   1.934  11.139 -0.7519 -0.5727  0.1125
  114OSM   H12A11826   5.839   1.854  11.141  1.0327  0.8962 -1.1849
  114OSM   H12B11827   5.770   1.966  11.036  0.1156  1.3182  0.6711
  114OSM    C1111828   5.629   1.890  11.178 -0.1765 -0.3397  0.2595
  114OSM   H11A11829   5.628   1.844  11.279  0.8611  0.2344  0.5476
  114OSM   H11B11830   5.598   1.806  11.112 -1.3652  1.9348 -2.2440
  114OSM      P11831   5.481   2.053  11.041  0.0119 -0.0660  0.5052
  114OSM    O1311832   5.342   2.005  11.016  0.0195 -0.0197 -0.7435
  114OSM    O1411833   5.503   2.204  11.041  0.3537 -0.1699 -0.4725
  114OSM    O1111834   5.573   1.981  10.924 -0.1226  0.3803 -0.5286
  114OSM    O1211835   5.535   1.996  11.178 -0.1057 -1.1353 -0.0190
  114OSM    C1S11836   5.606   2.056  10.806  0.5913  0.4147  0.3213
  114OSM    H1S11837   5.704   2.106  10.823  0.6061  1.2619 -1.9496
  114OSM    H1T11838   5.528   2.131  10.780 -0.1315 -1.1367 -2.3720
  114OSM     NF11839   5.704   2.049  10.587  0.6981  0.3747  0.1173
  114OSM    HNF11840   5.646   2.101  10.525 -1.4276 -1.4713  0.4128
  114OSM    C2S11841   5.629   1.970  10.686  0.2099 -0.0923 -0.0309
  114OSM    H2S11842   5.685   1.876  10.705  1.1941 -0.1735 -2.8206
  114OSM    C3S11843   5.490   1.917  10.631  0.4531 -0.0930 -0.0938
  114OSM    H3S11844   5.436   2.008  10.597 -0.8380 -1.0349 -0.6464
  114OSM     O311845   5.419   1.856  10.739  0.0790  0.4691  0.0687
  114OSM    HO311846   5.457   1.899  10.817  1.4978  0.4543 -0.5897
  114OSM    C4S11847   5.505   1.812  10.530 -0.2849 -0.4101  0.3576
  114OSM    H4S11848   5.568   1.726  10.556  0.3589 -0.1795 -0.4174
  114OSM    C5S11849   5.438   1.804  10.413 -0.2626 -0.1444 -0.2994
  114OSM    H5S11850   5.373   1.886  10.379 -1.0314 -0.5237  0.2445
  114OSM    C6S11851   5.459   1.699  10.310  0.3837 -0.1080 -0.1535
  114OSM    H6S11852   5.369   1.635  10.296 -0.1228  0.5464  0.0642
  114OSM    H6T11853   5.541   1.627  10.333 -0.7019 -1.1775  0.4639
  114OSM    C7S11854   5.501   1.767  10.182  0.6367  0.0920 -0.0524
  114OSM    H7S11855   5.579   1.841  10.211 -1.0572  1.6393  0.7098
  114OSM    H7T11856   5.417   1.832  10.151 -0.1741 -0.7548  0.3296
  114OSM    C8S11857   5.541   1.681  10.057 -0.3332 -0.7441 -0.2437
  114OSM    H8S11858   5.464   1.608  10.025  0.2073 -0.3774 -2.5799
  114OSM    H8T11859   5.631   1.617  10.074 -0.9885 -1.8031 -0.6624
  114OSM    C9S11860   5.586   1.767   9.949  0.7598  0.0470  0.4786
  114OSM    H9S11861   5.694   1.792   9.953  0.8011 -0.1440  0.5768
  114OSM    H9T11862   5.518   1.853   9.932 -1.2454 -1.5711 -0.0145
  114OSM   C10S11863   5.558   1.692   9.816 -0.3593  0.0011  0.1891
  114OSM   H10S11864   5.449   1.672   9.806 -0.6288 -0.1231  2.7903
  114OSM   H10T11865   5.622   1.601   9.824 -0.1671 -0.0534 -1.5100
  114OSM   C11S11866   5.606   1.770   9.698 -0.6217  0.2609  0.3108
  114OSM   H11S11867   5.711   1.805   9.702  0.8458 -3.2077 -2.4797
  114OSM   H11T11868   5.542   1.861   9.689  0.2063  0.9688  1.3511
  114OSM   C12S11869   5.589   1.679   9.574 -0.1666 -0.4743 -0.1522
  114OSM   H12S11870   5.478   1.668   9.569 -0.6759  1.8545  2.8454
  114OSM   H12T11871   5.616   1.573   9.591  1.4346 -0.1821 -0.7563
  114OSM   C13S11872   5.647   1.740   9.444  0.5090 -0.2331 -0.7793
  114OSM   H13S11873   5.755   1.716   9.450  0.4610 -0.4213 -0.6871
  114OSM   H13T11874   5.658   1.850   9.460  3.9815 -0.8487  2.3429
  114OSM   C14S11875   5.593   1.708   9.309 -0.2869 -0.4749  0.1984
  114OSM   H14S11876   5.484   1.726   9.303 -0.2700 -0.6196 -0.7045
  114OSM   H14T11877   5.611   1.598   9.303  1.1347 -0.2314 -0.6595
  114OSM   C15S11878   5.664   1.773   9.188  0.0073  0.2151  0.2361
  114OSM   H15S11879   5.769   1.743   9.165  0.8109  1.5605  1.9218
  114OSM   H15T11880   5.681   1.877   9.224  4.6279 -0.4266  0.5387
  114OSM   C16S11881   5.586   1.764   9.058 -0.3602 -1.1209 -0.2251
  114OSM   H16S11882   5.483   1.803   9.072  0.3125  1.7873 -2.3706
  114OSM   H16T11883   5.581   1.656   9.029  1.1465 -0.9747 -1.1652
  114OSM   C17S11884   5.648   1.856   8.952 -0.1650 -0.3442  1.1999
  114OSM   H17S11885   5.745   1.810   8.922 -1.1133 -0.3414 -2.2561
  114OSM   H17T11886   5.674   1.958   8.987 -2.9445  0.0242  2.4464
  114OSM   C18S11887   5.568   1.854   8.829  0.1599 -0.3674 -0.9443
  114OSM   H18S11888   5.555   1.759   8.773 -2.7643 -1.9124  2.0252
  114OSM   H18T11889   5.607   1.933   8.761  1.2095  1.4245  1.5617
  114OSM   H18U11890   5.467   1.897   8.842  0.4415  1.0726 -2.9757
  114OSM    C1F11891   5.838   2.077  10.600 -0.9210 -0.0199  0.6131
  114OSM     OF11892   5.903   2.044  10.698  0.3549 -0.3681 -0.6243
  114OSM    C2F11893   5.895   2.166  10.492  0.4678  0.6100 -0.0359
  114OSM    H2F11894   5.863   2.270  10.513  2.3572  1.9321 -3.0141
  114OSM    H2G11895   5.864   2.141  10.388  2.2975 -1.2097 -0.2031
  114OSM    C3F11896   6.050   2.174  10.495  0.2486  0.6928  0.6460
  114OSM    H3F11897   6.093   2.075  10.470 -0.6393  0.4963 -0.1760
  114OSM    H3G11898   6.083   2.195  10.599  1.3590 -0.9397  0.6500
  114OSM    C4F11899   6.117   2.265  10.386  0.4703 -0.4420 -0.3222
  114OSM    H4F11900   6.218   2.224  10.366 -0.1409 -3.2213  1.6227
  114OSM    H4G11901   6.111   2.365  10.432 -1.1382 -1.4001  1.7021
  114OSM    C5F11902   6.047   2.259  10.249 -0.3223 -0.9366 -0.3622
  114OSM    H5F11903   6.099   2.321  10.172  1.9529 -1.2219  0.8530
  114OSM    H5G11904   5.949   2.309  10.263  0.7359  0.8738  1.1733
  114OSM    C6F11905   6.037   2.119  10.182 -0.3993  0.0446 -1.0032
  114OSM    H6F11906   5.999   2.040  10.250  0.9235  0.0094 -0.2850
  114OSM    H6G11907   6.138   2.089  10.146 -0.1572 -0.5925  0.1722
  114OSM    C7F11908   5.945   2.121  10.058  0.0813  0.1523 -0.5901
  114OSM    H7F11909   5.983   2.208  10.001  2.1424 -0.1220  0.3010
  114OSM    H7G11910   5.847   2.167  10.087 -0.1885 -0.6249 -0.2286
  114OSM    C8F11911   5.930   1.992   9.975 -0.1637 -0.3108 -0.7833
  114OSM    H8F11912   5.889   1.909  10.036  0.4367  1.8482  2.8457
  114OSM    H8G11913   6.031   1.964   9.936 -0.2718 -0.6664 -0.8107
  114OSM    C9F11914   5.843   2.022   9.855 -0.2607 -0.3939  0.1166
  114OSM    H9F11915   5.736   2.005   9.872  0.3164 -2.5051  2.1889
  114OSM   C10F11916   5.883   2.063   9.728 -0.5666 -0.2916  0.7208
  114OSM   H10F11917   5.808   2.085   9.650  0.6069 -0.8239 -0.5947
  114OSM   C11F11918   6.022   2.095   9.686  1.0279 -0.3038 -0.8888
  114OSM   H11F11919   6.092   2.093   9.773  0.3045  1.3532 -0.2272
  114OSM   H11G11920   6.030   2.198   9.644  3.5966  0.1656  0.5099
  114OSM   C12F11921   6.081   2.008   9.581  0.5482  0.1603 -0.3756
  114OSM   H12F11922   6.055   1.903   9.606 -0.2979 -0.0783 -2.1094
  114OSM   H12G11923   6.190   2.025   9.571  0.5633 -1.3080 -3.7538
  114OSM   C13F11924   6.026   2.051   9.446 -0.4051 -0.6351 -0.1179
  114OSM   H13F11925   6.065   2.149   9.411 -2.7858  0.2600 -0.4209
  114OSM   H13G11926   5.918   2.077   9.443 -0.4331 -0.7702 -0.2491
  114OSM   C14F11927   6.052   1.942   9.338 -0.4860  1.0494  0.3969
  114OSM   H14F11928   5.982   1.860   9.366  0.1962  0.0545 -0.7343
  114OSM   H14G11929   6.156   1.908   9.359 -0.3170  2.0895  1.3510
  114OSM   C15F11930   6.023   1.992   9.197  0.2652 -0.8580 -0.5479
  114OSM   H15F11931   6.064   2.095   9.201 -0.6459 -0.5276  1.4048
  114OSM   H15G11932   5.913   1.992   9.180  0.4883 -1.5072 -2.2047
  114OSM   C16F11933   6.081   1.908   9.081  0.4054 -0.1052 -1.4120
  114OSM   H16F11934   6.041   1.804   9.085  2.0786 -0.8605 -2.6850
  114OSM   H16G11935   6.189   1.892   9.102  0.1968  1.2797  1.1036
  114OSM   C17F11936   6.065   1.980   8.948 -0.2580  0.7152 -0.9050
  114OSM   H17F11937   6.103   2.084   8.958  0.1571  0.4167  0.9547
  114OSM   H17G11938   5.959   1.987   8.915 -0.6054 -0.7279 -0.1490
  114OSM   C18F11939   6.140   1.909   8.829  1.0770 -0.0162 -0.2724
  114OSM   H18F11940   6.165   1.987   8.754 -2.6132  0.4737 -1.1736
  114OSM   H18G11941   6.083   1.831   8.774  0.9748  1.1348 -1.8949
  114OSM   H18H11942   6.226   1.858   8.877 -0.6466 -2.0729  0.7861
  115OSM      N11943   1.535   0.828   6.053 -0.4146 -0.3436  0.2548
  115OSM    C1511944   1.645   0.792   5.951 -0.0717  0.1437  0.5414
  115OSM   H15A11945   1.605   0.743   5.864  2.9819 -3.3992  0.9136
  115OSM   H15B11946   1.711   0.718   5.995 -1.5961 -1.1219  0.7995
  115OSM   H15C11947   1.702   0.875   5.913 -2.6217  0.7832 -2.2445
  115OSM    C1411948   1.453   0.954   6.020  0.0150  0.0392  0.4144
  115OSM   H14A11949   1.394   0.993   6.102  0.2310  0.6911  0.2644
  115OSM   H14B11950   1.387   0.944   5.935  0.8242 -0.0597 -0.2122
  115OSM   H14C11951   1.527   1.032   6.011 -0.4725  0.4363 -0.2611
  115OSM    C1311952   1.446   0.718   6.057  0.3423  0.1476  0.1720
  115OSM   H13A11953   1.413   0.698   5.956  0.4978  2.6797 -0.4633
  115OSM   H13B11954   1.354   0.744   6.108  1.1801  0.5113  1.5465
  115OSM   H13C11955   1.493   0.638   6.112  0.5751  0.0753 -0.1307
  115OSM    C1211956   1.593   0.853   6.195  0.4847  0.2461  0.4529
  115OSM   H12A11957   1.516   0.892   6.260 -0.3760  1.8182 -1.4196
  115OSM   H12B11958   1.670   0.929   6.189  0.9918 -0.3762 -1.4872
  115OSM    C1111959   1.666   0.733   6.261 -0.7949  0.1449 -0.0633
  115OSM   H11A11960   1.599   0.644   6.254 -0.3409 -0.2828  0.9144
  115OSM   H11B11961   1.673   0.749   6.370  3.7136  4.4550 -0.6665
  115OSM      P11962   1.866   0.579   6.203 -0.2866  0.0821 -0.0320
  115OSM    O1311963   1.803   0.513   6.085  0.9190 -0.0992 -0.4397
  115OSM    O1411964   2.013   0.594   6.206 -0.2435 -0.2295 -0.2461
  115OSM    O1111965   1.807   0.505   6.333  0.1624  0.6372 -0.0483
  115OSM    O1211966   1.797   0.716   6.205  0.0151 -0.0447 -0.2545
  115OSM    C1S11967   1.865   0.502   6.462 -0.0654 -0.0454 -0.4912
  115OSM    H1S11968   1.837   0.597   6.512  1.0476 -0.3355  0.7246
  115OSM    H1T11969   1.975   0.498   6.454  0.1448  0.4330  1.5146
  115OSM     NF11970   1.902   0.387   6.679  0.2295  0.4249 -0.0603
  115OSM    HNF11971   1.938   0.298   6.706 -1.2099  0.2499  1.4646
  115OSM    C2S11972   1.823   0.386   6.558 -0.1129 -1.1789  0.8496
  115OSM    H2S11973   1.720   0.388   6.598  0.3212 -3.5821  2.3554
  115OSM    C3S11974   1.822   0.254   6.471  0.0500 -0.6804  0.2324
  115OSM    H3S11975   1.923   0.243   6.425  0.0554 -0.1620  0.1193
  115OSM     O311976   1.719   0.250   6.370  0.0408 -0.3825 -0.5091
  115OSM    HO311977   1.693   0.342   6.364  0.8654 -0.1210 -0.2033
  115OSM    C4S11978   1.793   0.128   6.560  0.1128  0.3024  0.4303
  115OSM    H4S11979   1.876   0.057   6.576 -1.4726 -1.5695  0.7350
  115OSM    C5S11980   1.679   0.105   6.625  0.0931  0.7314 -0.5088
  115OSM    H5S11981   1.601   0.182   6.626 -1.0049 -0.2882 -2.0296
  115OSM    C6S11982   1.658  -0.018   6.711 -0.3062 -0.3475 -0.4388
  115OSM    H6S11983   1.702  -0.109   6.663  0.6686  0.0357 -0.2904
  115OSM    H6T11984   1.549  -0.040   6.714  0.0352 -2.0767  1.5446
  115OSM    C7S11985   1.722   0.019   6.846  0.3734  0.0104 -1.4121
  115OSM    H7S11986   1.684   0.118   6.880 -2.1545 -0.4562 -2.5942
  115OSM    H7T11987   1.833   0.018   6.848  0.4982  3.2987  0.1124
  115OSM    C8S11988   1.664  -0.064   6.956 -0.0570  0.3707  0.4218
  115OSM    H8S11989   1.676  -0.169   6.923  3.4014  0.7839 -0.0089
  115OSM    H8T11990   1.555  -0.055   6.972 -0.7377 -0.2157 -3.0216
  115OSM    C9S11991   1.738  -0.046   7.089 -0.8059 -0.0393 -0.1927
  115OSM    H9S11992   1.744   0.056   7.132 -0.9614  0.6515 -1.7382
  115OSM    H9T11993   1.842  -0.071   7.061 -0.6321  2.3839 -2.0795
  115OSM   C10S11994   1.686  -0.136   7.201  0.1029 -0.7681 -0.1473
  115OSM   H10S11995   1.703  -0.244   7.181  3.0719 -0.5346  0.6856
  115OSM   H10T11996   1.575  -0.126   7.210  0.2610  1.8324 -0.1702
  115OSM   C11S11997   1.752  -0.111   7.340  0.0043  0.4430 -0.0083
  115OSM   H11S11998   1.719  -0.006   7.360 -0.9319  0.9111 -3.3880
  115OSM   H11T11999   1.862  -0.104   7.325  0.2047  1.8564  1.7423
  115OSM   C12S12000   1.710  -0.184   7.467  0.2406  0.5942  0.0833
  115OSM   H12S12001   1.733  -0.291   7.449  0.5442  0.7889 -0.7539
  115OSM   H12T12002   1.600  -0.177   7.458  0.2263 -0.6340 -1.0690
  115OSM   C13S12003   1.761  -0.135   7.605 -0.0479  0.0761  0.2793
  115OSM   H13S12004   1.719  -0.034   7.624 -1.6222 -0.3533 -0.7698
  115OSM   H13T12005   1.871  -0.137   7.625 -0.2718  1.3616  1.8647
  115OSM   C14S12006   1.707  -0.226   7.716 -0.1383  0.2285  0.4604
  115OSM   H14S12007   1.741  -0.332   7.714 -0.0173  0.2733  0.0999
  115OSM   H14T12008   1.596  -0.228   7.713 -0.3218  1.9192  3.0518
  115OSM   C15S12009   1.748  -0.170   7.854  0.7829  0.1636 -0.0032
  115OSM   H15S12010   1.706  -0.068   7.872  2.8933  1.7027 -2.9078
  115OSM   H15T12011   1.859  -0.160   7.862  0.6265  2.4258  0.2320
  115OSM   C16S12012   1.711  -0.257   7.974  0.0744  0.1658 -0.3191
  115OSM   H16S12013   1.741  -0.362   7.953 -1.8444 -0.7402  1.1898
  115OSM   H16T12014   1.601  -0.270   7.981 -0.1419  1.6261 -0.5561
  115OSM   C17S12015   1.774  -0.216   8.109  0.5462  0.2615 -0.5271
  115OSM   H17S12016   1.802  -0.109   8.119 -1.6202  0.8020  0.4122
  115OSM   H17T12017   1.868  -0.276   8.114  1.4642  1.4349 -2.6410
  115OSM   C18S12018   1.675  -0.229   8.226 -0.0125 -0.5222  0.2492
  115OSM   H18S12019   1.716  -0.176   8.314 -0.3518 -2.1491  1.4421
  115OSM   H18T12020   1.637  -0.331   8.250  0.1731 -0.3874  1.1720
  115OSM   H18U12021   1.595  -0.156   8.201  0.2711  0.4783  2.0985
  115OSM    C1F12022   1.880   0.486   6.769 -0.2337  0.9984  0.0277
  115OSM     OF12023   1.808   0.582   6.750  0.3475  0.3754 -0.2651
  115OSM    C2F12024   1.951   0.467   6.897  0.0328 -0.0795 -0.5772
  115OSM    H2F12025   2.015   0.553   6.923 -0.0982 -0.2052  0.1816
  115OSM    H2G12026   2.022   0.381   6.889  1.5070  1.0733 -0.3131
  115OSM    C3F12027   1.857   0.434   7.014 -0.7571 -0.1991  0.0293
  115OSM    H3F12028   1.797   0.343   6.990 -0.9168 -0.0548 -0.1111
  115OSM    H3G12029   1.774   0.507   7.026 -0.0185  0.7092 -0.2853
  115OSM    C4F12030   1.927   0.410   7.145  0.2744  0.0841 -0.0769
  115OSM    H4F12031   1.978   0.499   7.187 -1.4789  0.9950  0.2414
  115OSM    H4G12032   2.000   0.328   7.128 -1.8918 -1.7701 -1.0380
  115OSM    C5F12033   1.837   0.358   7.258 -0.0774  0.7974 -0.5958
  115OSM    H5F12034   1.771   0.286   7.206  0.2146  0.9067 -1.1228
  115OSM    H5G12035   1.782   0.445   7.298  0.1982  0.5676  0.3119
  115OSM    C6F12036   1.923   0.292   7.360 -1.2081 -0.2054 -0.5680
  115OSM    H6F12037   2.013   0.237   7.327  0.5390  2.6251 -0.7751
  115OSM    H6G12038   1.860   0.217   7.413 -2.2667  0.4659 -0.8498
  115OSM    C7F12039   1.965   0.393   7.474  0.4468 -0.2129  0.5552
  115OSM    H7F12040   1.887   0.460   7.514 -0.1933 -0.0203 -0.9208
  115OSM    H7G12041   2.031   0.472   7.432 -1.6123  1.5105  0.4057
  115OSM    C8F12042   2.045   0.329   7.591  0.6911  0.4987 -0.0678
  115OSM    H8F12043   2.085   0.404   7.663  0.3839 -0.7752  1.4740
  115OSM    H8G12044   2.138   0.287   7.546  0.2388  1.8686 -2.4813
  115OSM    C9F12045   1.970   0.221   7.658  0.3602  0.3887  0.8314
  115OSM    H9F12046   1.919   0.152   7.591  0.4585 -0.1129  1.2653
  115OSM   C10F12047   1.964   0.206   7.788  0.2191 -0.1638  0.0581
  115OSM   H10F12048   1.900   0.122   7.818 -0.3382  0.0074 -0.6218
  115OSM   C11F12049   2.029   0.284   7.904 -0.1126  0.1937 -0.6095
  115OSM   H11F12050   1.957   0.294   7.988 -1.3221 -0.9812 -1.4670
  115OSM   H11G12051   2.058   0.389   7.880  1.0819 -0.5246 -2.5263
  115OSM   C12F12052   2.152   0.210   7.958  0.8994  0.2579  0.1478
  115OSM   H12F12053   2.229   0.274   8.007  1.4936 -0.3734  0.0621
  115OSM   H12G12054   2.204   0.160   7.874  2.1994 -0.1117  1.1297
  115OSM   C13F12055   2.118   0.116   8.076  0.7544  0.3165  0.1950
  115OSM   H13F12056   2.007   0.110   8.075  0.7478  0.4823 -0.3159
  115OSM   H13G12057   2.149   0.168   8.169  4.2259 -1.3908  0.1512
  115OSM   C14F12058   2.180  -0.026   8.057 -0.2459  0.3730  0.1779
  115OSM   H14F12059   2.291  -0.019   8.056 -0.3249  2.2165  0.5510
  115OSM   H14G12060   2.142  -0.062   7.959  0.2897 -0.7162  0.3515
  115OSM   C15F12061   2.142  -0.127   8.169 -0.0351 -0.3088  0.5335
  115OSM   H15F12062   2.192  -0.225   8.155  1.7758  0.2956  2.2459
  115OSM   H15G12063   2.034  -0.154   8.163  0.1866 -0.9675 -0.7112
  115OSM   C16F12064   2.171  -0.074   8.312 -0.2361  0.3885  0.4365
  115OSM   H16F12065   2.111   0.018   8.326 -2.2796 -0.3631 -2.3932
  115OSM   H16G12066   2.276  -0.039   8.297 -0.5760  0.5022 -2.2436
  115OSM   C17F12067   2.154  -0.181   8.420 -0.3317 -0.3475 -0.5371
  115OSM   H17F12068   2.234  -0.256   8.400 -0.8955 -0.5593 -2.0879
  115OSM   H17G12069   2.056  -0.233   8.415 -0.9850  0.6800  0.8608
  115OSM   C18F12070   2.182  -0.117   8.552  0.3218  0.6353  0.5254
  115OSM   H18F12071   2.264  -0.046   8.533  0.7009  0.6759  2.1747
  115OSM   H18G12072   2.226  -0.190   8.624 -1.4338  0.6339  1.6805
  115OSM   H18H12073   2.094  -0.065   8.597 -0.5882 -0.2975 -0.1074
  116OSM      N12074   5.156   4.412   6.527  0.2167 -0.1499 -0.8961
  116OSM    C1512075   5.170   4.530   6.625 -0.1411 -1.0571 -0.0536
  116OSM   H15A12076   5.260   4.532   6.685 -1.0507  2.3299  1.3902
  116OSM   H15B12077   5.091   4.521   6.698 -0.7604 -0.1755 -0.6054
  116OSM   H15C12078   5.162   4.625   6.574  0.8366 -1.7805 -1.6313
  116OSM    C1412079   5.149   4.294   6.616  0.7972  0.1094 -0.7898
  116OSM   H14A12080   5.120   4.207   6.559 -2.6905 -0.8348  2.1018
  116OSM   H14B12081   5.070   4.303   6.689  1.5905 -0.2560  0.1248
  116OSM   H14C12082   5.240   4.274   6.670  0.0928  0.6237  0.6449
  116OSM    C1312083   5.021   4.427   6.456 -0.4967 -0.4661  0.2256
  116OSM   H13A12084   4.992   4.335   6.408  2.3366 -1.5001  0.2770
  116OSM   H13B12085   5.020   4.502   6.378 -0.8778 -1.4197 -0.7080
  116OSM   H13C12086   4.936   4.459   6.515 -2.0810 -0.0217 -2.1646
  116OSM    C1212087   5.271   4.402   6.429  0.4713 -0.0449  0.2767
  116OSM   H12A12088   5.262   4.480   6.354 -0.0280 -1.8328 -1.6180
  116OSM   H12B12089   5.252   4.320   6.362 -1.9781  0.5521  0.1585
  116OSM    C1112090   5.420   4.398   6.478 -0.2569  0.2108 -0.4022
  116OSM   H11A12091   5.424   4.483   6.549 -0.7355 -1.1784  1.3765
  116OSM   H11B12092   5.494   4.413   6.397  0.9027 -1.3721  0.3127
  116OSM      P12093   5.477   4.148   6.446 -0.0720  0.0513 -0.2465
  116OSM    O1312094   5.400   4.162   6.320  0.0777  0.1693 -0.4028
  116OSM    O1412095   5.622   4.143   6.423  0.0047 -0.0271 -0.4870
  116OSM    O1112096   5.432   4.019   6.524 -0.4078 -0.0637  0.2701
  116OSM    O1212097   5.445   4.271   6.547 -0.4287 -0.0479  0.2936
  116OSM    C1S12098   5.474   4.006   6.662 -0.0353  0.0454 -0.4211
  116OSM    H1S12099   5.414   4.084   6.714 -0.6548 -0.1739 -0.7945
  116OSM    H1T12100   5.582   4.025   6.677  0.0087  1.1300 -1.8884
  116OSM     NF12101   5.446   3.881   6.874  0.2482 -0.9599  0.2150
  116OSM    HNF12102   5.523   3.837   6.919 -0.4990 -0.0468  2.5498
  116OSM    C2S12103   5.436   3.867   6.730 -0.8835 -0.0287  0.2924
  116OSM    H2S12104   5.327   3.854   6.711 -1.0844  1.1437  0.5464
  116OSM    C3S12105   5.523   3.765   6.658  0.0080  0.2906  0.4316
  116OSM    H3S12106   5.627   3.797   6.679  0.2209 -1.0534  1.5986
  116OSM     O312107   5.488   3.770   6.517 -1.4232  0.4804  0.5162
  116OSM    HO312108   5.466   3.862   6.502  0.1974  0.8193  0.0132
  116OSM    C4S12109   5.511   3.620   6.712 -0.0811 -0.2353 -0.1583
  116OSM    H4S12110   5.539   3.607   6.818 -0.6240  0.0332  0.0234
  116OSM    C5S12111   5.466   3.510   6.646  0.1170  0.0380 -0.2594
  116OSM    H5S12112   5.431   3.519   6.542  0.6662 -0.9427 -0.5461
  116OSM    C6S12113   5.444   3.378   6.709 -0.4773  0.1183 -0.1612
  116OSM    H6S12114   5.471   3.297   6.637 -0.6124 -1.1896  1.2150
  116OSM    H6T12115   5.337   3.362   6.731  0.1527  0.5665  4.0244
  116OSM    C7S12116   5.521   3.350   6.842  0.0860  0.3022  0.2699
  116OSM    H7S12117   5.472   3.407   6.924 -0.2386  0.3190  0.0641
  116OSM    H7T12118   5.627   3.384   6.838  0.4021 -0.0997  3.0375
  116OSM    C8S12119   5.511   3.204   6.886  0.2454  0.1332  0.4650
  116OSM    H8S12120   5.528   3.137   6.799 -3.8244 -0.0889 -0.3527
  116OSM    H8T12121   5.407   3.177   6.917 -0.3980  2.2243  0.2668
  116OSM    C9S12122   5.594   3.182   7.010 -0.2528  0.8558  0.1101
  116OSM    H9S12123   5.681   3.249   6.988  0.5426 -0.6336 -1.4863
  116OSM    H9T12124   5.617   3.074   7.014  0.7447  1.0783  0.6559
  116OSM   C10S12125   5.529   3.237   7.140  0.3063  0.2703 -0.4432
  116OSM   H10S12126   5.434   3.184   7.163  1.4514 -0.5101  3.1183
  116OSM   H10T12127   5.504   3.344   7.127 -0.5827 -0.1333 -2.3485
  116OSM   C11S12128   5.627   3.228   7.261 -0.5143 -0.3893  0.9233
  116OSM   H11S12129   5.714   3.296   7.250  1.4751 -2.7574  1.1778
  116OSM   H11T12130   5.659   3.121   7.262 -2.5480 -1.1009 -1.1082
  116OSM   C12S12131   5.560   3.256   7.401 -0.4167 -0.4507  0.6500
  116OSM   H12S12132   5.496   3.168   7.422 -1.3278  0.2257  0.7992
  116OSM   H12T12133   5.504   3.351   7.384 -0.1915 -0.4842 -0.3342
  116OSM   C13S12134   5.658   3.258   7.524 -0.3081  0.2391 -0.5643
  116OSM   H13S12135   5.723   3.342   7.493 -0.1211  0.1707 -0.3541
  116OSM   H13T12136   5.714   3.166   7.549  1.0656  1.3725  0.6694
  116OSM   C14S12137   5.591   3.302   7.660 -0.5273 -0.6840  0.3192
  116OSM   H14S12138   5.543   3.208   7.693 -1.8445 -0.1912 -0.1089
  116OSM   H14T12139   5.509   3.375   7.641 -0.6536 -0.8878  0.0703
  116OSM   C15S12140   5.685   3.354   7.771 -0.1105 -0.1959  0.2367
  116OSM   H15S12141   5.712   3.459   7.747 -2.1709  0.4751  0.6887
  116OSM   H15T12142   5.778   3.293   7.770 -0.7736 -1.2646 -1.5073
  116OSM   C16S12143   5.620   3.354   7.903 -0.0153 -0.7915  0.0343
  116OSM   H16S12144   5.633   3.249   7.936  2.3876 -0.4168  0.4620
  116OSM   H16T12145   5.509   3.366   7.899  0.1645  0.7818 -1.2084
  116OSM   C17S12146   5.668   3.457   8.004 -0.5636 -0.0285 -0.8171
  116OSM   H17S12147   5.691   3.555   7.957 -0.7176 -0.5336 -1.9811
  116OSM   H17T12148   5.758   3.425   8.061 -0.7226 -0.7718 -0.9792
  116OSM   C18S12149   5.558   3.488   8.116 -0.3021 -0.9090 -0.5511
  116OSM   H18S12150   5.521   3.393   8.161 -1.1893 -0.5028 -0.4025
  116OSM   H18T12151   5.467   3.544   8.085  0.3024  0.5998  0.3383
  116OSM   H18U12152   5.615   3.548   8.189  1.1054 -0.5556 -1.8852
  116OSM    C1F12153   5.355   3.943   6.946 -0.2333 -0.3679  0.2507
  116OSM     OF12154   5.254   4.001   6.900 -0.7950 -0.2711  0.0913
  116OSM    C2F12155   5.391   3.952   7.103 -0.0984 -0.1566 -0.3592
  116OSM    H2F12156   5.483   4.014   7.107  0.8730 -1.5173 -0.8073
  116OSM    H2G12157   5.409   3.847   7.135  0.6160 -0.3031 -1.1964
  116OSM    C3F12158   5.270   4.028   7.172  1.2941 -0.3289 -1.0442
  116OSM    H3F12159   5.188   3.954   7.167  1.2765 -0.6644  2.1109
  116OSM    H3G12160   5.241   4.112   7.106  0.2338  0.9704  0.9656
  116OSM    C4F12161   5.284   4.062   7.321 -0.4532  0.5973  0.2626
  116OSM    H4F12162   5.306   3.971   7.380 -1.8971  0.4025  0.5436
  116OSM    H4G12163   5.188   4.109   7.353 -1.5083 -1.1748 -0.1916
  116OSM    C5F12164   5.394   4.164   7.342 -0.5702 -0.2024  0.1225
  116OSM    H5F12165   5.393   4.252   7.273 -1.1246  1.3300  2.0001
  116OSM    H5G12166   5.490   4.112   7.326 -0.0229  0.2398  1.7690
  116OSM    C6F12167   5.417   4.207   7.486  0.9337  0.2017 -0.7202
  116OSM    H6F12168   5.519   4.251   7.493  0.6979  1.0082 -2.0056
  116OSM    H6G12169   5.399   4.127   7.561 -1.1560  0.5268 -0.8338
  116OSM    C7F12170   5.317   4.316   7.538  0.1284  0.3496 -0.4769
  116OSM    H7F12171   5.219   4.267   7.557  0.8777 -0.5475  1.3600
  116OSM    H7G12172   5.312   4.396   7.462  0.5304 -0.4418 -1.3563
  116OSM    C8F12173   5.350   4.353   7.686  0.7459 -0.6076 -0.2114
  116OSM    H8F12174   5.443   4.413   7.684 -0.7824  2.1129  2.1971
  116OSM    H8G12175   5.389   4.257   7.726 -0.3457 -0.9971 -0.0344
  116OSM    C9F12176   5.233   4.399   7.780 -0.4735 -0.1804  0.5023
  116OSM    H9F12177   5.172   4.481   7.740 -0.6897 -0.1523  0.8806
  116OSM   C10F12178   5.213   4.352   7.904  0.0165 -0.5177 -0.1319
  116OSM   H10F12179   5.132   4.402   7.961  1.0285  0.4748  0.4825
  116OSM   C11F12180   5.306   4.251   7.980  0.7079 -0.7746 -0.8158
  116OSM   H11F12181   5.402   4.229   7.929  1.2416 -1.1964  0.3282
  116OSM   H11G12182   5.244   4.159   7.982  3.3067 -2.6358  0.4937
  116OSM   C12F12183   5.334   4.283   8.127  0.0169 -0.8689 -0.0242
  116OSM   H12F12184   5.391   4.198   8.169 -1.4714 -0.8439  2.1989
  116OSM   H12G12185   5.245   4.309   8.187 -0.9792  2.2296 -2.5227
  116OSM   C13F12186   5.422   4.402   8.150 -0.7151 -0.2559 -0.4018
  116OSM   H13F12187   5.376   4.500   8.127  0.9588  1.2650  2.2473
  116OSM   H13G12188   5.510   4.403   8.082 -0.5590 -1.1062 -0.2283
  116OSM   C14F12189   5.481   4.420   8.295  0.4392 -0.5476  0.7773
  116OSM   H14F12190   5.544   4.330   8.312  1.0533 -0.1511  0.6413
  116OSM   H14G12191   5.401   4.411   8.372  0.5138 -2.1481  0.6934
  116OSM   C15F12192   5.581   4.541   8.315 -0.4930  0.1380  0.6124
  116OSM   H15F12193   5.669   4.525   8.249 -0.4411 -0.3608  0.8006
  116OSM   H15G12194   5.609   4.527   8.422  1.4876 -0.0308  0.1017
  116OSM   C16F12195   5.534   4.684   8.304 -0.7273 -0.2824 -0.3672
  116OSM   H16F12196   5.451   4.703   8.376 -1.5256  0.4711 -1.4500
  116OSM   H16G12197   5.500   4.712   8.202 -0.9423 -1.5431 -0.6539
  116OSM   C17F12198   5.655   4.780   8.329 -0.1622 -0.0965 -0.1053
  116OSM   H17F12199   5.619   4.881   8.298 -2.4198 -0.5123  0.8961
  116OSM   H17G12200   5.742   4.754   8.265  0.2912 -2.0065  1.1981
  116OSM   C18F12201   5.704   4.774   8.474  0.3988  0.0103  0.3340
  116OSM   H18F12202   5.625   4.797   8.549  0.0830  3.0078 -0.7847
  116OSM   H18G12203   5.782   4.850   8.492  1.5186 -0.6900 -1.4064
  116OSM   H18H12204   5.748   4.675   8.499  0.3105 -0.3565 -0.9268
  117OSM      N12205   3.873   1.255   6.227 -0.0321 -0.0701  0.8510
  117OSM    C1512206   3.788   1.249   6.101 -0.4282 -0.5865 -0.8566
  117OSM   H15A12207   3.822   1.321   6.028  0.7788 -1.9471 -1.6806
  117OSM   H15B12208   3.685   1.261   6.131  0.5999  1.1931  2.4764
  117OSM   H15C12209   3.802   1.154   6.053  0.0849 -1.6604  1.2835
  117OSM    C1412210   3.841   1.381   6.305 -0.8878  0.4535  0.2434
  117OSM   H14A12211   3.887   1.376   6.403  0.2582 -0.1367 -0.2982
  117OSM   H14B12212   3.735   1.382   6.326 -0.8495  0.3202  0.4555
  117OSM   H14C12213   3.870   1.465   6.245  1.1212 -0.3289  0.0423
  117OSM    C1312214   3.831   1.128   6.302 -0.0664 -0.4093  0.3616
  117OSM   H13A12215   3.725   1.113   6.313  0.0545 -0.6599  1.1976
  117OSM   H13B12216   3.868   1.134   6.403 -3.7595  0.4417  1.7977
  117OSM   H13C12217   3.875   1.042   6.255 -0.4261 -0.1362 -0.4988
  117OSM    C1212218   4.017   1.239   6.201  0.4545 -0.1068 -0.4922
  117OSM   H12A12219   4.067   1.231   6.297  1.5245 -1.7669 -1.1500
  117OSM   H12B12220   4.047   1.336   6.162 -0.6011  2.0063  3.3681
  117OSM    C1112221   4.060   1.131   6.103 -0.1664  0.0025 -0.1423
  117OSM   H11A12222   4.169   1.149   6.094 -0.5364  2.0511 -1.1833
  117OSM   H11B12223   4.019   1.158   6.003 -0.7344 -1.8692 -0.4472
  117OSM      P12224   4.129   0.897   6.179 -0.2629  0.0095  0.2668
  117OSM    O1312225   4.072   0.781   6.254 -0.0056  0.0154 -0.2382
  117OSM    O1412226   4.201   0.861   6.056  0.2085  0.1638 -0.2213
  117OSM    O1112227   4.225   0.980   6.275 -0.2571 -0.3528 -0.7540
  117OSM    O1212228   4.017   0.999   6.138 -0.6446 -0.0555  1.1777
  117OSM    C1S12229   4.197   1.049   6.399 -0.3255 -0.5558 -0.0713
  117OSM    H1S12230   4.089   1.077   6.397  0.1913  1.6846  0.4023
  117OSM    H1T12231   4.245   1.149   6.411  0.8455 -1.1109 -0.0212
  117OSM     NF12232   4.145   1.019   6.635 -0.8144  0.3429  0.6603
  117OSM    HNF12233   4.198   1.062   6.708 -1.4835  0.1719  1.2613
  117OSM    C2S12234   4.220   0.966   6.526 -0.4702 -0.1285 -0.0563
  117OSM    H2S12235   4.184   0.864   6.504 -1.8510  0.2100  0.5269
  117OSM    C3S12236   4.367   0.955   6.552 -0.5315  0.1974  0.6489
  117OSM    H3S12237   4.411   1.053   6.578  0.5833  0.7630 -2.8277
  117OSM     O312238   4.450   0.920   6.437  0.6420 -0.5372  0.0047
  117OSM    HO312239   4.395   0.927   6.358  0.8813  1.5766 -0.0209
  117OSM    C4S12240   4.393   0.848   6.657  0.4243 -0.1562  0.2647
  117OSM    H4S12241   4.360   0.748   6.625  0.2977 -0.1900  0.4974
  117OSM    C5S12242   4.457   0.864   6.774 -0.5414  0.0770  0.8681
  117OSM    H5S12243   4.482   0.969   6.793 -1.5371  1.0596 -2.5873
  117OSM    C6S12244   4.478   0.766   6.886 -0.0957  0.1984 -0.5989
  117OSM    H6S12245   4.586   0.742   6.891  0.0001  0.9126  1.7360
  117OSM    H6T12246   4.430   0.667   6.874  0.9746 -0.5030  0.6662
  117OSM    C7S12247   4.446   0.825   7.027 -0.0246  0.0912  0.7595
  117OSM    H7S12248   4.335   0.824   7.029 -0.0486 -0.2105 -0.2167
  117OSM    H7T12249   4.491   0.926   7.036  0.5456  0.0198 -0.9153
  117OSM    C8S12250   4.471   0.717   7.140  0.7962 -0.2400  1.0781
  117OSM    H8S12251   4.445   0.615   7.105 -1.9766 -0.0473  2.3244
  117OSM    H8T12252   4.403   0.735   7.226  0.4447 -3.7370  1.6762
  117OSM    C9S12253   4.615   0.722   7.201 -0.1417  0.5048  0.6475
  117OSM    H9S12254   4.694   0.708   7.124 -0.8193 -1.3039  0.2380
  117OSM    H9T12255   4.627   0.630   7.263 -0.2149 -1.4190 -2.0008
  117OSM   C10S12256   4.638   0.853   7.279  0.3093 -0.0769 -0.3053
  117OSM   H10S12257   4.567   0.851   7.365 -0.2156 -2.7365 -0.7033
  117OSM   H10T12258   4.627   0.939   7.210  0.6466 -0.3347 -0.6814
  117OSM   C11S12259   4.780   0.861   7.337  1.1021  0.4797 -0.3129
  117OSM   H11S12260   4.784   0.967   7.370 -4.4522  0.8089  0.2901
  117OSM   H11T12261   4.838   0.832   7.246 -1.7655 -0.3840 -2.0068
  117OSM   C12S12262   4.808   0.757   7.452 -0.3258  0.5935  0.0933
  117OSM   H12S12263   4.918   0.761   7.468 -0.2454  2.2032 -0.6643
  117OSM   H12T12264   4.776   0.653   7.428  1.6466  0.3339 -1.6897
  117OSM   C13S12265   4.745   0.807   7.582 -0.4837 -0.2755 -0.0374
  117OSM   H13S12266   4.645   0.851   7.561 -1.1302  0.0527  3.2549
  117OSM   H13T12267   4.793   0.892   7.635 -2.2954  0.9134 -0.2217
  117OSM   C14S12268   4.743   0.688   7.678 -0.3113  0.6911 -0.4841
  117OSM   H14S12269   4.846   0.654   7.701  0.1501  1.7468 -0.9426
  117OSM   H14T12270   4.695   0.601   7.628  0.6939  0.0743 -0.4069
  117OSM   C15S12271   4.686   0.714   7.819 -0.5030  0.5229 -0.0055
  117OSM   H15S12272   4.582   0.753   7.815 -0.4448  0.7355  0.4611
  117OSM   H15T12273   4.737   0.803   7.861  0.0799 -0.5530  1.6258
  117OSM   C16S12274   4.708   0.601   7.917  0.1406 -0.2310  0.2294
  117OSM   H16S12275   4.803   0.546   7.899  1.4501  2.1425 -0.5427
  117OSM   H16T12276   4.627   0.526   7.904  0.1751 -0.2464  0.1073
  117OSM   C17S12277   4.710   0.667   8.055 -0.1404 -0.2618 -0.3628
  117OSM   H17S12278   4.612   0.717   8.068  1.0886  2.6420 -1.3631
  117OSM   H17T12279   4.794   0.740   8.053 -0.3426 -0.0083  0.3101
  117OSM   C18S12280   4.752   0.565   8.170  0.3694 -0.5012 -0.7061
  117OSM   H18S12281   4.848   0.520   8.136  1.1408  0.1236  0.5935
  117OSM   H18T12282   4.685   0.479   8.190 -0.2177  0.2292  0.5797
  117OSM   H18U12283   4.769   0.622   8.264 -1.3413  1.1639 -1.3444
  117OSM    C1F12284   4.012   1.020   6.631 -0.2476  0.0373 -0.0618
  117OSM     OF12285   3.942   0.972   6.539 -0.2884  0.2173 -0.4452
  117OSM    C2F12286   3.941   1.074   6.755  0.4074 -1.1235 -0.6223
  117OSM    H2F12287   4.012   1.116   6.830 -0.1790 -2.6220  0.8520
  117OSM    H2G12288   3.907   0.987   6.816  0.2358 -0.7818 -0.2250
  117OSM    C3F12289   3.824   1.167   6.705  0.0046 -0.1674 -0.2386
  117OSM    H3F12290   3.754   1.100   6.650  1.2626 -1.6968 -0.0334
  117OSM    H3G12291   3.860   1.247   6.636 -1.1547  1.4176  0.9295
  117OSM    C4F12292   3.747   1.224   6.822  0.0337 -0.0023  0.1718
  117OSM    H4F12293   3.711   1.149   6.896 -1.4906  0.5748  0.0494
  117OSM    H4G12294   3.656   1.268   6.777  0.4496 -0.4765 -1.1626
  117OSM    C5F12295   3.823   1.335   6.887  0.5324 -0.3827  0.0282
  117OSM    H5F12296   3.877   1.399   6.814 -0.0595 -0.3000 -0.3472
  117OSM    H5G12297   3.898   1.279   6.946  1.8389 -1.3697 -2.4243
  117OSM    C6F12298   3.734   1.411   6.987  0.2868 -0.2031 -0.2459
  117OSM    H6F12299   3.656   1.466   6.930  1.5782 -0.6724 -2.5994
  117OSM    H6G12300   3.790   1.491   7.041 -0.9276  2.2290 -2.3418
  117OSM    C7F12301   3.682   1.332   7.103  0.2928  0.0477  0.2536
  117OSM    H7F12302   3.767   1.318   7.172 -0.3552 -0.8706  0.8927
  117OSM    H7G12303   3.654   1.230   7.067 -1.3627  0.1575  1.1412
  117OSM    C8F12304   3.560   1.403   7.174  0.6844  0.7390  0.2899
  117OSM    H8F12305   3.479   1.407   7.099  0.8329 -0.2899  0.0585
  117OSM    H8G12306   3.580   1.507   7.208 -1.0195  1.2980 -0.3170
  117OSM    C9F12307   3.510   1.317   7.279 -0.3899 -0.6247 -0.2133
  117OSM    H9F12308   3.429   1.248   7.250 -2.2011  1.4907 -0.5329
  117OSM   C10F12309   3.555   1.318   7.404  0.3041 -0.4543  0.9232
  117OSM   H10F12310   3.514   1.245   7.476  0.8263 -0.8493  0.8283
  117OSM   C11F12311   3.659   1.402   7.469  0.0902  0.4534  0.0980
  117OSM   H11F12312   3.618   1.457   7.556  0.9996  1.6327 -0.1958
  117OSM   H11G12313   3.704   1.470   7.394 -1.9512 -0.0630 -1.7307
  117OSM   C12F12314   3.769   1.307   7.513 -0.5750 -0.2488 -0.0944
  117OSM   H12F12315   3.804   1.273   7.413 -0.5251  1.0307 -0.5260
  117OSM   H12G12316   3.752   1.216   7.576  1.8548 -0.3145  0.5605
  117OSM   C13F12317   3.891   1.387   7.570 -0.2034  0.6025 -0.3882
  117OSM   H13F12318   3.880   1.419   7.676 -0.6199 -0.3482 -0.1366
  117OSM   H13G12319   3.913   1.478   7.510 -3.3967  1.1947 -0.8596
  117OSM   C14F12320   4.010   1.295   7.565  0.4068  0.4875 -0.1883
  117OSM   H14F12321   4.051   1.277   7.464  1.3183 -1.4409  0.4885
  117OSM   H14G12322   3.994   1.190   7.596  2.9800 -0.6091 -2.2562
  117OSM   C15F12323   4.126   1.350   7.650 -0.7026  0.2121 -0.1364
  117OSM   H15F12324   4.137   1.457   7.624 -0.5333 -0.1873 -1.8193
  117OSM   H15G12325   4.214   1.290   7.616 -0.5827  0.1899  0.2155
  117OSM   C16F12326   4.118   1.332   7.798 -0.6061 -0.0991  0.6066
  117OSM   H16F12327   4.087   1.228   7.817 -2.5064  0.5615  1.3031
  117OSM   H16G12328   4.028   1.384   7.836 -0.8573 -2.0102  2.8601
  117OSM   C17F12329   4.238   1.387   7.865  0.1141 -0.5395  0.4667
  117OSM   H17F12330   4.324   1.334   7.819 -0.4056  1.1478 -2.6806
  117OSM   H17G12331   4.257   1.490   7.829 -0.7646 -0.1384  1.1278
  117OSM   C18F12332   4.230   1.372   8.014 -0.2960  0.3470  0.6765
  117OSM   H18F12333   4.310   1.437   8.056 -0.2153 -0.5770  2.0009
  117OSM   H18G12334   4.245   1.270   8.055 -2.0042  0.6165  2.0448
  117OSM   H18H12335   4.145   1.427   8.059 -0.9167  0.8081 -0.9928
  118OSM      N12336   1.762   3.215   6.081 -0.0547 -0.3632  0.0003
  118OSM    C1512337   1.746   3.361   6.101  0.1683 -0.1437 -0.0077
  118OSM   H15A12338   1.730   3.379   6.206 -0.7248 -1.1721  0.0560
  118OSM   H15B12339   1.666   3.387   6.034 -0.0336  0.0198  0.2954
  118OSM   H15C12340   1.824   3.426   6.065  0.6554 -0.2666  0.7919
  118OSM    C1412341   1.813   3.185   5.940 -0.1247 -0.1730  0.4607
  118OSM   H14A12342   1.899   3.246   5.918 -0.2216 -0.4617 -0.7810
  118OSM   H14B12343   1.734   3.200   5.868 -1.8486 -1.1273  2.0431
  118OSM   H14C12344   1.837   3.082   5.918 -0.3780 -0.2881  0.7148
  118OSM    C1312345   1.872   3.170   6.172  0.0405 -0.7058  0.1439
  118OSM   H13A12346   1.891   3.064   6.178  3.1890 -0.1734  1.8955
  118OSM   H13B12347   1.844   3.204   6.270  0.7996 -0.5539  0.3148
  118OSM   H13C12348   1.966   3.220   6.155 -0.4758  0.5605  0.9201
  118OSM    C1212349   1.636   3.135   6.103  0.0150  0.1444  0.4860
  118OSM   H12A12350   1.664   3.034   6.077 -0.2541  0.6732 -2.2004
  118OSM   H12B12351   1.573   3.171   6.023 -0.4052 -0.6964  0.4245
  118OSM    C1112352   1.572   3.144   6.241  1.0132 -0.9366 -0.3417
  118OSM   H11A12353   1.566   3.248   6.280 -0.4982 -0.8662 -0.6866
  118OSM   H11B12354   1.628   3.087   6.317  1.3537  0.0254  0.1449
  118OSM      P12355   1.312   3.168   6.161 -0.1620 -0.2080 -0.1046
  118OSM    O1312356   1.340   3.263   6.055  0.7543  0.3296  0.6009
  118OSM    O1412357   1.222   3.058   6.125 -1.1370 -0.1506  0.4851
  118OSM    O1112358   1.248   3.247   6.286 -0.6029 -0.2078 -0.8442
  118OSM    O1212359   1.444   3.100   6.235  0.1649  0.3963  0.6163
  118OSM    C1S12360   1.205   3.174   6.404 -0.9897  0.4587 -0.3934
  118OSM    H1S12361   1.160   3.077   6.373  0.8730 -1.0212  1.2466
  118OSM    H1T12362   1.122   3.229   6.452  0.8930  2.5773  0.6389
  118OSM     NF12363   1.261   3.068   6.615  0.2148  0.2993 -0.3851
  118OSM    HNF12364   1.238   3.105   6.705 -1.5681  2.0878 -1.4845
  118OSM    C2S12365   1.314   3.153   6.509  0.5432 -0.6695  0.0602
  118OSM    H2S12366   1.391   3.097   6.452 -1.5390 -1.8445 -1.7853
  118OSM    C3S12367   1.355   3.294   6.561 -0.0351 -0.4130  0.1348
  118OSM    H3S12368   1.266   3.338   6.609  0.2249  2.6817 -1.8748
  118OSM     O312369   1.399   3.388   6.469  0.0075 -0.2892 -0.2870
  118OSM    HO312370   1.373   3.333   6.395  2.3802 -3.1546  0.7849
  118OSM    C4S12371   1.468   3.279   6.644  0.4281 -0.5371 -0.0630
  118OSM    H4S12372   1.561   3.260   6.588  1.3750  0.4560  1.1086
  118OSM    C5S12373   1.472   3.319   6.776 -0.3006 -0.3436  0.1487
  118OSM    H5S12374   1.376   3.352   6.819  1.6392  2.4010  2.7401
  118OSM    C6S12375   1.591   3.309   6.875 -0.8022  0.2304 -0.3629
  118OSM    H6S12376   1.608   3.412   6.914  0.1746  0.0204 -0.2173
  118OSM    H6T12377   1.679   3.264   6.825 -3.4654 -2.3490 -3.1315
  118OSM    C7S12378   1.542   3.235   7.003 -0.5102 -0.2183 -0.0051
  118OSM    H7S12379   1.501   3.134   6.984  4.6668 -2.0553 -3.7402
  118OSM    H7T12380   1.467   3.305   7.047  0.4255 -1.2178  3.5076
  118OSM    C8S12381   1.636   3.236   7.127  0.9307 -0.2009 -0.4137
  118OSM    H8S12382   1.695   3.330   7.120  0.1158  0.2239 -2.6774
  118OSM    H8T12383   1.709   3.153   7.125  1.1527  0.0027 -1.5904
  118OSM    C9S12384   1.565   3.228   7.261 -0.0307  0.0456  0.3871
  118OSM    H9S12385   1.519   3.127   7.265  0.6613 -0.5096 -2.7346
  118OSM    H9T12386   1.472   3.288   7.268 -0.7687 -0.8470 -1.1387
  118OSM   C10S12387   1.663   3.251   7.375 -0.0066  0.2421  0.2829
  118OSM   H10S12388   1.695   3.357   7.373 -1.1082  0.6000 -1.6141
  118OSM   H10T12389   1.754   3.187   7.369 -0.0137  0.1378  1.2050
  118OSM   C11S12390   1.586   3.228   7.503 -0.0551  0.2747  0.0042
  118OSM   H11S12391   1.564   3.119   7.509 -0.8861  0.3178 -1.5875
  118OSM   H11T12392   1.494   3.291   7.499  0.2832  0.7295 -1.2967
  118OSM   C12S12393   1.681   3.271   7.626  0.6346 -0.2618  0.3757
  118OSM   H12S12394   1.707   3.378   7.613  1.4820 -0.3499  1.2548
  118OSM   H12T12395   1.769   3.206   7.604 -0.1003 -1.3053  0.4076
  118OSM   C13S12396   1.618   3.252   7.763 -0.4340 -0.4308 -0.6963
  118OSM   H13S12397   1.555   3.342   7.778  1.7050  0.8902  0.8207
  118OSM   H13T12398   1.691   3.259   7.846 -1.8879 -0.5096  0.6305
  118OSM   C14S12399   1.543   3.116   7.787 -0.2582  0.9947 -0.0566
  118OSM   H14S12400   1.614   3.030   7.792 -2.2870 -0.9262 -2.1719
  118OSM   H14T12401   1.469   3.081   7.712  0.4850  0.6796 -0.6561
  118OSM   C15S12402   1.471   3.123   7.923 -0.5972  0.8066 -0.4178
  118OSM   H15S12403   1.405   3.213   7.916  0.5234  1.7649  0.6655
  118OSM   H15T12404   1.550   3.143   7.999 -0.5066 -2.4878  0.5131
  118OSM   C16S12405   1.400   2.994   7.962  0.2775  0.7006 -0.1525
  118OSM   H16S12406   1.473   2.910   7.969  0.4347  0.9477  1.4215
  118OSM   H16T12407   1.329   2.975   7.878  0.0034  0.7152  0.0766
  118OSM   C17S12408   1.331   3.023   8.091  0.0382  0.1884  0.3668
  118OSM   H17S12409   1.260   3.108   8.083  1.5731  1.5379  0.5401
  118OSM   H17T12410   1.405   3.069   8.160  2.0531 -0.8734 -0.9723
  118OSM   C18S12411   1.263   2.897   8.141  0.0285 -0.0811 -0.4381
  118OSM   H18S12412   1.202   2.917   8.232 -1.4946 -1.1554 -1.1747
  118OSM   H18T12413   1.330   2.816   8.177 -0.4767 -1.1347 -1.7796
  118OSM   H18U12414   1.207   2.843   8.062 -1.0254 -0.0364  0.2601
  118OSM    C1F12415   1.222   2.942   6.589 -0.0356 -0.3734  0.3946
  118OSM     OF12416   1.281   2.868   6.511 -0.1486  0.1101  0.7169
  118OSM    C2F12417   1.105   2.902   6.663 -0.3833  0.1509 -0.3738
  118OSM    H2F12418   1.042   2.832   6.604 -2.9153 -0.0474  2.3384
  118OSM    H2G12419   1.047   2.989   6.702  0.4908  0.5325  0.0975
  118OSM    C3F12420   1.144   2.824   6.791 -0.6862 -0.0257 -1.4354
  118OSM    H3F12421   1.216   2.889   6.843  1.4349 -3.6286  0.5354
  118OSM    H3G12422   1.199   2.737   6.748 -1.1505 -0.0890 -1.9196
  118OSM    C4F12423   1.028   2.783   6.887 -0.0223 -0.2089 -0.0996
  118OSM    H4F12424   0.964   2.717   6.824  0.0188 -0.2026 -0.1488
  118OSM    H4G12425   0.967   2.873   6.912  0.3014  0.4554 -1.5930
  118OSM    C5F12426   1.063   2.713   7.024  0.1110  0.1011  0.2433
  118OSM    H5F12427   1.133   2.629   7.006 -1.8405 -1.2636 -1.5784
  118OSM    H5G12428   0.968   2.667   7.061  0.9332 -0.9740  1.0610
  118OSM    C6F12429   1.137   2.810   7.127 -0.0389 -0.2925  0.6632
  118OSM    H6F12430   1.075   2.901   7.119  0.2346 -0.2252 -1.3262
  118OSM    H6G12431   1.237   2.830   7.084 -1.1168 -0.1110 -1.9447
  118OSM    C7F12432   1.160   2.755   7.263 -0.3157 -0.3088 -0.3706
  118OSM    H7F12433   1.203   2.652   7.262  1.4235  0.3109  1.6983
  118OSM    H7G12434   1.057   2.740   7.302 -0.2642  1.4265  0.5405
  118OSM    C8F12435   1.237   2.848   7.350 -0.7280 -0.2278 -0.4537
  118OSM    H8F12436   1.186   2.946   7.343  0.6710  0.6683  1.1565
  118OSM    H8G12437   1.335   2.874   7.304 -0.2891  1.1113  1.1776
  118OSM    C9F12438   1.262   2.805   7.497 -0.9052 -0.5047  0.1535
  118OSM    H9F12439   1.328   2.717   7.501  1.3020  1.0542 -0.0303
  118OSM   C10F12440   1.215   2.864   7.603 -0.1222  0.1274 -0.6045
  118OSM   H10F12441   1.244   2.830   7.704  0.3904 -0.3153 -0.8982
  118OSM   C11F12442   1.137   2.992   7.611  0.5663  0.5548  0.5693
  118OSM   H11F12443   1.105   3.029   7.511  1.4374 -0.2386 -0.0103
  118OSM   H11G12444   1.195   3.073   7.659  2.2700  0.3368 -1.0130
  118OSM   C12F12445   1.006   2.967   7.689  0.0677  0.2236 -0.3650
  118OSM   H12F12446   0.951   2.885   7.637  0.7219  1.0735 -2.4999
  118OSM   H12G12447   0.952   3.062   7.672 -1.8037 -0.6178  0.5624
  118OSM   C13F12448   1.014   2.920   7.841  0.2709 -0.1307  0.3583
  118OSM   H13F12449   1.082   2.993   7.889  0.8695  1.3953 -2.5844
  118OSM   H13G12450   1.063   2.820   7.850  0.7988  0.2529  2.2446
  118OSM   C14F12451   0.877   2.914   7.913 -0.1214  0.5172 -0.4856
  118OSM   H14F12452   0.827   2.824   7.871 -1.5596  0.8405  0.4571
  118OSM   H14G12453   0.819   3.005   7.884 -0.9571 -0.1453 -0.9524
  118OSM   C15F12454   0.893   2.903   8.070  0.6027  0.9605  0.0894
  118OSM   H15F12455   0.882   2.994   8.133 -0.5748  1.9445 -1.4754
  118OSM   H15G12456   0.996   2.870   8.098 -0.3634 -0.2418  2.5588
  118OSM   C16F12457   0.790   2.802   8.123 -0.0227  1.1552 -0.0371
  118OSM   H16F12458   0.843   2.705   8.134  0.4526  1.3816 -0.3126
  118OSM   H16G12459   0.716   2.784   8.042  0.4721  0.1784 -0.2825
  118OSM   C17F12460   0.708   2.848   8.249 -0.2257 -0.3941 -0.2238
  118OSM   H17F12461   0.776   2.884   8.329 -1.2391  1.2869 -0.0703
  118OSM   H17G12462   0.669   2.757   8.300  1.4207 -0.6445  0.6711
  118OSM   C18F12463   0.595   2.949   8.222  0.2402 -0.0365  0.4053
  118OSM   H18F12464   0.624   3.020   8.141 -0.2714  0.7871  0.9350
  118OSM   H18G12465   0.560   3.010   8.307 -1.8230 -0.2602 -0.2386
  118OSM   H18H12466   0.504   2.898   8.184  1.1249 -2.0780  0.8494
  119OSM      N12467   4.884   2.140   5.942 -0.9237 -0.8885 -0.1645
  119OSM    C1512468   4.914   2.266   6.027  0.2999 -0.4389  0.4107
  119OSM   H15A12469   4.954   2.354   5.980 -2.3175  1.0234  0.7302
  119OSM   H15B12470   4.985   2.249   6.107 -0.7571 -1.4448  1.1783
  119OSM   H15C12471   4.823   2.289   6.080 -0.5629 -2.6147 -0.0118
  119OSM    C1412472   5.009   2.093   5.878 -0.5105 -0.7000 -0.5316
  119OSM   H14A12473   5.095   2.077   5.942 -0.9943 -3.5323 -0.4297
  119OSM   H14B12474   5.038   2.161   5.800  1.0768  0.5235  1.0468
  119OSM   H14C12475   4.997   1.999   5.826  1.0224 -2.5660  2.2025
  119OSM    C1312476   4.844   2.044   6.043 -0.7849  0.4748 -0.4895
  119OSM   H13A12477   4.759   2.074   6.103 -1.1735 -2.3975  0.5502
  119OSM   H13B12478   4.918   2.021   6.117 -0.8526 -0.6359 -0.7435
  119OSM   H13C12479   4.810   1.950   6.000  2.4570 -1.3051  0.5439
  119OSM    C1212480   4.787   2.164   5.830  0.4593 -0.0109  0.6757
  119OSM   H12A12481   4.828   2.238   5.763  0.5865  1.0578  1.8938
  119OSM   H12B12482   4.703   2.225   5.859  0.1141 -0.2251  0.1406
  119OSM    C1112483   4.736   2.040   5.754  0.1572 -0.0866  0.1924
  119OSM   H11A12484   4.818   1.976   5.717  0.4241 -0.7858  1.8977
  119OSM   H11B12485   4.673   2.079   5.671  1.0904  0.8959 -0.0817
  119OSM      P12486   4.501   1.975   5.836 -0.1740 -0.5495 -0.0979
  119OSM    O1312487   4.462   2.112   5.877  0.2380 -0.6672  0.0891
  119OSM    O1412488   4.441   1.932   5.708 -0.1869  0.1657 -0.1505
  119OSM    O1112489   4.453   1.876   5.948 -0.2169 -0.4436 -1.1101
  119OSM    O1212490   4.658   1.956   5.837  0.5934  0.3795  0.1816
  119OSM    C1S12491   4.493   1.875   6.085 -0.4594 -0.4348  0.3983
  119OSM    H1S12492   4.598   1.909   6.101 -1.1009  0.6367  2.7227
  119OSM    H1T12493   4.492   1.768   6.115  0.1345 -0.1913  1.3626
  119OSM     NF12494   4.473   1.945   6.315  0.5097 -0.4651  0.4460
  119OSM    HNF12495   4.440   1.874   6.378  0.0413 -0.2554  0.4443
  119OSM    C2S12496   4.411   1.951   6.183  0.3064  0.1070 -0.8454
  119OSM    H2S12497   4.409   2.057   6.148  1.6577 -0.1846 -1.9027
  119OSM    C3S12498   4.259   1.896   6.177 -0.6920  0.6539  0.2202
  119OSM    H3S12499   4.268   1.791   6.212  3.7557  0.4198 -0.9559
  119OSM     O312500   4.192   1.891   6.049 -0.3686  0.1356  0.4199
  119OSM    HO312501   4.274   1.904   6.002  0.1036 -0.6313  1.0114
  119OSM    C4S12502   4.184   1.993   6.257  0.4282 -0.2319  0.3978
  119OSM    H4S12503   4.142   2.081   6.206 -2.9273  0.4287  3.8490
  119OSM    C5S12504   4.135   1.976   6.378  0.3583 -0.0380 -0.3975
  119OSM    H5S12505   4.170   1.887   6.431  0.2888 -0.1256 -0.4996
  119OSM    C6S12506   4.039   2.067   6.442  0.7476 -0.5197 -0.0128
  119OSM    H6S12507   4.045   2.164   6.388  1.2202  0.1618  1.2346
  119OSM    H6T12508   4.069   2.084   6.547  0.0608 -0.0107  0.1113
  119OSM    C7S12509   3.895   2.011   6.446 -0.1625  0.1087 -0.6287
  119OSM    H7S12510   3.894   1.902   6.472  2.0453 -0.0457 -1.0210
  119OSM    H7T12511   3.855   2.028   6.344  0.3922 -2.7034 -1.4202
  119OSM    C8S12512   3.805   2.083   6.554 -0.1312  0.6369  0.3537
  119OSM    H8S12513   3.705   2.041   6.531 -0.1918  0.1489  1.4732
  119OSM    H8T12514   3.801   2.191   6.530  1.3903  0.3494 -1.5040
  119OSM    C9S12515   3.827   2.062   6.699 -0.0518  0.3077 -0.1059
  119OSM    H9S12516   3.935   2.082   6.713  0.4752 -1.1502 -1.8149
  119OSM    H9T12517   3.810   1.953   6.711 -0.4652  0.0235 -2.7682
  119OSM   C10S12518   3.752   2.159   6.798 -0.4887  0.9553 -0.4555
  119OSM   H10S12519   3.644   2.142   6.780 -0.5339  3.5856 -3.4163
  119OSM   H10T12520   3.781   2.263   6.773  0.1242  1.1673  0.9820
  119OSM   C11S12521   3.796   2.146   6.947  0.2509 -0.2720  0.1540
  119OSM   H11S12522   3.810   2.039   6.974  0.1423 -0.1341  0.7632
  119OSM   H11T12523   3.715   2.194   7.007 -0.0209  0.2677 -0.6276
  119OSM   C12S12524   3.922   2.228   6.981  0.4312 -0.4435 -0.1236
  119OSM   H12S12525   3.929   2.331   6.938  4.0711 -0.0518  1.0673
  119OSM   H12T12526   4.010   2.171   6.945  0.2968 -1.2133  0.7411
  119OSM   C13S12527   3.959   2.253   7.128  0.0923  0.0948 -0.4056
  119OSM   H13S12528   3.925   2.160   7.178 -3.0007  1.1624 -0.2616
  119OSM   H13T12529   3.898   2.336   7.170 -1.9095 -1.4373 -0.1015
  119OSM   C14S12530   4.102   2.306   7.169 -0.5971 -0.1756 -0.1505
  119OSM   H14S12531   4.101   2.337   7.275 -0.7512  1.5490 -0.6210
  119OSM   H14T12532   4.125   2.391   7.101  1.2677 -1.7511 -1.5851
  119OSM   C15S12533   4.211   2.198   7.139 -0.4722 -0.3423  0.3637
  119OSM   H15S12534   4.218   2.174   7.031  0.3877 -1.5543  0.6675
  119OSM   H15T12535   4.186   2.102   7.189 -1.5793 -1.7365 -2.6337
  119OSM   C16S12536   4.357   2.241   7.185  0.1978 -0.1535 -0.9037
  119OSM   H16S12537   4.385   2.315   7.107  2.8724 -1.2932 -1.1191
  119OSM   H16T12538   4.419   2.149   7.182 -0.9562 -1.0313  0.5309
  119OSM   C17S12539   4.364   2.302   7.319 -0.1098  0.0730  0.5919
  119OSM   H17S12540   4.308   2.241   7.393  0.6847 -1.0759  0.2690
  119OSM   H17T12541   4.308   2.397   7.320  2.0838  1.5417 -2.0016
  119OSM   C18S12542   4.502   2.341   7.368 -0.3430  0.7041 -0.0006
  119OSM   H18S12543   4.495   2.401   7.462 -0.7855 -0.4859  0.7429
  119OSM   H18T12544   4.539   2.403   7.284 -2.9174  1.0754 -0.9518
  119OSM   H18U12545   4.557   2.246   7.381 -0.1963  1.0463  2.2152
  119OSM    C1F12546   4.579   2.009   6.345 -0.1246 -0.6333 -0.4273
  119OSM     OF12547   4.633   2.090   6.274  0.6662  0.2874  0.0228
  119OSM    C2F12548   4.645   1.966   6.471  0.4133 -0.5429 -0.0213
  119OSM    H2F12549   4.673   1.858   6.469  1.1361 -0.4230  2.0078
  119OSM    H2G12550   4.573   1.981   6.553  0.7335  1.2548 -0.0350
  119OSM    C3F12551   4.758   2.058   6.524 -0.6637 -0.1837 -0.0116
  119OSM    H3F12552   4.722   2.163   6.536  3.2337  1.4646 -1.1409
  119OSM    H3G12553   4.851   2.071   6.465  0.5858 -0.7257  1.7847
  119OSM    C4F12554   4.794   2.024   6.668  0.0161 -0.1751  0.0224
  119OSM    H4F12555   4.828   1.919   6.673  0.7478  0.1150  1.8546
  119OSM    H4G12556   4.705   2.025   6.734 -1.1038  0.6738 -1.4328
  119OSM    C5F12557   4.912   2.105   6.719  0.2892  0.1476 -0.0998
  119OSM    H5F12558   4.981   2.129   6.636 -0.9647  0.9616 -0.9425
  119OSM    H5G12559   4.955   2.040   6.799 -2.7136 -1.5206  0.2867
  119OSM    C6F12560   4.876   2.239   6.791 -0.2579 -0.2196  0.7075
  119OSM    H6F12561   4.815   2.310   6.731 -0.8107  0.1959  1.7452
  119OSM    H6G12562   4.966   2.298   6.820 -0.5586  0.4453  0.3028
  119OSM    C7F12563   4.800   2.223   6.918  0.1808  0.6810  0.1414
  119OSM    H7F12564   4.866   2.162   6.984 -1.0584 -0.5333  0.3071
  119OSM    H7G12565   4.703   2.173   6.895 -0.0676  0.9400  0.6171
  119OSM    C8F12566   4.751   2.359   6.984  0.2138  0.5567 -0.4484
  119OSM    H8F12567   4.690   2.342   7.075 -1.9219 -2.7158 -2.3113
  119OSM    H8G12568   4.672   2.392   6.913 -1.8406 -0.3013  1.3172
  119OSM    C9F12569   4.861   2.465   7.017  0.5406  0.5507 -0.1546
  119OSM    H9F12570   4.966   2.431   7.022  0.2809 -0.1908  0.3169
  119OSM   C10F12571   4.829   2.592   7.050 -0.6098  0.0307 -0.1818
  119OSM   H10F12572   4.911   2.664   7.061  1.4273 -1.9672 -1.2987
  119OSM   C11F12573   4.691   2.646   7.045 -0.1885 -0.3910 -0.3050
  119OSM   H11F12574   4.616   2.582   6.993 -2.6472  1.0517  1.2724
  119OSM   H11G12575   4.697   2.736   6.981  0.2286  0.2098  0.5644
  119OSM   C12F12576   4.631   2.683   7.183  0.4860  0.6154 -0.6961
  119OSM   H12F12577   4.646   2.593   7.247  0.2586  0.0372 -1.4391
  119OSM   H12G12578   4.522   2.695   7.163  0.4446 -0.8477 -1.4600
  119OSM   C13F12579   4.701   2.808   7.247  0.5406 -0.7327  0.5641
  119OSM   H13F12580   4.684   2.903   7.192 -0.2215 -0.6013  1.0137
  119OSM   H13G12581   4.811   2.800   7.235  0.2404 -2.2237 -2.2647
  119OSM   C14F12582   4.664   2.836   7.392 -0.3056 -0.5431  0.4765
  119OSM   H14F12583   4.568   2.789   7.424 -0.4236 -0.2579  0.5395
  119OSM   H14G12584   4.668   2.947   7.397  0.2245 -0.4586 -1.2314
  119OSM   C15F12585   4.782   2.800   7.490  0.1797  0.5959 -0.0665
  119OSM   H15F12586   4.880   2.844   7.463  0.4002 -0.7732 -1.7120
  119OSM   H15G12587   4.788   2.689   7.484 -3.0510  0.3001  0.3798
  119OSM   C16F12588   4.754   2.824   7.643 -0.1112  0.4698 -0.5862
  119OSM   H16F12589   4.672   2.756   7.675  0.3006 -0.2641 -1.0432
  119OSM   H16G12590   4.730   2.929   7.669  1.1905  0.4666  0.7263
  119OSM   C17F12591   4.881   2.795   7.726  0.3933  0.4166 -0.5396
  119OSM   H17F12592   4.973   2.854   7.705  0.2283  0.1944 -2.0276
  119OSM   H17G12593   4.905   2.688   7.705  0.2240  0.1598  0.5247
  119OSM   C18F12594   4.848   2.795   7.870 -0.2424 -0.5296 -0.6189
  119OSM   H18F12595   4.919   2.735   7.932  0.4273 -0.0122 -0.8671
  119OSM   H18G12596   4.750   2.745   7.885 -0.8548  0.6136 -0.7769
  119OSM   H18H12597   4.836   2.889   7.927  0.4078 -1.5261  1.2824
  120OSM      N12598   5.787   3.467   6.373  0.0909 -0.0529 -0.0232
  120OSM    C1512599   5.787   3.351   6.277  0.4263 -0.1428 -0.4030
  120OSM   H15A12600   5.692   3.301   6.284  0.5601 -0.4359 -0.6349
  120OSM   H15B12601   5.860   3.274   6.298 -0.0647 -0.9655 -1.5840
  120OSM   H15C12602   5.812   3.378   6.175  0.8115 -0.1666 -0.3182
  120OSM    C1412603   5.917   3.539   6.343  0.6947 -0.2765  0.1183
  120OSM   H14A12604   6.011   3.488   6.355  0.2806 -0.9584  0.5737
  120OSM   H14B12605   5.912   3.631   6.400  1.0018 -0.1626 -0.0378
  120OSM   H14C12606   5.915   3.580   6.243  1.1263  1.3678  0.7505
  120OSM    C1312607   5.680   3.566   6.342 -0.1632  0.3160  0.0681
  120OSM   H13A12608   5.690   3.667   6.379 -0.1595  0.5989 -0.6872
  120OSM   H13B12609   5.589   3.517   6.375 -0.3722  0.0353 -0.9021
  120OSM   H13C12610   5.670   3.567   6.235  1.7121 -1.2155 -0.1891
  120OSM    C1212611   5.792   3.416   6.519 -0.4321  0.3289 -0.6582
  120OSM   H12A12612   5.703   3.357   6.536  0.3186 -1.1881 -1.6900
  120OSM   H12B12613   5.792   3.493   6.594  2.6834 -1.0713  0.9425
  120OSM    C1112614   5.921   3.337   6.565 -0.6922 -0.2372 -0.1321
  120OSM   H11A12615   5.908   3.311   6.672  0.7411  1.3776  0.4746
  120OSM   H11B12616   6.011   3.399   6.550  1.2725 -2.8618  0.0467
  120OSM      P12617   5.843   3.087   6.538 -0.2350  0.0378 -0.0004
  120OSM    O1312618   5.698   3.120   6.548  0.1964 -0.6225 -0.3105
  120OSM    O1412619   5.880   2.981   6.443  0.3238  0.0734 -0.2758
  120OSM    O1112620   5.892   3.046   6.675 -0.0133 -0.5354 -0.0677
  120OSM    O1212621   5.929   3.213   6.492  0.0128  0.2955 -0.1551
  120OSM    C1S12622   6.028   3.005   6.713  0.3166  0.8169 -0.3848
  120OSM    H1S12623   6.104   3.077   6.677  1.0653  0.0815 -0.2909
  120OSM    H1T12624   6.051   2.904   6.672  0.1467 -0.2023  1.8818
  120OSM     NF12625   6.168   2.971   6.910 -0.6547  0.2565  0.5923
  120OSM    HNF12626   6.187   2.875   6.929  0.3897  0.2252 -0.5261
  120OSM    C2S12627   6.032   2.990   6.864  0.3096 -1.1343  0.2800
  120OSM    H2S12628   5.987   3.079   6.913  0.7253 -1.0688  0.5490
  120OSM    C3S12629   5.928   2.873   6.908 -0.3840 -0.7812 -0.9744
  120OSM    H3S12630   5.953   2.777   6.858 -0.2060 -1.5078  0.4712
  120OSM     O312631   5.790   2.881   6.867 -0.4780  0.1895 -0.2723
  120OSM    HO312632   5.798   2.949   6.799 -1.9368  0.5525 -0.1133
  120OSM    C4S12633   5.935   2.860   7.061  0.6925  0.5445 -0.0972
  120OSM    H4S12634   6.020   2.795   7.086  0.2659 -0.1417 -0.4036
  120OSM    C5S12635   5.860   2.916   7.155  0.9086 -0.3127 -0.1125
  120OSM    H5S12636   5.781   2.985   7.123  0.8472  0.9472  2.4803
  120OSM    C6S12637   5.855   2.925   7.305 -0.3075  1.2334 -0.4849
  120OSM    H6S12638   5.763   2.868   7.332  1.6395 -1.6173  0.7055
  120OSM    H6T12639   5.855   3.025   7.354 -2.4729  1.9742 -1.8968
  120OSM    C7S12640   5.975   2.855   7.378 -0.0336  0.4634  0.1468
  120OSM    H7S12641   6.062   2.924   7.371  0.9935 -0.9808 -2.8111
  120OSM    H7T12642   5.999   2.758   7.329 -0.5455 -0.9923  2.5955
  120OSM    C8S12643   5.948   2.815   7.530 -0.1167 -0.5554 -0.0229
  120OSM    H8S12644   5.907   2.712   7.546 -0.2315 -0.1961  2.3590
  120OSM    H8T12645   5.881   2.885   7.585 -0.2668 -0.9960  0.3615
  120OSM    C9S12646   6.086   2.816   7.606  0.1079  0.0225  0.4600
  120OSM    H9S12647   6.133   2.915   7.587 -0.4733  0.1730 -0.2726
  120OSM    H9T12648   6.155   2.733   7.579  0.9693  0.5443  1.0229
  120OSM   C10S12649   6.077   2.820   7.759 -0.4279  0.2307 -0.2039
  120OSM   H10S12650   6.001   2.751   7.802 -0.8088  0.7616 -0.0137
  120OSM   H10T12651   6.060   2.919   7.806 -0.2186  0.6809 -1.0517
  120OSM   C11S12652   6.202   2.754   7.818 -0.2558 -0.2516 -0.1754
  120OSM   H11S12653   6.287   2.823   7.798 -0.6554 -0.0156 -1.1325
  120OSM   H11T12654   6.224   2.648   7.792  2.2190  0.0883  0.3630
  120OSM   C12S12655   6.186   2.758   7.978 -0.4328  0.3676  0.0768
  120OSM   H12S12656   6.107   2.691   8.017 -1.8379  2.3180  0.7477
  120OSM   H12T12657   6.168   2.860   8.018 -0.7067 -0.7938  3.1554
  120OSM   C13S12658   6.328   2.726   8.030  0.0328  0.0824 -0.4024
  120OSM   H13S12659   6.399   2.800   7.989 -2.8250  2.8098 -0.7944
  120OSM   H13T12660   6.366   2.630   7.991 -1.6266 -2.0817  2.8172
  120OSM   C14S12661   6.341   2.725   8.181 -0.6624 -0.0756 -0.0130
  120OSM   H14S12662   6.256   2.669   8.225 -0.5793 -0.0962  0.1225
  120OSM   H14T12663   6.340   2.834   8.203 -1.3206 -0.3262  1.2623
  120OSM   C15S12664   6.471   2.661   8.225  0.2829 -0.0063  0.1887
  120OSM   H15S12665   6.561   2.683   8.163  0.3593 -0.2197  0.2216
  120OSM   H15T12666   6.443   2.553   8.225  2.0593 -0.6425  3.9200
  120OSM   C16S12667   6.505   2.680   8.375 -0.2722  0.1998  0.3032
  120OSM   H16S12668   6.425   2.640   8.441 -1.7545  2.0255 -0.3214
  120OSM   H16T12669   6.496   2.790   8.387  2.1308  0.8169 -2.5582
  120OSM   C17S12670   6.644   2.634   8.414  0.0342 -0.0367 -0.6097
  120OSM   H17S12671   6.714   2.681   8.341 -0.3716  1.0863 -0.3052
  120OSM   H17T12672   6.654   2.524   8.401  2.0746  0.1096 -0.6572
  120OSM   C18S12673   6.702   2.692   8.544 -0.1862 -0.3739 -0.1656
  120OSM   H18S12674   6.646   2.669   8.637 -0.2858  0.1044 -0.1063
  120OSM   H18T12675   6.706   2.803   8.545 -2.5795 -0.2276 -0.7433
  120OSM   H18U12676   6.802   2.650   8.568 -0.8844 -1.9559  0.0770
  120OSM    C1F12677   6.248   3.072   6.923  0.0921  0.0528 -0.0065
  120OSM     OF12678   6.202   3.181   6.887  0.1068  0.5425  0.2264
  120OSM    C2F12679   6.385   3.064   6.986  0.6754 -0.3726  0.0451
  120OSM    H2F12680   6.376   3.055   7.097  0.4332  0.1401  0.0703
  120OSM    H2G12681   6.433   3.164   6.976  1.8665 -0.9596 -0.2815
  120OSM    C3F12682   6.470   2.944   6.933  0.0667  0.9042  0.3651
  120OSM    H3F12683   6.496   2.983   6.832 -0.6239  1.2933  0.3312
  120OSM    H3G12684   6.414   2.849   6.933 -1.8510  1.9689 -0.6690
  120OSM    C4F12685   6.603   2.927   7.012 -0.3675 -0.0249 -0.1529
  120OSM    H4F12686   6.630   3.017   7.072 -5.5702  1.5526  0.2532
  120OSM    H4G12687   6.682   2.892   6.942 -1.9766 -2.4623 -0.8489
  120OSM    C5F12688   6.609   2.820   7.117  0.0287 -0.2386  0.1606
  120OSM    H5F12689   6.717   2.804   7.137 -0.4380 -0.7429  2.6319
  120OSM    H5G12690   6.573   2.731   7.061  1.2922  0.0591 -1.1810
  120OSM    C6F12691   6.530   2.851   7.239  0.2713 -0.0004 -0.1487
  120OSM    H6F12692   6.420   2.844   7.223 -0.3711  0.4750  3.2159
  120OSM    H6G12693   6.549   2.952   7.280 -3.1321  0.3930  0.7972
  120OSM    C7F12694   6.551   2.742   7.348  0.3281  0.4493 -0.2478
  120OSM    H7F12695   6.655   2.756   7.383  0.2323 -0.7203  0.5666
  120OSM    H7G12696   6.524   2.652   7.289 -0.8074  1.9389 -2.1064
  120OSM    C8F12697   6.456   2.770   7.469  0.2026  0.6570  0.0477
  120OSM    H8F12698   6.346   2.771   7.454  0.0268  0.2558  1.1819
  120OSM    H8G12699   6.466   2.872   7.514 -2.4936  0.1729  2.0127
  120OSM    C9F12700   6.490   2.669   7.577 -0.7221  0.2075 -0.6169
  120OSM    H9F12701   6.426   2.579   7.571  0.4023 -0.6985  0.5108
  120OSM   C10F12702   6.554   2.683   7.692 -0.6522 -0.2185  0.0943
  120OSM   H10F12703   6.563   2.602   7.766  1.5422 -0.4559 -0.3754
  120OSM   C11F12704   6.623   2.810   7.742  0.1402  0.4230  1.2567
  120OSM   H11F12705   6.563   2.824   7.835 -0.5378 -1.4179  1.1367
  120OSM   H11G12706   6.606   2.896   7.674  0.7265 -0.7637 -0.4526
  120OSM   C12F12707   6.765   2.783   7.767 -0.6228  0.5740  0.4197
  120OSM   H12F12708   6.771   2.703   7.845 -1.3936 -2.0552 -2.0488
  120OSM   H12G12709   6.818   2.869   7.812  0.2436  0.1043  0.3278
  120OSM   C13F12710   6.839   2.724   7.641  0.1812 -0.5176 -0.0233
  120OSM   H13F12711   6.779   2.644   7.593  2.0184 -0.4936 -2.6051
  120OSM   H13G12712   6.926   2.664   7.674  0.6412  1.0590  1.8548
  120OSM   C14F12713   6.876   2.821   7.534 -0.6754 -0.3388 -0.1498
  120OSM   H14F12714   6.956   2.885   7.577 -0.0750  0.2256 -2.0072
  120OSM   H14G12715   6.795   2.893   7.509  1.1796  1.9774  0.0792
  120OSM   C15F12716   6.937   2.765   7.401 -0.4115 -0.3595  0.5992
  120OSM   H15F12717   6.855   2.733   7.333 -1.2334  2.4799  0.0795
  120OSM   H15G12718   7.005   2.679   7.416 -0.7379 -0.6322  0.5416
  120OSM   C16F12719   7.026   2.875   7.330  0.6265  0.3025  0.5017
  120OSM   H16F12720   7.114   2.888   7.397  1.5003 -0.9809 -0.3368
  120OSM   H16G12721   6.976   2.974   7.330  0.7359  0.3626 -0.4066
  120OSM   C17F12722   7.072   2.853   7.187  0.4075 -0.2479  0.1309
  120OSM   H17F12723   7.123   2.754   7.176 -1.2000 -1.1970  0.7944
  120OSM   H17G12724   7.155   2.921   7.160  0.1344  1.0307  2.3079
  120OSM   C18F12725   6.970   2.856   7.071  0.0508  0.1898  0.5573
  120OSM   H18F12726   6.897   2.938   7.089  0.7366  0.8290  0.4699
  120OSM   H18G12727   6.923   2.755   7.070  1.5830 -0.5551  0.5282
  120OSM   H18H12728   7.017   2.879   6.974  0.9344  1.5801  1.2736
  121OSM      N12729   2.365   1.175   5.979  0.3222  0.5559 -0.3719
  121OSM    C1512730   2.443   1.051   5.951  0.0401 -0.3453 -0.0995
  121OSM   H15A12731   2.479   1.049   5.849 -0.5528  1.1242 -0.3686
  121OSM   H15B12732   2.383   0.962   5.951  0.7782 -0.8905 -2.0060
  121OSM   H15C12733   2.529   1.047   6.017 -0.6168  1.5902  0.9706
  121OSM    C1412734   2.460   1.295   5.948 -0.0443  0.3765  0.0490
  121OSM   H14A12735   2.546   1.296   6.012 -1.3717  1.3255  1.9031
  121OSM   H14B12736   2.407   1.388   5.964 -1.0253 -0.4481  1.8424
  121OSM   H14C12737   2.486   1.296   5.843  1.8205 -0.8067  0.4698
  121OSM    C1312738   2.245   1.196   5.892  0.8255  0.7291  0.4798
  121OSM   H13A12739   2.166   1.142   5.941  3.2106 -0.1247  3.7519
  121OSM   H13B12740   2.256   1.176   5.786 -1.4448  1.8188 -0.0159
  121OSM   H13C12741   2.225   1.302   5.890  1.2330  0.8120 -1.1141
  121OSM    C1212742   2.325   1.177   6.130 -0.5724 -1.0066  0.3843
  121OSM   H12A12743   2.253   1.257   6.144  0.0136 -0.3841 -0.1153
  121OSM   H12B12744   2.402   1.211   6.198  0.2300 -3.1203  0.5985
  121OSM    C1112745   2.269   1.054   6.201  0.7682 -0.0341  0.0738
  121OSM   H11A12746   2.268   1.075   6.310 -1.0358  0.6471 -0.0458
  121OSM   H11B12747   2.328   0.961   6.191  1.2905  0.3895 -0.9031
  121OSM      P12748   2.010   1.105   6.234  0.0510  0.2168  0.1898
  121OSM    O1312749   2.033   1.249   6.221  0.5476  0.2810 -0.0684
  121OSM    O1412750   1.893   1.061   6.170  0.5052 -0.9199  0.5418
  121OSM    O1112751   2.009   1.059   6.383 -0.0842  0.2522 -0.7749
  121OSM    O1212752   2.131   1.029   6.163  0.3202  1.0680 -0.2931
  121OSM    C1S12753   2.014   0.914   6.403 -0.2772  0.2384 -0.0746
  121OSM    H1S12754   2.072   0.864   6.322 -0.7520  0.5113 -0.5934
  121OSM    H1T12755   1.917   0.868   6.371  0.1737  0.1195 -1.3418
  121OSM     NF12756   2.107   0.732   6.540 -0.6028 -0.6237 -0.6783
  121OSM    HNF12757   2.049   0.663   6.581 -0.4164 -0.2645  0.2270
  121OSM    C2S12758   2.059   0.870   6.547  0.4492  0.8608  0.5478
  121OSM    H2S12759   2.151   0.928   6.569  0.1637  0.4019  3.1759
  121OSM    C3S12760   1.938   0.901   6.637  0.7536 -0.4299 -0.8323
  121OSM    H3S12761   1.847   0.847   6.605 -0.1526 -0.0227  0.9244
  121OSM     O312762   1.889   1.038   6.626 -0.3025  0.3147  0.5882
  121OSM    HO312763   1.939   1.067   6.549  0.7208 -1.1835  0.6352
  121OSM    C4S12764   1.966   0.872   6.787 -0.1335 -0.1248  0.2344
  121OSM    H4S12765   1.944   0.769   6.819 -2.3012  0.2573  0.1566
  121OSM    C5S12766   2.009   0.962   6.879 -1.0138 -0.7616 -0.2502
  121OSM    H5S12767   2.010   1.067   6.846  0.0788 -0.6092  0.2208
  121OSM    C6S12768   2.051   0.940   7.022 -0.1794  0.5292 -0.2484
  121OSM    H6S12769   1.973   0.984   7.088  1.6510  1.1192  1.6217
  121OSM    H6T12770   2.145   0.994   7.043  0.0316  1.6215 -3.4299
  121OSM    C7S12771   2.068   0.793   7.065  0.2673 -0.5052  0.2048
  121OSM    H7S12772   2.150   0.737   7.015  0.6861  1.6779 -1.7450
  121OSM    H7T12773   1.969   0.746   7.043  0.8281 -2.1622  1.0843
  121OSM    C8S12774   2.082   0.778   7.217  1.0135  0.2932 -0.5274
  121OSM    H8S12775   2.090   0.671   7.247  2.5411  0.7502  0.9121
  121OSM    H8T12776   2.006   0.830   7.279 -0.0378  1.1728 -2.4870
  121OSM    C9S12777   2.212   0.824   7.263 -0.0270  0.0839 -0.6608
  121OSM    H9S12778   2.205   0.935   7.256 -3.0857  0.0182 -0.1026
  121OSM    H9T12779   2.291   0.784   7.196 -0.6843 -0.7827 -0.9322
  121OSM   C10S12780   2.230   0.786   7.410  0.1302  0.2477  0.6591
  121OSM   H10S12781   2.219   0.676   7.415 -1.3161  0.2503 -1.2790
  121OSM   H10T12782   2.146   0.836   7.463 -1.7654 -0.0941 -1.8150
  121OSM   C11S12783   2.359   0.816   7.484  0.1924 -0.7277  0.1010
  121OSM   H11S12784   2.361   0.923   7.513  0.5023 -0.5404 -0.6014
  121OSM   H11T12785   2.440   0.804   7.408  0.5458  1.4274  0.0878
  121OSM   C12S12786   2.378   0.731   7.608 -0.2153  0.0585 -0.1114
  121OSM   H12S12787   2.379   0.620   7.609  0.0161 -0.0435  3.6619
  121OSM   H12T12788   2.287   0.748   7.669  0.5044 -0.4895  1.1695
  121OSM   C13S12789   2.499   0.777   7.687 -0.4428 -0.6179 -0.0464
  121OSM   H13S12790   2.487   0.879   7.729 -0.2561 -0.9311  0.7770
  121OSM   H13T12791   2.588   0.777   7.621 -1.1638 -0.9149 -1.0449
  121OSM   C14S12792   2.534   0.676   7.805 -0.3109  0.3377  0.3310
  121OSM   H14S12793   2.614   0.721   7.868 -1.3521  0.3899  1.6393
  121OSM   H14T12794   2.570   0.582   7.758 -1.3220 -1.0921  2.2596
  121OSM   C15S12795   2.414   0.646   7.901 -0.0528  0.0736 -0.0588
  121OSM   H15S12796   2.329   0.609   7.839 -0.7829  1.8752 -0.2037
  121OSM   H15T12797   2.379   0.738   7.954  0.8988  1.2539 -1.3958
  121OSM   C16S12798   2.455   0.546   8.007 -0.1559 -0.8597 -0.6432
  121OSM   H16S12799   2.537   0.598   8.060  0.8074 -1.2577 -1.7153
  121OSM   H16T12800   2.490   0.446   7.972  0.5444 -0.3157 -1.5298
  121OSM   C17S12801   2.335   0.531   8.103  0.9691 -0.4973  0.0775
  121OSM   H17S12802   2.250   0.492   8.043 -1.8218  1.6620  2.3509
  121OSM   H17T12803   2.295   0.631   8.128 -0.7182 -1.1057 -0.0578
  121OSM   C18S12804   2.341   0.443   8.228  0.2679  0.5252  0.4813
  121OSM   H18S12805   2.423   0.474   8.296  1.1199 -1.1726  0.2957
  121OSM   H18T12806   2.353   0.339   8.190 -1.5191  0.3929  0.1707
  121OSM   H18U12807   2.246   0.448   8.285  0.0423  0.0208  0.1621
  121OSM    C1F12808   2.221   0.698   6.475 -0.0753  0.6026  0.2481
  121OSM     OF12809   2.287   0.783   6.417  0.2163 -0.2848  0.1436
  121OSM    C2F12810   2.269   0.552   6.495 -0.1731  0.4904  0.0667
  121OSM    H2F12811   2.316   0.534   6.396  2.3003  2.2226  0.8262
  121OSM    H2G12812   2.175   0.496   6.517 -1.2183  2.7285  1.6534
  121OSM    C3F12813   2.379   0.532   6.600 -0.5898 -0.1566  0.2893
  121OSM    H3F12814   2.470   0.592   6.576  1.1493 -2.6814  0.2610
  121OSM    H3G12815   2.422   0.430   6.595  3.9164  1.5877 -1.8738
  121OSM    C4F12816   2.328   0.563   6.740  0.0130 -0.0458  0.6622
  121OSM    H4F12817   2.238   0.505   6.770 -1.9240  1.3791 -1.9727
  121OSM    H4G12818   2.301   0.671   6.748  0.3529 -0.0721  2.7759
  121OSM    C5F12819   2.444   0.541   6.841  0.1609 -0.5820  0.3562
  121OSM    H5F12820   2.540   0.585   6.807 -0.1938  0.5793  0.8054
  121OSM    H5G12821   2.468   0.433   6.844 -0.5833 -0.7443  0.6586
  121OSM    C6F12822   2.402   0.590   6.984  0.0257 -0.0756 -0.6305
  121OSM    H6F12823   2.307   0.542   7.014 -0.1493  1.1962  0.9288
  121OSM    H6G12824   2.382   0.698   6.967  1.7342  0.5671  1.1135
  121OSM    C7F12825   2.503   0.580   7.100 -0.2240 -0.7556 -0.1370
  121OSM    H7F12826   2.477   0.655   7.178 -0.6395 -0.9501 -0.0851
  121OSM    H7G12827   2.596   0.630   7.066 -0.9270  0.9786  0.3981
  121OSM    C8F12828   2.546   0.433   7.142  0.2448  0.1917 -0.2194
  121OSM    H8F12829   2.634   0.436   7.210 -0.7561  1.2295  1.0927
  121OSM    H8G12830   2.582   0.392   7.045  0.7464 -0.2924  0.1611
  121OSM    C9F12831   2.431   0.349   7.196  0.0429  0.2651 -0.2008
  121OSM    H9F12832   2.367   0.302   7.119 -1.5380 -1.3944  1.9933
  121OSM   C10F12833   2.404   0.302   7.323  0.7738 -0.4578  0.6744
  121OSM   H10F12834   2.327   0.228   7.346 -0.4531  0.7197  0.4607
  121OSM   C11F12835   2.493   0.335   7.438  0.2388  0.3685 -1.0277
  121OSM   H11F12836   2.434   0.389   7.516 -0.9337 -1.2430 -0.7655
  121OSM   H11G12837   2.573   0.409   7.414 -0.1351  1.3773  0.5838
  121OSM   C12F12838   2.563   0.215   7.498  0.1496  0.5808  0.3730
  121OSM   H12F12839   2.628   0.168   7.421  1.7465  0.4179  1.7651
  121OSM   H12G12840   2.493   0.139   7.538 -2.0359  2.4085  0.2004
  121OSM   C13F12841   2.663   0.251   7.615 -0.4533 -0.3227  0.1910
  121OSM   H13F12842   2.608   0.324   7.677  0.9396  1.7122 -0.8723
  121OSM   H13G12843   2.751   0.305   7.575  1.0091 -0.6609  2.7581
  121OSM   C14F12844   2.711   0.129   7.697  0.2795 -0.5788 -0.1892
  121OSM   H14F12845   2.776   0.068   7.630  0.0271 -2.2958  1.0542
  121OSM   H14G12846   2.633   0.059   7.734  2.1185 -2.4244  0.4334
  121OSM   C15F12847   2.777   0.165   7.823 -0.3624  0.1473 -0.4315
  121OSM   H15F12848   2.702   0.209   7.892 -1.7103 -3.1622  0.4046
  121OSM   H15G12849   2.863   0.234   7.806  0.7125 -0.7995  0.8921
  121OSM   C16F12850   2.828   0.042   7.893 -0.2639  0.3216 -0.3923
  121OSM   H16F12851   2.887  -0.026   7.827 -1.1395 -1.5077  0.6148
  121OSM   H16G12852   2.740  -0.016   7.929 -1.0594  2.0646  0.5957
  121OSM   C17F12853   2.922   0.078   8.014  0.3897  0.2775  0.4603
  121OSM   H17F12854   3.010   0.139   7.984  1.6458 -0.5627  2.2885
  121OSM   H17G12855   2.954  -0.017   8.061 -0.7473  0.2574  1.2406
  121OSM   C18F12856   2.867   0.165   8.126 -0.9454  0.2542 -0.1841
  121OSM   H18F12857   2.933   0.169   8.215 -1.3664 -0.1113  0.1463
  121OSM   H18G12858   2.767   0.128   8.156 -0.2492 -3.3686 -1.8021
  121OSM   H18H12859   2.858   0.270   8.089  1.1348  0.4738 -0.1984
  122OSM      N12860   1.098   2.555   6.255 -0.4721 -0.0640 -0.2556
  122OSM    C1512861   1.213   2.602   6.172  0.8867 -0.1690  0.5217
  122OSM   H15A12862   1.245   2.516   6.115 -0.7449 -0.1854 -0.4283
  122OSM   H15B12863   1.304   2.619   6.228  1.0620 -1.7158  0.7620
  122OSM   H15C12864   1.181   2.680   6.105 -2.1709 -3.2178 -1.9448
  122OSM    C1412865   1.146   2.440   6.339  0.4712 -0.6000  0.3660
  122OSM   H14A12866   1.167   2.358   6.272  1.7292  0.8877 -1.1324
  122OSM   H14B12867   1.074   2.411   6.414  0.1970  2.0368  1.2023
  122OSM   H14C12868   1.241   2.457   6.389  1.2575 -2.8609 -0.2483
  122OSM    C1312869   1.061   2.669   6.357 -0.0386 -0.4499  0.5329
  122OSM   H13A12870   1.043   2.763   6.308 -0.0709 -0.5964  0.2592
  122OSM   H13B12871   1.135   2.686   6.434  1.1134  1.7742 -0.9771
  122OSM   H13C12872   0.971   2.640   6.410 -0.4103 -0.2178  0.0386
  122OSM    C1212873   0.980   2.517   6.172  0.2538  0.0741 -0.0471
  122OSM   H12A12874   0.968   2.590   6.093  1.0873 -0.5870 -0.8080
  122OSM   H12B12875   0.892   2.515   6.235  2.1841  0.7432  2.8957
  122OSM    C1112876   0.997   2.386   6.091  0.1598  0.3407  0.0116
  122OSM   H11A12877   1.094   2.382   6.036 -0.4424 -2.3257 -1.0070
  122OSM   H11B12878   0.920   2.392   6.012  1.7074 -1.7268 -1.7732
  122OSM      P12879   0.830   2.234   6.209  0.2709  0.3304 -0.1970
  122OSM    O1312880   0.765   2.353   6.269  0.1650 -0.1289 -0.3471
  122OSM    O1412881   0.748   2.172   6.099 -0.1552  0.2657 -0.1125
  122OSM    O1112882   0.853   2.119   6.326  0.0942 -0.2438 -0.4360
  122OSM    O1212883   0.974   2.266   6.165  0.4755  0.1314 -0.0007
  122OSM    C1S12884   0.962   2.132   6.417 -0.3969 -0.6724 -0.0856
  122OSM    H1S12885   0.980   2.241   6.429  0.3216 -0.5443 -1.9434
  122OSM    H1T12886   1.053   2.083   6.377  0.4153  1.2901 -0.8074
  122OSM     NF12887   1.055   2.105   6.642 -0.0594 -0.2387 -0.4145
  122OSM    HNF12888   1.114   2.031   6.672 -0.5266 -0.9304 -1.1919
  122OSM    C2S12889   0.944   2.068   6.553 -0.3379  1.5495 -0.8977
  122OSM    H2S12890   0.849   2.101   6.601  0.4799  0.1688  1.9110
  122OSM    C3S12891   0.924   1.914   6.543  0.1355 -0.5390  0.2372
  122OSM    H3S12892   1.026   1.876   6.522  0.1026  0.4340 -1.9318
  122OSM     O312893   0.841   1.878   6.433 -0.6814  0.3050  0.0919
  122OSM    HO312894   0.821   1.963   6.395 -1.4382  0.5865  1.0793
  122OSM    C4S12895   0.877   1.854   6.675 -0.2364  0.1792  0.9626
  122OSM    H4S12896   0.962   1.833   6.742  2.1753 -1.6224 -2.3760
  122OSM    C5S12897   0.753   1.822   6.715  0.2367 -0.2892 -0.0527
  122OSM    H5S12898   0.675   1.837   6.639  1.4344 -1.2727 -1.5455
  122OSM    C6S12899   0.722   1.767   6.846  0.4265  0.3235 -0.5066
  122OSM    H6S12900   0.669   1.670   6.837 -0.9463  1.1547 -1.6190
  122OSM    H6T12901   0.645   1.834   6.891  0.4989  0.2905 -0.3317
  122OSM    C7S12902   0.831   1.751   6.953  0.7173  0.0548 -0.3819
  122OSM    H7S12903   0.890   1.846   6.957  0.5461  0.1331  3.3789
  122OSM    H7T12904   0.894   1.672   6.907 -1.0963 -0.7154 -1.6571
  122OSM    C8S12905   0.787   1.714   7.088 -0.6115  0.6924  0.3931
  122OSM    H8S12906   0.740   1.614   7.090 -1.4634  0.9327 -2.7021
  122OSM    H8T12907   0.711   1.781   7.135  0.1320  2.6049 -0.9740
  122OSM    C9S12908   0.900   1.721   7.195 -0.1382 -0.0281  0.0631
  122OSM    H9S12909   0.930   1.826   7.216 -0.9529  0.1354  0.4566
  122OSM    H9T12910   0.985   1.659   7.160 -0.6281  0.3323 -1.8586
  122OSM   C10S12911   0.847   1.675   7.334  0.2372 -0.0384 -0.4750
  122OSM   H10S12912   0.814   1.570   7.317 -0.2457 -0.4291  2.2817
  122OSM   H10T12913   0.765   1.741   7.371  0.6201 -0.0866  0.5016
  122OSM   C11S12914   0.963   1.683   7.435  0.2563  0.0570  0.5746
  122OSM   H11S12915   0.997   1.783   7.399 -0.4921  0.0834 -0.0980
  122OSM   H11T12916   1.038   1.605   7.408 -0.8907  0.0711 -3.3550
  122OSM   C12S12917   0.920   1.681   7.583 -0.1314 -0.2975  0.1670
  122OSM   H12S12918   0.915   1.578   7.624  1.9996  0.1353  1.6917
  122OSM   H12T12919   0.818   1.725   7.590  0.9576  2.5395 -0.2273
  122OSM   C13S12920   1.022   1.770   7.662  0.1190  0.6497 -0.7071
  122OSM   H13S12921   0.973   1.805   7.756 -0.3415 -1.8793  0.0776
  122OSM   H13T12922   1.053   1.859   7.604  0.7326  0.3683 -0.8142
  122OSM   C14S12923   1.146   1.685   7.707 -0.6286 -0.7264  0.7351
  122OSM   H14S12924   1.183   1.619   7.625 -1.1246 -1.0880  0.7987
  122OSM   H14T12925   1.121   1.620   7.793  0.6315 -3.0460 -0.5653
  122OSM   C15S12926   1.262   1.782   7.745 -0.4421 -0.0379  0.3637
  122OSM   H15S12927   1.310   1.814   7.650  0.3630 -0.6089  0.5672
  122OSM   H15T12928   1.341   1.732   7.806  1.6621  3.2282  0.5629
  122OSM   C16S12929   1.220   1.915   7.817  0.1969  0.0370  0.2303
  122OSM   H16S12930   1.140   1.898   7.892 -1.4480 -0.9346 -1.6457
  122OSM   H16T12931   1.187   1.996   7.747 -3.0948 -0.7658  0.6881
  122OSM   C17S12932   1.343   1.975   7.881  0.0661 -0.2233 -0.0481
  122OSM   H17S12933   1.414   1.992   7.798 -1.8438  0.4977 -1.6043
  122OSM   H17T12934   1.374   1.902   7.960 -0.3599 -2.1661 -1.5860
  122OSM   C18S12935   1.318   2.113   7.942 -0.0766  0.2057  0.5301
  122OSM   H18S12936   1.273   2.176   7.863  2.1200 -0.2801 -1.2217
  122OSM   H18T12937   1.399   2.176   7.986  0.1454 -2.6050  4.7553
  122OSM   H18U12938   1.242   2.097   8.021 -0.3877  0.9616  0.3892
  122OSM    C1F12939   1.091   2.233   6.670  0.2309 -0.5388  0.2230
  122OSM     OF12940   1.023   2.332   6.639 -0.5640  0.7987  0.7305
  122OSM    C2F12941   1.227   2.243   6.732  0.0816  0.4036  0.0884
  122OSM    H2F12942   1.301   2.216   6.654  0.0362 -0.7066  0.4176
  122OSM    H2G12943   1.221   2.164   6.810  0.1897  0.2748 -0.0335
  122OSM    C3F12944   1.249   2.381   6.800 -0.6287 -0.2967  0.4093
  122OSM    H3F12945   1.175   2.383   6.883 -0.6879 -0.1740  0.3531
  122OSM    H3G12946   1.226   2.473   6.741  0.2487  0.3513  1.0602
  122OSM    C4F12947   1.392   2.377   6.867  0.0266  0.3328 -0.3817
  122OSM    H4F12948   1.456   2.425   6.789  0.1518  0.2579 -0.3247
  122OSM    H4G12949   1.426   2.272   6.881  0.2360  0.4762  0.2265
  122OSM    C5F12950   1.409   2.442   6.998  0.1956 -0.4207 -0.6420
  122OSM    H5F12951   1.393   2.552   7.002 -2.2119 -0.7474  0.9133
  122OSM    H5G12952   1.518   2.434   7.016  0.0564 -0.7731  0.0762
  122OSM    C6F12953   1.333   2.374   7.111 -0.5953 -0.0720  0.0612
  122OSM    H6F12954   1.332   2.263   7.100  0.4291 -0.1816  0.9206
  122OSM    H6G12955   1.229   2.413   7.117 -0.7070 -0.2293 -0.6834
  122OSM    C7F12956   1.392   2.401   7.255  0.2032  0.5974  0.1236
  122OSM    H7F12957   1.417   2.506   7.281  1.6770  0.1752  0.4913
  122OSM    H7G12958   1.494   2.359   7.252  0.0815  0.3425 -0.7603
  122OSM    C8F12959   1.312   2.348   7.370  0.5030 -0.3975  0.0931
  122OSM    H8F12960   1.373   2.351   7.462  1.1974  0.2230 -0.3806
  122OSM    H8G12961   1.275   2.245   7.353 -1.2752  0.2847 -0.4399
  122OSM    C9F12962   1.199   2.436   7.409  0.3856  0.1796  0.2629
  122OSM    H9F12963   1.141   2.470   7.322  2.2893  1.7644 -0.4488
  122OSM   C10F12964   1.162   2.468   7.528 -0.2758  0.1844 -0.2550
  122OSM   H10F12965   1.071   2.528   7.533  0.3511  1.5523 -3.1752
  122OSM   C11F12966   1.217   2.430   7.660 -0.3931  0.2195 -0.1546
  122OSM   H11F12967   1.309   2.492   7.665 -1.7104  2.5165 -2.1341
  122OSM   H11G12968   1.245   2.324   7.674  1.5182  0.6831 -0.1337
  122OSM   C12F12969   1.131   2.489   7.776 -0.1599 -0.2437  0.2989
  122OSM   H12F12970   1.036   2.432   7.779 -0.3731 -0.1360 -2.2538
  122OSM   H12G12971   1.105   2.597   7.764  1.1872  0.1361  0.6748
  122OSM   C13F12972   1.203   2.479   7.908  0.4634  0.3094 -0.0852
  122OSM   H13F12973   1.308   2.511   7.890  1.4620 -1.7087  1.6747
  122OSM   H13G12974   1.209   2.373   7.938 -3.2569  0.7107  2.7670
  122OSM   C14F12975   1.133   2.551   8.019 -0.4779  0.4819  0.1542
  122OSM   H14F12976   1.030   2.508   8.021 -0.9039  1.4449 -0.3495
  122OSM   H14G12977   1.125   2.660   8.002 -1.7449  0.5221  0.8587
  122OSM   C15F12978   1.196   2.517   8.156  0.2729  0.2656  0.4173
  122OSM   H15F12979   1.291   2.573   8.166  1.3982 -1.6141  0.6616
  122OSM   H15G12980   1.220   2.409   8.155 -0.9743 -0.0544  1.4330
  122OSM   C16F12981   1.110   2.544   8.277  0.4265  0.1297  0.5215
  122OSM   H16F12982   1.005   2.508   8.274 -0.0817  1.6058 -0.8809
  122OSM   H16G12983   1.102   2.655   8.279  0.7113  0.2377 -1.7546
  122OSM   C17F12984   1.173   2.490   8.407 -0.0447 -0.1272 -0.6070
  122OSM   H17F12985   1.104   2.528   8.485 -0.4832  0.9654 -1.5032
  122OSM   H17G12986   1.259   2.550   8.442  0.1445 -0.1793 -0.9815
  122OSM   C18F12987   1.218   2.350   8.408  0.5281  0.2863 -0.5031
  122OSM   H18F12988   1.133   2.282   8.387  0.0822 -0.1674  2.3625
  122OSM   H18G12989   1.246   2.308   8.507  0.3225  0.5007 -0.3517
  122OSM   H18H12990   1.304   2.335   8.340 -0.5998  1.2847 -2.2356
  123OSM      N12991   6.746   4.685   6.157 -0.3462  0.8120  0.1880
  123OSM    C1512992   6.795   4.561   6.094  0.3395  0.1874  0.9705
  123OSM   H15A12993   6.759   4.541   5.994  0.6438  0.3480  0.8264
  123OSM   H15B12994   6.774   4.479   6.161  0.4506  0.1698  0.9849
  123OSM   H15C12995   6.901   4.572   6.075 -0.0870  1.7575 -0.8626
  123OSM    C1412996   6.781   4.803   6.065  0.6986 -0.0302  0.4157
  123OSM   H14A12997   6.879   4.801   6.020  1.0893 -1.0070  1.2838
  123OSM   H14B12998   6.784   4.896   6.119  0.2271 -1.4749  3.0626
  123OSM   H14C12999   6.705   4.815   5.989 -0.1502 -1.5677  0.9843
  123OSM    C1313000   6.598   4.675   6.157  0.3128  0.3483  0.1182
  123OSM   H13A13001   6.554   4.608   6.230  0.0151  0.2026 -0.1880
  123OSM   H13B13002   6.559   4.640   6.063 -1.0028  0.2443  0.6718
  123OSM   H13C13003   6.545   4.768   6.171 -1.3823  0.0732 -3.4494
  123OSM    C1213004   6.799   4.699   6.295 -1.0840 -0.3691 -0.0033
  123OSM   H12A13005   6.907   4.693   6.297 -1.1367 -1.6312 -0.2745
  123OSM   H12B13006   6.762   4.625   6.365  2.2872 -0.4526  1.9036
  123OSM    C1113007   6.753   4.826   6.376 -0.4718  0.0522 -0.0301
  123OSM   H11A13008   6.787   4.799   6.478 -1.3314 -3.9255 -0.6306
  123OSM   H11B13009   6.645   4.836   6.354 -0.4925 -0.1376 -0.0151
  123OSM      P13010   6.797   5.082   6.395 -0.3610  0.1414  0.0416
  123OSM    O1313011   6.922   5.153   6.431  0.0239 -0.4033  0.1460
  123OSM    O1413012   6.708   5.143   6.299  0.5981 -0.4795 -0.1490
  123OSM    O1113013   6.718   5.057   6.533 -0.1751 -0.6686  0.1072
  123OSM    O1213014   6.833   4.941   6.336  0.2449 -0.8014  0.2561
  123OSM    C1S13015   6.768   5.128   6.651  0.6995  0.5851 -0.4065
  123OSM    H1S13016   6.785   5.236   6.635  1.5398  0.5423  0.1372
  123OSM    H1T13017   6.861   5.088   6.695  0.0494  0.1090  0.5775
  123OSM     NF13018   6.718   5.223   6.873 -0.1220  0.8558 -0.2774
  123OSM    HNF13019   6.761   5.184   6.954 -1.4740 -0.2666 -0.0742
  123OSM    C2S13020   6.674   5.133   6.771 -0.4322  0.0811  0.4232
  123OSM    H2S13021   6.573   5.171   6.743  0.0076  0.4815 -0.6868
  123OSM    C3S13022   6.649   4.984   6.820  0.1091  0.1973  0.2315
  123OSM    H3S13023   6.749   4.945   6.849  1.8859  3.1970 -1.3096
  123OSM     O313024   6.610   4.901   6.711  0.1986 -0.1015 -0.7125
  123OSM    HO313025   6.639   4.952   6.636 -2.0634  1.3035 -0.7463
  123OSM    C4S13026   6.553   4.969   6.938  0.2632 -0.0253  0.1151
  123OSM    H4S13027   6.603   4.979   7.036  2.1410  1.0929 -0.9211
  123OSM    C5S13028   6.421   4.962   6.930 -0.2512 -0.5212  0.7109
  123OSM    H5S13029   6.372   4.951   6.833  0.5600  0.1144  0.2166
  123OSM    C6S13030   6.339   4.949   7.049  0.4355 -0.8838 -0.1229
  123OSM    H6S13031   6.306   4.844   7.059 -1.4172 -0.7133 -3.1449
  123OSM    H6T13032   6.255   5.019   7.025  0.4632 -0.5107  0.8116
  123OSM    C7S13033   6.382   5.000   7.188  0.5425 -0.4536  0.7020
  123OSM    H7S13034   6.400   5.110   7.192  1.0461 -0.4574 -0.8160
  123OSM    H7T13035   6.480   4.950   7.205 -0.4128 -2.6468  0.1059
  123OSM    C8S13036   6.291   4.960   7.305 -0.3690 -0.3215 -0.0821
  123OSM    H8S13037   6.362   4.977   7.389 -0.7144 -0.5438  0.2558
  123OSM    H8T13038   6.260   4.853   7.303 -0.0237 -0.4272  0.0659
  123OSM    C9S13039   6.172   5.064   7.320  0.4730  0.3873  0.7188
  123OSM    H9S13040   6.126   5.052   7.220  0.7217 -1.8862  0.8149
  123OSM    H9T13041   6.207   5.168   7.333 -0.3371  0.9827 -1.4707
  123OSM   C10S13042   6.074   5.035   7.432  0.0913 -0.3368  0.0247
  123OSM   H10S13043   6.042   4.930   7.416 -0.6768 -0.5563  2.5934
  123OSM   H10T13044   5.983   5.096   7.417  0.7577  0.8079  0.5064
  123OSM   C11S13045   6.132   5.074   7.565  0.4557 -0.2805  0.1846
  123OSM   H11S13046   6.192   5.166   7.552  0.7931 -0.4703  0.3913
  123OSM   H11T13047   6.190   4.985   7.598 -0.1248 -0.8064 -0.1769
  123OSM   C12S13048   6.031   5.072   7.678 -0.2324  0.9302 -0.3763
  123OSM   H12S13049   5.993   4.968   7.673  3.6289 -0.7043  0.5796
  123OSM   H12T13050   5.943   5.138   7.661 -0.6385  0.3565 -0.5263
  123OSM   C13S13051   6.104   5.087   7.814 -0.0418  0.2331  0.0886
  123OSM   H13S13052   6.131   5.194   7.821 -1.8670  0.8709 -1.7113
  123OSM   H13T13053   6.191   5.019   7.827 -0.7920 -0.5195  1.4163
  123OSM   C14S13054   5.998   5.068   7.925  1.3649  0.0834  0.2672
  123OSM   H14S13055   5.923   4.989   7.904  1.4152  0.4825 -1.5941
  123OSM   H14T13056   5.933   5.158   7.927  1.0768  0.0197 -2.3458
  123OSM   C15S13057   6.060   5.034   8.062  0.2137  0.3760 -0.1702
  123OSM   H15S13058   6.129   5.116   8.090  0.5872  0.7488 -2.0137
  123OSM   H15T13059   6.106   4.934   8.052 -0.5646 -0.1015  0.8258
  123OSM   C16S13060   5.950   5.006   8.169  0.3410 -0.2006  0.1210
  123OSM   H16S13061   5.874   4.937   8.127 -0.5567  0.6125  0.3712
  123OSM   H16T13062   5.887   5.096   8.186  0.9796 -0.1643  2.8378
  123OSM   C17S13063   6.015   4.954   8.306 -0.1741 -0.1686  0.1013
  123OSM   H17S13064   6.090   4.876   8.280  1.8948  1.8858 -0.4880
  123OSM   H17T13065   5.932   4.909   8.364  0.2982  3.2413  3.9268
  123OSM   C18S13066   6.088   5.070   8.379  0.1626 -0.1646  0.3631
  123OSM   H18S13067   6.027   5.159   8.402  1.0074  0.2669  0.9924
  123OSM   H18T13068   6.189   5.087   8.335 -0.8337  1.0650 -1.5939
  123OSM   H18U13069   6.110   5.035   8.482 -3.8241 -0.8269  1.1217
  123OSM    C1F13070   6.717   5.354   6.857 -0.7046 -0.1384 -0.3037
  123OSM     OF13071   6.680   5.409   6.752  0.4903  0.9240  0.1585
  123OSM    C2F13072   6.770   5.437   6.967 -0.2923  0.0843  0.1347
  123OSM    H2F13073   6.875   5.405   6.988 -0.7217 -0.4690  1.6160
  123OSM    H2G13074   6.709   5.416   7.058  0.9422 -0.9927  0.7578
  123OSM    C3F13075   6.784   5.591   6.937  0.3454 -0.2376 -0.2657
  123OSM    H3F13076   6.684   5.639   6.932  1.2164  1.7947  0.6494
  123OSM    H3G13077   6.841   5.613   6.843  0.3942  0.7120 -0.0212
  123OSM    C4F13078   6.849   5.677   7.044 -0.0332 -0.3148 -0.4447
  123OSM    H4F13079   6.877   5.780   7.011  2.1050 -0.1644  1.5678
  123OSM    H4G13080   6.944   5.629   7.074 -0.2414 -0.1554  0.4931
  123OSM    C5F13081   6.776   5.676   7.176 -0.2692 -0.4320 -0.7707
  123OSM    H5F13082   6.740   5.578   7.214  2.5279 -0.5814  1.8247
  123OSM    H5G13083   6.696   5.751   7.158  0.5555  0.9130  0.9428
  123OSM    C6F13084   6.863   5.731   7.283  0.9412  0.3522 -0.6558
  123OSM    H6F13085   6.935   5.803   7.239  3.1576 -0.0710  1.9852
  123OSM    H6G13086   6.934   5.659   7.330 -0.0374  1.3882  2.7023
  123OSM    C7F13087   6.778   5.783   7.401  0.0022  0.4478  0.8167
  123OSM    H7F13088   6.706   5.701   7.421 -3.1289  2.4105 -1.5253
  123OSM    H7G13089   6.702   5.857   7.370  0.0361  0.7166  1.3434
  123OSM    C8F13090   6.852   5.852   7.518  0.7223  0.2403 -0.2076
  123OSM    H8F13091   6.783   5.921   7.571 -2.0057 -2.4079 -0.0572
  123OSM    H8G13092   6.932   5.916   7.474  3.4503 -2.5330  0.3158
  123OSM    C9F13093   6.916   5.753   7.610 -0.0104  0.5523  0.2452
  123OSM    H9F13094   6.918   5.649   7.574  2.2056  0.3694  0.7907
  123OSM   C10F13095   6.963   5.774   7.734 -0.0886  0.2134  0.0830
  123OSM   H10F13096   7.011   5.695   7.794  1.9887  0.5020 -1.1025
  123OSM   C11F13097   6.963   5.905   7.800  0.2067 -0.0809 -0.4203
  123OSM   H11F13098   6.865   5.956   7.791 -0.0829 -0.0722  2.0967
  123OSM   H11G13099   7.034   5.977   7.754  1.7115 -1.7232 -0.7913
  123OSM   C12F13100   6.958   5.901   7.959 -0.9976  0.2518 -0.0815
  123OSM   H12F13101   7.058   5.861   7.987 -0.6119 -2.3079 -4.3096
  123OSM   H12G13102   6.882   5.827   7.990 -0.5694 -1.3446 -2.5177
  123OSM   C13F13103   6.936   6.041   8.029 -0.3965  0.0025  0.1613
  123OSM   H13F13104   6.838   6.089   8.007 -0.2226  1.1549  1.7404
  123OSM   H13G13105   7.015   6.110   7.992  0.6711 -1.9653 -1.4656
  123OSM   C14F13106   6.949   6.039   8.180 -0.1954  0.4154  0.5114
  123OSM   H14F13107   7.054   6.009   8.199 -0.0010  1.4666  1.1725
  123OSM   H14G13108   6.871   5.971   8.219  1.4359 -1.6368  0.3538
  123OSM   C15F13109   6.933   6.176   8.251  0.3299  0.4117  1.0006
  123OSM   H15F13110   6.826   6.199   8.234  0.3753  0.1776  0.3907
  123OSM   H15G13111   6.984   6.253   8.190  0.0577 -0.7484 -0.7324
  123OSM   C16F13112   6.967   6.182   8.398  0.4419  0.1889  0.6215
  123OSM   H16F13113   6.935   6.282   8.435 -0.0096  0.9710 -1.7090
  123OSM   H16G13114   7.078   6.179   8.399  0.4350 -2.7835  0.5959
  123OSM   C17F13115   6.892   6.074   8.479  0.4795  0.5225 -0.2155
  123OSM   H17F13116   6.928   5.969   8.467  0.3526  0.5649 -1.0568
  123OSM   H17G13117   6.788   6.070   8.441  0.8805 -0.1619 -1.3003
  123OSM   C18F13118   6.913   6.102   8.633  0.1890 -0.2575  0.1821
  123OSM   H18F13119   6.867   6.201   8.657 -1.1813 -0.8037 -0.0620
  123OSM   H18G13120   7.019   6.095   8.666  1.1252  1.4727 -2.2004
  123OSM   H18H13121   6.853   6.026   8.688 -1.0653  1.1905  0.9335
  124OSM      N13122   3.346   3.468   5.931 -0.1457  0.2032  0.4316
  124OSM    C1513123   3.355   3.571   5.830  0.3145  0.3183  0.3181
  124OSM   H15A13124   3.268   3.633   5.843 -0.1859  0.0865 -1.6240
  124OSM   H15B13125   3.348   3.527   5.731  0.5349  2.0012 -0.4720
  124OSM   H15C13126   3.445   3.628   5.849  0.3190  0.4294 -0.0421
  124OSM    C1413127   3.231   3.380   5.897  0.7461  0.7071  0.1099
  124OSM   H14A13128   3.243   3.332   5.801  0.2965  3.0411 -1.2008
  124OSM   H14B13129   3.138   3.435   5.894 -0.2052 -0.8613 -0.4205
  124OSM   H14C13130   3.223   3.306   5.975 -0.7393  0.9523  0.2248
  124OSM    C1313131   3.469   3.385   5.923  0.0551  0.2223 -0.1926
  124OSM   H13A13132   3.559   3.442   5.936 -2.0027  3.5356  0.6700
  124OSM   H13B13133   3.474   3.343   5.824 -1.3462  1.1161 -0.6775
  124OSM   H13C13134   3.467   3.305   5.996  0.3528  0.4870  0.1077
  124OSM    C1213135   3.323   3.531   6.063 -0.0278  0.7000 -0.5978
  124OSM   H12A13136   3.245   3.606   6.054  0.5555  1.2428 -1.2705
  124OSM   H12B13137   3.418   3.579   6.083  0.1843  0.4074 -0.8942
  124OSM    C1113138   3.311   3.445   6.183 -0.0535 -0.5077 -0.6159
  124OSM   H11A13139   3.229   3.371   6.171  0.6626 -1.7008  1.3615
  124OSM   H11B13140   3.282   3.508   6.270 -1.2667 -1.8901  0.0210
  124OSM      P13141   3.557   3.415   6.272 -0.3530 -0.1084 -0.3956
  124OSM    O1313142   3.672   3.349   6.220 -0.5141 -0.2875 -0.5479
  124OSM    O1413143   3.559   3.563   6.266  0.2143  0.5660  0.4592
  124OSM    O1113144   3.537   3.371   6.426 -0.2481  0.3226  0.9334
  124OSM    O1213145   3.423   3.363   6.203 -0.1082  0.2828 -0.2783
  124OSM    C1S13146   3.452   3.251   6.455 -0.3974 -0.2525  0.5991
  124OSM    H1S13147   3.508   3.163   6.416 -1.8812  0.3395 -3.3667
  124OSM    H1T13148   3.357   3.255   6.398  0.7752 -0.7116 -1.5120
  124OSM     NF13149   3.333   3.110   6.630  0.3616 -0.2461 -0.2380
  124OSM    HNF13150   3.241   3.130   6.661 -0.9003 -2.4734 -2.1739
  124OSM    C2S13151   3.416   3.226   6.600  0.4700  0.5923  0.6634
  124OSM    H2S13152   3.513   3.204   6.650  1.4924  0.2685 -1.3627
  124OSM    C3S13153   3.365   3.352   6.665  0.1621 -0.8561 -0.3101
  124OSM    H3S13154   3.276   3.394   6.614  2.5670  1.4827 -2.9734
  124OSM     O313155   3.456   3.467   6.659  0.8766 -0.3317 -0.2297
  124OSM    HO313156   3.506   3.453   6.578  0.0724 -0.1560 -0.7694
  124OSM    C4S13157   3.348   3.330   6.815  0.1571  0.5628  0.1825
  124OSM    H4S13158   3.423   3.261   6.858  0.7102  1.5020  0.7708
  124OSM    C5S13159   3.240   3.359   6.896 -0.6314 -0.2994  0.2770
  124OSM    H5S13160   3.150   3.403   6.851  0.1197  1.2411  0.2138
  124OSM    C6S13161   3.222   3.328   7.043 -0.4229  0.4007 -0.5123
  124OSM    H6S13162   3.244   3.424   7.096  2.5468 -0.3303 -0.2967
  124OSM    H6T13163   3.294   3.267   7.102 -2.8897 -0.8570  1.4141
  124OSM    C7S13164   3.080   3.293   7.103 -0.1615  0.2648 -0.0967
  124OSM    H7S13165   3.044   3.201   7.054 -1.6338 -0.0577  1.5136
  124OSM    H7T13166   3.010   3.374   7.073  1.7416  1.5538 -1.2943
  124OSM    C8S13167   3.057   3.267   7.253 -0.1155  0.9243 -0.3366
  124OSM    H8S13168   3.080   3.164   7.287  0.5503  0.3559 -2.3562
  124OSM    H8T13169   2.954   3.302   7.276 -0.9821 -0.3294 -2.0103
  124OSM    C9S13170   3.150   3.353   7.344  0.0019 -0.7459 -0.6295
  124OSM    H9S13171   3.108   3.455   7.360  0.5007 -0.8597  1.8384
  124OSM    H9T13172   3.254   3.367   7.307  0.5473  0.9067  1.3251
  124OSM   C10S13173   3.168   3.284   7.490 -0.1597 -0.5732  0.6013
  124OSM   H10S13174   3.218   3.187   7.469 -0.9159 -0.4577 -2.1323
  124OSM   H10T13175   3.062   3.256   7.507 -0.0106 -1.5383  0.0317
  124OSM   C11S13176   3.234   3.369   7.600  0.2213  0.6945  0.4944
  124OSM   H11S13177   3.186   3.468   7.616 -1.8795  0.0923 -1.5717
  124OSM   H11T13178   3.344   3.377   7.582  0.2501  1.2900  0.8806
  124OSM   C12S13179   3.239   3.288   7.733 -0.0518  0.1151  0.0591
  124OSM   H12S13180   3.303   3.344   7.805  1.2358 -1.6216  0.3196
  124OSM   H12T13181   3.271   3.186   7.705  0.4508  1.4366 -5.2958
  124OSM   C13S13182   3.107   3.267   7.812 -0.2002  0.4154  0.0356
  124OSM   H13S13183   3.037   3.230   7.734  0.8444 -0.8987 -0.3363
  124OSM   H13T13184   3.073   3.369   7.838 -1.1968  0.3927 -1.0891
  124OSM   C14S13185   3.119   3.171   7.933 -0.0032  0.8639 -0.0385
  124OSM   H14S13186   3.208   3.200   7.993  1.1025  1.4550 -1.8940
  124OSM   H14T13187   3.136   3.070   7.889 -2.2958  0.0490  0.8129
  124OSM   C15S13188   3.001   3.156   8.030 -0.5288  0.4189  0.1098
  124OSM   H15S13189   2.917   3.099   7.985  0.4741 -0.0384 -1.2481
  124OSM   H15T13190   2.968   3.256   8.066  0.4281  1.0286 -0.6305
  124OSM   C16S13191   3.045   3.079   8.153 -0.1909 -0.5795 -0.5424
  124OSM   H16S13192   3.122   3.127   8.218 -0.7777 -2.2276  1.4757
  124OSM   H16T13193   3.092   2.983   8.121 -1.9599 -1.8260  0.4520
  124OSM   C17S13194   2.939   3.034   8.244 -0.0196 -0.7974 -0.9146
  124OSM   H17S13195   2.991   3.028   8.342  0.8394  0.2146 -1.2903
  124OSM   H17T13196   2.908   2.928   8.232  2.0172 -1.7098  1.1241
  124OSM   C18S13197   2.818   3.124   8.251  0.5909 -0.0034 -0.6605
  124OSM   H18S13198   2.848   3.230   8.265  0.4844 -0.2295  1.6189
  124OSM   H18T13199   2.750   3.094   8.334 -0.2661  0.5734 -1.1441
  124OSM   H18U13200   2.761   3.104   8.158  2.0433 -1.1426 -1.3731
  124OSM    C1F13201   3.362   2.980   6.602  0.4633 -0.6455 -0.8329
  124OSM     OF13202   3.445   2.938   6.522 -0.0187 -0.5703 -0.2561
  124OSM    C2F13203   3.272   2.883   6.665  0.3719 -0.6961 -0.5597
  124OSM    H2F13204   3.304   2.782   6.632 -0.0821 -1.1849  0.4356
  124OSM    H2G13205   3.168   2.897   6.631 -0.1243  1.3206  1.5008
  124OSM    C3F13206   3.270   2.876   6.823  0.2483 -0.1594 -0.3182
  124OSM    H3F13207   3.223   2.967   6.865 -0.9252 -0.1591 -1.5664
  124OSM    H3G13208   3.378   2.861   6.848  0.1679  0.8755  0.6910
  124OSM    C4F13209   3.198   2.752   6.871 -0.7258  0.2342  0.1941
  124OSM    H4F13210   3.214   2.662   6.808 -1.3509  0.9471 -1.0211
  124OSM    H4G13211   3.090   2.774   6.853 -0.6817  1.8256  1.6415
  124OSM    C5F13212   3.221   2.711   7.018  0.8536 -0.0032  0.3416
  124OSM    H5F13213   3.329   2.688   7.029  1.0027  0.5145 -0.0099
  124OSM    H5G13214   3.154   2.625   7.038 -3.2082  2.8393  0.1328
  124OSM    C6F13215   3.186   2.829   7.119 -0.6050 -0.3625 -0.9283
  124OSM    H6F13216   3.078   2.849   7.104 -0.6589 -1.8597 -3.0747
  124OSM    H6G13217   3.243   2.924   7.115 -1.7425  0.5520  1.9759
  124OSM    C7F13218   3.187   2.776   7.265 -0.2736  0.1560  0.1128
  124OSM    H7F13219   3.126   2.683   7.260  2.0044 -1.4099 -0.1268
  124OSM    H7G13220   3.132   2.834   7.342 -1.4147  1.2205 -1.4327
  124OSM    C8F13221   3.325   2.737   7.318 -0.1107  0.6828 -0.0010
  124OSM    H8F13222   3.381   2.667   7.253  1.4869  2.1921 -0.3280
  124OSM    H8G13223   3.312   2.674   7.409  0.1985  0.6506  0.0251
  124OSM    C9F13224   3.409   2.862   7.353  0.5986 -0.2462  1.0475
  124OSM    H9F13225   3.464   2.890   7.262  1.2521 -1.0789  1.1758
  124OSM   C10F13226   3.415   2.928   7.468 -0.0128 -1.1984  0.5414
  124OSM   H10F13227   3.471   3.022   7.477  0.8562 -1.9113  3.5040
  124OSM   C11F13228   3.335   2.894   7.587  0.6354 -0.1311 -0.2042
  124OSM   H11F13229   3.263   2.813   7.565  1.7597 -0.7826 -1.6763
  124OSM   H11G13230   3.282   2.989   7.612  0.3857  0.7488 -3.5604
  124OSM   C12F13231   3.413   2.841   7.708 -0.3012 -0.2423  0.0562
  124OSM   H12F13232   3.492   2.912   7.740  0.0992  0.5738 -2.5344
  124OSM   H12G13233   3.460   2.749   7.669  0.4067  0.2134 -0.1817
  124OSM   C13F13234   3.339   2.795   7.831  0.2069 -0.5536 -1.0666
  124OSM   H13F13235   3.242   2.746   7.807  0.2822 -1.1042 -0.2898
  124OSM   H13G13236   3.317   2.889   7.887 -1.4576  0.6703 -3.5755
  124OSM   C14F13237   3.419   2.699   7.930 -0.4246 -0.0022  0.8515
  124OSM   H14F13238   3.505   2.763   7.955  3.4401 -3.5637 -1.8884
  124OSM   H14G13239   3.455   2.615   7.867  0.5975  1.3651 -0.4292
  124OSM   C15F13240   3.350   2.661   8.062  0.1068 -0.3407  1.2881
  124OSM   H15F13241   3.289   2.571   8.041 -0.1782 -0.2772  1.8188
  124OSM   H15G13242   3.296   2.746   8.110  0.2090 -1.4792  3.5649
  124OSM   C16F13243   3.452   2.632   8.175  0.4877  0.1867  0.7416
  124OSM   H16F13244   3.510   2.718   8.213  0.8266 -0.8535  2.7027
  124OSM   H16G13245   3.529   2.558   8.144  0.1890  0.0658  0.2798
  124OSM   C17F13246   3.379   2.573   8.298  0.0986 -1.1115  0.5567
  124OSM   H17F13247   3.290   2.631   8.330  0.7239 -0.6875  1.5723
  124OSM   H17G13248   3.453   2.567   8.381  2.2041 -0.0163 -1.1364
  124OSM   C18F13249   3.341   2.430   8.260 -0.2737  0.5191  0.3710
  124OSM   H18F13250   3.265   2.438   8.179  0.4969  1.6830 -0.2724
  124OSM   H18G13251   3.292   2.376   8.343  2.7620 -1.3252  1.1146
  124OSM   H18H13252   3.434   2.383   8.221 -1.6442 -0.9058 -1.3104
  125OSM      N13253   2.212   5.551   5.786 -0.6212  0.2195 -0.1561
  125OSM    C1513254   2.306   5.507   5.684 -0.6862 -0.9549 -0.0706
  125OSM   H15A13255   2.254   5.479   5.593 -2.4694 -1.4618  1.0381
  125OSM   H15B13256   2.370   5.425   5.713  1.1514  0.1783 -0.7706
  125OSM   H15C13257   2.370   5.591   5.661 -0.2952 -1.0166  0.7589
  125OSM    C1413258   2.133   5.659   5.727  0.0722 -0.1991  0.1385
  125OSM   H14A13259   2.073   5.628   5.643 -0.5949  1.6827 -0.1202
  125OSM   H14B13260   2.198   5.734   5.683  1.0315 -1.9529 -1.5490
  125OSM   H14C13261   2.062   5.706   5.793  0.9873 -0.3980  1.3117
  125OSM    C1313262   2.112   5.443   5.831 -0.2648 -0.1868  0.3813
  125OSM   H13A13263   2.038   5.486   5.896 -0.6134  1.0328 -0.7710
  125OSM   H13B13264   2.170   5.370   5.886  0.8806  0.4576  0.0765
  125OSM   H13C13265   2.066   5.405   5.741  2.1375 -0.7489 -0.7037
  125OSM    C1213266   2.286   5.605   5.902  0.5998  0.5153 -0.3035
  125OSM   H12A13267   2.220   5.610   5.987  1.6325  1.9626  0.4558
  125OSM   H12B13268   2.318   5.706   5.882 -1.8091  1.5323  0.6076
  125OSM    C1113269   2.419   5.528   5.941 -0.1765  0.1754  0.1110
  125OSM   H11A13270   2.465   5.580   6.028  2.2921  0.5192 -1.3300
  125OSM   H11B13271   2.492   5.537   5.859 -1.6422 -0.5875 -1.3332
  125OSM      P13272   2.494   5.279   6.009 -0.0723  0.4433 -0.0212
  125OSM    O1313273   2.462   5.162   5.925  0.5977 -0.3251  0.5402
  125OSM    O1413274   2.632   5.333   6.003 -0.2263  0.4360 -0.3855
  125OSM    O1113275   2.453   5.255   6.160 -0.0987 -0.2099  0.3042
  125OSM    O1213276   2.388   5.392   5.971 -0.6080 -0.0002 -0.0233
  125OSM    C1S13277   2.323   5.298   6.204 -0.6894  0.7207 -0.0374
  125OSM    H1S13278   2.248   5.243   6.144 -0.5800 -1.0043  1.3333
  125OSM    H1T13279   2.308   5.407   6.188 -0.3620  0.7572 -0.0915
  125OSM     NF13280   2.158   5.308   6.379 -0.2915 -1.1715  0.6101
  125OSM    HNF13281   2.136   5.397   6.420 -2.1368 -0.9422 -0.7679
  125OSM    C2S13282   2.297   5.277   6.357  0.2524  0.0768 -0.2252
  125OSM    H2S13283   2.323   5.174   6.389  1.6599  0.6587  0.6011
  125OSM    C3S13284   2.407   5.372   6.421 -0.5471  0.5202 -0.6308
  125OSM    H3S13285   2.394   5.471   6.372 -0.7143  0.3036 -1.0358
  125OSM     O313286   2.535   5.318   6.395 -0.7226 -0.3484 -0.2812
  125OSM    HO313287   2.513   5.269   6.315 -0.7378  0.2869 -0.6784
  125OSM    C4S13288   2.384   5.378   6.568 -0.5812  0.6983 -0.5068
  125OSM    H4S13289   2.410   5.283   6.618 -0.5522  0.8427 -0.2442
  125OSM    C5S13290   2.327   5.476   6.645 -0.0041 -0.3179  0.0192
  125OSM    H5S13291   2.299   5.570   6.596  2.3525  0.5759  0.2775
  125OSM    C6S13292   2.295   5.475   6.795 -0.0922 -0.2131 -0.0187
  125OSM    H6S13293   2.197   5.524   6.813  0.1867  1.3083 -2.1793
  125OSM    H6T13294   2.375   5.542   6.833  1.2115 -1.0859 -1.1243
  125OSM    C7S13295   2.300   5.345   6.872 -0.1759  0.4113  0.3608
  125OSM    H7S13296   2.373   5.269   6.837 -1.1140 -0.3061 -0.1112
  125OSM    H7T13297   2.198   5.303   6.857  0.1033  0.1986 -1.0386
  125OSM    C8S13298   2.310   5.375   7.024 -0.8566  1.1077 -0.3953
  125OSM    H8S13299   2.218   5.427   7.058 -1.5125 -1.0069  1.3128
  125OSM    H8T13300   2.394   5.447   7.033 -0.4446  0.7540 -1.3418
  125OSM    C9S13301   2.344   5.245   7.100 -0.4569 -0.0287  0.3334
  125OSM    H9S13302   2.425   5.185   7.055  3.6140  2.8345  3.0476
  125OSM    H9T13303   2.255   5.180   7.108 -0.3134 -0.0639  2.3005
  125OSM   C10S13304   2.397   5.273   7.243 -0.4092 -1.0888  1.1112
  125OSM   H10S13305   2.441   5.375   7.240  0.5855 -1.5041  1.1203
  125OSM   H10T13306   2.482   5.206   7.266  0.7936 -0.0575 -0.1540
  125OSM   C11S13307   2.294   5.274   7.354 -0.0727 -0.4099 -0.4237
  125OSM   H11S13308   2.259   5.170   7.368 -0.7698 -0.0306  0.7274
  125OSM   H11T13309   2.211   5.337   7.315  0.8985  1.5850  0.5406
  125OSM   C12S13310   2.351   5.336   7.484  0.2827 -0.0329 -0.0564
  125OSM   H12S13311   2.365   5.446   7.481  1.8804 -0.1694  1.0642
  125OSM   H12T13312   2.453   5.295   7.497  0.4560  0.0141 -1.1377
  125OSM   C13S13313   2.269   5.288   7.607 -0.0780 -0.7637  0.6933
  125OSM   H13S13314   2.273   5.178   7.596  0.3627 -0.5014 -3.0089
  125OSM   H13T13315   2.163   5.318   7.595  0.0052  0.4394  2.5358
  125OSM   C14S13316   2.315   5.339   7.747 -0.8119 -0.0726 -0.3395
  125OSM   H14S13317   2.303   5.449   7.751 -1.0121 -0.0767 -0.7198
  125OSM   H14T13318   2.425   5.324   7.757 -1.1646 -1.0949  3.6170
  125OSM   C15S13319   2.247   5.285   7.872 -0.4495 -0.0440  0.3278
  125OSM   H15S13320   2.270   5.177   7.887 -0.5568  0.1647  2.3449
  125OSM   H15T13321   2.137   5.305   7.877 -0.3378  1.6053 -2.1171
  125OSM   C16S13322   2.317   5.344   7.996 -0.6806  0.3579 -0.2560
  125OSM   H16S13323   2.295   5.452   7.995  0.4707  0.6363 -2.7350
  125OSM   H16T13324   2.426   5.328   7.987 -0.7823 -1.5880  1.0801
  125OSM   C17S13325   2.278   5.285   8.134 -0.0183  1.0248 -0.1999
  125OSM   H17S13326   2.318   5.182   8.136  2.2877  1.5474 -4.9781
  125OSM   H17T13327   2.167   5.282   8.136 -0.0561  1.5102 -1.1704
  125OSM   C18S13328   2.326   5.369   8.244  0.6890 -0.0809 -0.1534
  125OSM   H18S13329   2.288   5.473   8.235 -1.8072 -0.9032 -0.0752
  125OSM   H18T13330   2.437   5.375   8.246  0.6249  1.6985 -0.3119
  125OSM   H18U13331   2.283   5.336   8.341 -1.2716  0.2650 -0.8532
  125OSM    C1F13332   2.065   5.222   6.346 -0.3373 -0.3748 -0.0303
  125OSM     OF13333   2.086   5.122   6.287 -0.8353 -0.4672 -0.3327
  125OSM    C2F13334   1.923   5.258   6.380 -0.6321 -0.4015  0.5940
  125OSM    H2F13335   1.849   5.194   6.326 -0.8975 -1.1249  1.7805
  125OSM    H2G13336   1.907   5.365   6.353  0.7496  0.2241  2.1362
  125OSM    C3F13337   1.890   5.232   6.533  0.5465 -0.6171 -0.0734
  125OSM    H3F13338   1.981   5.261   6.590  1.0750  1.0531 -1.6609
  125OSM    H3G13339   1.872   5.122   6.540 -0.6406 -0.5275 -1.2386
  125OSM    C4F13340   1.768   5.314   6.580  0.2855  0.5703  0.0961
  125OSM    H4F13341   1.684   5.241   6.584  0.2010  0.6105 -0.7091
  125OSM    H4G13342   1.739   5.392   6.506 -1.1187 -0.5216 -0.5599
  125OSM    C5F13343   1.795   5.388   6.715  0.1078 -0.5056  0.5468
  125OSM    H5F13344   1.712   5.459   6.737 -0.1148 -1.2403  2.2808
  125OSM    H5G13345   1.886   5.451   6.709  0.1085 -0.5603 -0.0836
  125OSM    C6F13346   1.791   5.291   6.835  0.0005 -0.1190 -0.5176
  125OSM    H6F13347   1.850   5.204   6.799  0.6180 -0.1085  0.4480
  125OSM    H6G13348   1.688   5.259   6.859  0.3197  0.2088  1.3936
  125OSM    C7F13349   1.855   5.339   6.966 -0.7346  0.4019 -1.0183
  125OSM    H7F13350   1.797   5.418   7.018 -1.6567  1.4169 -3.4315
  125OSM    H7G13351   1.955   5.382   6.942 -1.4528  2.5736 -0.3133
  125OSM    C8F13352   1.866   5.220   7.065  0.2784  0.3482 -0.2283
  125OSM    H8F13353   1.903   5.118   7.039 -2.5329 -1.1609  1.1667
  125OSM    H8G13354   1.760   5.206   7.096  0.0949  1.1317 -0.5036
  125OSM    C9F13355   1.953   5.266   7.180  0.0730  0.7793  0.2703
  125OSM    H9F13356   2.057   5.261   7.147 -0.3402  0.7418 -1.0969
  125OSM   C10F13357   1.919   5.295   7.306 -0.6248  0.0952  0.6133
  125OSM   H10F13358   1.997   5.329   7.375 -0.1282 -1.1504  0.6875
  125OSM   C11F13359   1.781   5.298   7.366  0.4327  0.1557 -0.1238
  125OSM   H11F13360   1.711   5.235   7.307  0.8105 -0.2170 -0.1780
  125OSM   H11G13361   1.740   5.401   7.373 -0.4770 -0.0719 -1.6671
  125OSM   C12F13362   1.800   5.253   7.506  0.1064  0.3833  0.5116
  125OSM   H12F13363   1.862   5.321   7.567 -0.7188 -1.5972  3.8448
  125OSM   H12G13364   1.854   5.156   7.505 -0.2179  0.1965 -1.3769
  125OSM   C13F13365   1.662   5.249   7.572 -0.9472 -0.3691 -0.1014
  125OSM   H13F13366   1.591   5.193   7.508 -1.7601 -1.2012  1.4456
  125OSM   H13G13367   1.618   5.351   7.576  1.3285  0.7815 -2.0393
  125OSM   C14F13368   1.670   5.186   7.712  0.0057 -0.7598 -0.1399
  125OSM   H14F13369   1.740   5.100   7.715  1.5949  0.5222  1.3707
  125OSM   H14G13370   1.574   5.146   7.752 -0.3962  0.1532 -0.1644
  125OSM   C15F13371   1.721   5.289   7.816  0.5927 -0.0313 -0.2864
  125OSM   H15F13372   1.634   5.352   7.846 -0.2306 -1.5595  0.6857
  125OSM   H15G13373   1.798   5.351   7.765  2.0305 -0.3737  1.3745
  125OSM   C16F13374   1.791   5.220   7.937  0.1398 -0.2199  0.2114
  125OSM   H16F13375   1.886   5.182   7.892 -0.0939 -3.3305  2.0386
  125OSM   H16G13376   1.732   5.134   7.974  0.2922 -0.8727 -1.0358
  125OSM   C17F13377   1.825   5.318   8.045 -0.8753  0.2384 -0.6456
  125OSM   H17F13378   1.730   5.372   8.066 -1.7357 -1.2374 -0.5374
  125OSM   H17G13379   1.899   5.394   8.013  0.1570  0.2475  1.6039
  125OSM   C18F13380   1.880   5.240   8.161 -0.2727 -0.8392 -0.1060
  125OSM   H18F13381   1.894   5.307   8.248 -0.3098 -0.5863 -0.2950
  125OSM   H18G13382   1.986   5.207   8.149 -0.7796 -2.1827 -1.2352
  125OSM   H18H13383   1.813   5.153   8.179  0.3722 -1.6620 -1.5083
  126OSM      N13384   5.858   4.356   6.240  0.6000 -0.0198  0.1227
  126OSM    C1513385   5.784   4.363   6.107 -0.0821  0.6372  0.0026
  126OSM   H15A13386   5.848   4.323   6.029 -0.5379 -0.3667  0.1334
  126OSM   H15B13387   5.747   4.463   6.092 -1.5279 -0.0609 -1.3984
  126OSM   H15C13388   5.691   4.309   6.113  0.7805 -0.8262  1.1181
  126OSM    C1413389   5.910   4.219   6.254  0.0117  0.7278 -0.0611
  126OSM   H14A13390   5.836   4.141   6.239  2.6017 -1.5713 -1.9707
  126OSM   H14B13391   5.950   4.215   6.355 -1.9708 -2.4433  0.7539
  126OSM   H14C13392   5.988   4.183   6.188 -1.2712 -0.6974 -0.8618
  126OSM    C1313393   5.978   4.446   6.219 -0.2902  0.0007  0.4316
  126OSM   H13A13394   5.947   4.537   6.170 -0.3406  1.5962  3.1855
  126OSM   H13B13395   6.032   4.396   6.140  0.9255  0.2951  1.0612
  126OSM   H13C13396   6.039   4.466   6.306  2.0771  1.5019 -1.4512
  126OSM    C1213397   5.762   4.404   6.348 -0.3272 -0.8189 -0.2360
  126OSM   H12A13398   5.693   4.324   6.374  0.4043 -1.1883  0.5844
  126OSM   H12B13399   5.696   4.475   6.300 -1.4870 -0.7819  1.3370
  126OSM    C1113400   5.812   4.466   6.472  0.3903  0.3303 -0.2572
  126OSM   H11A13401   5.892   4.400   6.511  0.9282  1.7567  1.1954
  126OSM   H11B13402   5.734   4.469   6.551  1.2166 -1.4802  0.6775
  126OSM      P13403   5.797   4.721   6.414 -0.0407 -0.3737  0.0892
  126OSM    O1313404   5.888   4.834   6.394  0.1139 -0.4389  0.2317
  126OSM    O1413405   5.691   4.692   6.312 -0.1953  0.3240  0.1515
  126OSM    O1113406   5.727   4.739   6.556 -0.1174 -0.0035 -0.0040
  126OSM    O1213407   5.877   4.591   6.441  0.2635 -0.0211  0.4801
  126OSM    C1S13408   5.811   4.755   6.674  0.5182  0.8216  0.8209
  126OSM    H1S13409   5.885   4.836   6.658  0.8024  0.1069 -2.3257
  126OSM    H1T13410   5.858   4.658   6.699 -1.2971 -0.0906  0.8795
  126OSM     NF13411   5.795   4.843   6.899 -0.1517 -0.3871  0.5627
  126OSM    HNF13412   5.844   4.775   6.953  0.9332 -1.0917 -1.2210
  126OSM    C2S13413   5.722   4.785   6.794  0.2201 -0.2404 -0.1180
  126OSM    H2S13414   5.637   4.851   6.768  1.3558  1.4804  0.3887
  126OSM    C3S13415   5.647   4.651   6.838 -0.4856 -0.3044  0.1983
  126OSM    H3S13416   5.716   4.572   6.872 -0.3039  0.2327  1.1027
  126OSM     O313417   5.577   4.609   6.722 -0.2253  0.3078  0.0146
  126OSM    HO313418   5.618   4.644   6.643 -2.3627  0.1332 -1.2523
  126OSM    C4S13419   5.548   4.673   6.943  0.5942  0.4681  0.1196
  126OSM    H4S13420   5.498   4.769   6.925 -1.2174 -0.0890  1.7510
  126OSM    C5S13421   5.519   4.608   7.059 -0.4474 -0.5129 -0.7902
  126OSM    H5S13422   5.580   4.521   7.088  0.2974  0.4311  0.6381
  126OSM    C6S13423   5.419   4.651   7.164 -0.7145  0.5019  0.4593
  126OSM    H6S13424   5.329   4.586   7.171 -0.5895  0.2667 -0.0443
  126OSM    H6T13425   5.375   4.744   7.122 -0.0698  0.9199  0.6935
  126OSM    C7S13426   5.478   4.679   7.304 -0.9364  0.1443 -0.0621
  126OSM    H7S13427   5.560   4.753   7.315 -1.7979  1.1284 -0.1752
  126OSM    H7T13428   5.508   4.578   7.339 -1.5507  0.2320  0.7320
  126OSM    C8S13429   5.364   4.715   7.400 -0.5716  0.5559  0.2023
  126OSM    H8S13430   5.294   4.629   7.406  1.5604 -1.6054 -2.8030
  126OSM    H8T13431   5.293   4.795   7.368 -1.7059 -0.2841  0.5289
  126OSM    C9S13432   5.421   4.748   7.533  0.9683 -0.1002  0.2571
  126OSM    H9S13433   5.470   4.847   7.521 -0.6594  0.4392 -3.1642
  126OSM    H9T13434   5.485   4.659   7.552 -0.2641 -1.5069 -1.6966
  126OSM   C10S13435   5.308   4.761   7.634 -0.3749 -0.4403  0.1096
  126OSM   H10S13436   5.244   4.670   7.628  1.4931 -1.9951  1.9724
  126OSM   H10T13437   5.246   4.851   7.610 -0.6326 -0.5600  0.3110
  126OSM   C11S13438   5.336   4.768   7.785  0.7795 -0.4702 -0.3150
  126OSM   H11S13439   5.395   4.859   7.809  0.9173 -0.7983  0.5936
  126OSM   H11T13440   5.394   4.677   7.808  1.3738  0.3240  1.4621
  126OSM   C12S13441   5.208   4.783   7.873  0.2710  0.1236 -0.3799
  126OSM   H12S13442   5.137   4.698   7.880  2.8331 -2.0707  0.9283
  126OSM   H12T13443   5.153   4.871   7.833  2.6119  2.6114  1.4837
  126OSM   C13S13444   5.237   4.821   8.019 -0.0967 -0.3588  0.0078
  126OSM   H13S13445   5.274   4.925   8.031 -1.8414  0.1540  1.4663
  126OSM   H13T13446   5.313   4.749   8.055 -1.7492 -1.7146  0.9112
  126OSM   C14S13447   5.112   4.812   8.102  0.5849 -0.1460 -0.0215
  126OSM   H14S13448   5.088   4.704   8.092 -1.6959  0.3574 -0.3683
  126OSM   H14T13449   5.027   4.869   8.061 -0.0353  0.6979  2.2972
  126OSM   C15S13450   5.113   4.857   8.247 -0.0797  0.0138 -0.5710
  126OSM   H15S13451   5.140   4.962   8.269  1.4695 -0.7071  1.2613
  126OSM   H15T13452   5.191   4.794   8.295  2.4057  2.2522 -1.4351
  126OSM   C16S13453   4.980   4.810   8.310 -0.1709  0.1155 -0.7111
  126OSM   H16S13454   4.990   4.699   8.309  1.9876  0.2522 -2.4422
  126OSM   H16T13455   4.894   4.838   8.246  0.6996 -1.4852 -2.6920
  126OSM   C17S13456   4.956   4.846   8.459  0.6023 -0.4858 -0.3926
  126OSM   H17S13457   4.878   4.783   8.508  2.0008 -1.2613  0.9404
  126OSM   H17T13458   4.927   4.953   8.462  0.0328 -0.5933 -1.6870
  126OSM   C18S13459   5.083   4.824   8.540 -0.2808 -0.2621 -0.0923
  126OSM   H18S13460   5.158   4.907   8.543  0.9118 -1.3166  2.3117
  126OSM   H18T13461   5.135   4.732   8.506  1.5839  0.9782 -0.7835
  126OSM   H18U13462   5.053   4.806   8.646 -2.4320  1.2353 -0.3824
  126OSM    C1F13463   5.828   4.977   6.895  0.5850 -0.0263  0.1007
  126OSM     OF13464   5.763   5.042   6.815 -0.0088  0.0859 -0.7680
  126OSM    C2F13465   5.931   5.039   6.984  0.0458 -0.3734  0.2311
  126OSM    H2F13466   6.011   5.098   6.936 -0.7140 -0.4228 -1.1199
  126OSM    H2G13467   5.979   4.960   7.046 -1.0728 -0.9883  0.3513
  126OSM    C3F13468   5.860   5.135   7.087  0.0469 -0.0427 -0.0276
  126OSM    H3F13469   5.807   5.218   7.035  1.8153  0.6266 -0.8295
  126OSM    H3G13470   5.937   5.180   7.152  0.1263 -0.0667 -0.1049
  126OSM    C4F13471   5.766   5.071   7.193 -0.3290  0.5174 -0.1152
  126OSM    H4F13472   5.824   4.986   7.235  0.1451  0.2586 -1.2624
  126OSM    H4G13473   5.676   5.021   7.151 -0.9947  0.2938  1.4948
  126OSM    C5F13474   5.720   5.176   7.300 -0.3629  0.1377 -0.2288
  126OSM    H5F13475   5.670   5.258   7.244 -0.3926 -0.7781 -1.5738
  126OSM    H5G13476   5.814   5.218   7.342 -0.7661 -0.2344  1.1104
  126OSM    C6F13477   5.630   5.114   7.406  0.1729  0.4354  0.0436
  126OSM    H6F13478   5.660   5.008   7.422  0.3744  0.3303 -0.9689
  126OSM    H6G13479   5.529   5.102   7.361  0.8873  0.8237 -1.7348
  126OSM    C7F13480   5.617   5.194   7.538  0.0331  0.0500  0.8649
  126OSM    H7F13481   5.545   5.271   7.505 -1.4702 -2.2786 -1.7498
  126OSM    H7G13482   5.711   5.240   7.575  1.1373 -2.5132  1.4527
  126OSM    C8F13483   5.554   5.118   7.660 -0.2043 -0.6925 -0.1406
  126OSM    H8F13484   5.459   5.068   7.631 -1.2318  0.8526  0.4109
  126OSM    H8G13485   5.515   5.192   7.733 -2.8604  1.2751 -3.2626
  126OSM    C9F13486   5.644   5.014   7.711 -0.2628  0.0638 -0.3451
  126OSM    H9F13487   5.710   4.978   7.631  1.1130 -2.1842  1.6748
  126OSM   C10F13488   5.646   4.972   7.838 -0.1648 -0.7108 -0.0172
  126OSM   H10F13489   5.709   4.894   7.885 -2.0702 -0.8107  2.6369
  126OSM   C11F13490   5.544   5.031   7.941  0.0087  0.2619 -0.0205
  126OSM   H11F13491   5.499   4.948   7.999  0.1996  1.0881  1.3434
  126OSM   H11G13492   5.452   5.080   7.903 -1.7110 -3.1741 -0.6919
  126OSM   C12F13493   5.612   5.128   8.035 -0.2564  0.2480  0.2823
  126OSM   H12F13494   5.691   5.077   8.094 -0.4782 -0.9204 -0.3929
  126OSM   H12G13495   5.535   5.145   8.113 -0.9084  0.0824 -0.3073
  126OSM   C13F13496   5.660   5.269   7.979 -0.2593 -0.5057 -0.5219
  126OSM   H13F13497   5.577   5.325   7.930 -0.8774 -0.3099  0.7038
  126OSM   H13G13498   5.737   5.247   7.901  1.1331 -1.3948  1.0398
  126OSM   C14F13499   5.727   5.348   8.094  0.3351  0.4859  0.3699
  126OSM   H14F13500   5.833   5.314   8.104 -0.4638 -2.4156 -0.1956
  126OSM   H14G13501   5.668   5.330   8.187 -0.4273  0.8525 -0.0392
  126OSM   C15F13502   5.722   5.494   8.059 -0.5422 -0.5314 -0.3910
  126OSM   H15F13503   5.619   5.530   8.036 -0.2330  1.0690  0.6472
  126OSM   H15G13504   5.780   5.513   7.966  1.5843 -0.6634  0.8709
  126OSM   C16F13505   5.780   5.574   8.183  0.4600 -0.2423  0.2445
  126OSM   H16F13506   5.809   5.679   8.159  3.3264 -0.6247  1.6715
  126OSM   H16G13507   5.862   5.523   8.237  1.0081  1.9660  1.6477
  126OSM   C17F13508   5.664   5.592   8.289 -0.1439  0.1554  0.9425
  126OSM   H17F13509   5.630   5.489   8.313  0.6333 -0.7131 -1.4536
  126OSM   H17G13510   5.588   5.657   8.241  1.1712  1.1542  0.1650
  126OSM   C18F13511   5.699   5.664   8.418 -0.1328 -0.0456  0.0885
  126OSM   H18F13512   5.753   5.759   8.398 -0.8983  0.0467 -1.7151
  126OSM   H18G13513   5.769   5.600   8.478  1.7918  2.4867  0.7175
  126OSM   H18H13514   5.605   5.693   8.469 -0.6076 -0.5811 -0.4721
  127OSM      N13515   6.449   5.425   6.118  0.0722 -0.2138  0.0246
  127OSM    C1513516   6.554   5.435   6.016  0.0057  0.3044 -0.0662
  127OSM   H15A13517   6.630   5.509   6.035  1.3728 -1.0052 -0.2330
  127OSM   H15B13518   6.511   5.464   5.921 -3.2311  1.1030  1.4797
  127OSM   H15C13519   6.606   5.341   6.006 -1.2020 -0.5078  0.9102
  127OSM    C1413520   6.507   5.392   6.247 -0.3477  0.0727 -0.4797
  127OSM   H14A13521   6.559   5.480   6.282 -1.8376  2.3307 -3.4989
  127OSM   H14B13522   6.575   5.308   6.247 -3.9606 -3.1002 -0.3019
  127OSM   H14C13523   6.432   5.361   6.318  0.1871 -0.8145 -0.2942
  127OSM    C1313524   6.384   5.560   6.122 -0.0312  0.5974  0.2802
  127OSM   H13A13525   6.293   5.558   6.181  0.3964 -1.0389  0.9378
  127OSM   H13B13526   6.353   5.591   6.024  0.4657 -0.2743 -0.1698
  127OSM   H13C13527   6.455   5.625   6.171  0.8891 -1.2455  1.5079
  127OSM    C1213528   6.345   5.321   6.074  0.0283  0.3347 -0.0113
  127OSM   H12A13529   6.397   5.227   6.070 -0.5717  0.0425 -1.8506
  127OSM   H12B13530   6.322   5.338   5.970  0.7947 -0.6924 -0.3681
  127OSM    C1113531   6.213   5.298   6.151  0.4101  0.1642 -0.0068
  127OSM   H11A13532   6.156   5.219   6.098  0.4660  0.3786 -0.3948
  127OSM   H11B13533   6.143   5.383   6.139 -0.4584 -0.3935  0.9982
  127OSM      P13534   6.160   5.304   6.401 -0.2240  0.1615  0.1209
  127OSM    O1313535   6.126   5.448   6.379 -0.1524  0.7088 -0.1941
  127OSM    O1413536   6.054   5.206   6.416 -0.3229 -0.0827  0.3579
  127OSM    O1113537   6.261   5.287   6.520 -0.0899 -0.1081 -0.1386
  127OSM    O1213538   6.247   5.254   6.283 -0.5768 -0.4369  0.2078
  127OSM    C1S13539   6.353   5.391   6.561  0.4898 -0.5329 -0.0499
  127OSM    H1S13540   6.350   5.483   6.499  0.7983  0.1804  0.9644
  127OSM    H1T13541   6.454   5.346   6.561  0.2874 -0.9964 -0.3680
  127OSM     NF13542   6.380   5.551   6.740  0.4907  0.1336  0.0462
  127OSM    HNF13543   6.453   5.539   6.808  1.4775 -3.3711 -1.4194
  127OSM    C2S13544   6.312   5.434   6.701 -0.2010  0.0807 -0.0694
  127OSM    H2S13545   6.205   5.460   6.692  0.2952  1.5645 -2.3978
  127OSM    C3S13546   6.327   5.324   6.800 -0.4749  0.2584 -0.9073
  127OSM    H3S13547   6.435   5.302   6.805 -0.3088  0.5697 -2.6369
  127OSM     O313548   6.257   5.205   6.772 -0.3300  0.3575  0.8051
  127OSM    HO313549   6.224   5.217   6.683 -1.5375  1.7646  1.4025
  127OSM    C4S13550   6.283   5.361   6.944  0.5416  0.2697 -0.1905
  127OSM    H4S13551   6.175   5.349   6.962  0.6766  0.2029  0.5982
  127OSM    C5S13552   6.362   5.399   7.042  0.0504 -0.0056 -0.0949
  127OSM    H5S13553   6.471   5.403   7.033  0.1306  2.6928  1.2554
  127OSM    C6S13554   6.307   5.442   7.175  0.3091 -0.2787  0.7913
  127OSM    H6S13555   6.234   5.365   7.208  1.1813 -1.7166 -0.4915
  127OSM    H6T13556   6.240   5.531   7.179 -3.0243 -2.5349 -0.3553
  127OSM    C7S13557   6.416   5.456   7.276 -0.6319 -0.1763 -0.1190
  127OSM    H7S13558   6.491   5.528   7.236  1.0831 -2.2314 -0.7719
  127OSM    H7T13559   6.485   5.370   7.288  1.0608  1.0742 -0.4255
  127OSM    C8S13560   6.363   5.502   7.405  0.5563  0.4486  0.7957
  127OSM    H8S13561   6.281   5.436   7.439  0.0316 -0.2952 -1.7046
  127OSM    H8T13562   6.330   5.603   7.372 -2.5726 -1.4207 -2.6028
  127OSM    C9S13563   6.467   5.516   7.515  0.2054  0.0038  0.3241
  127OSM    H9S13564   6.563   5.560   7.482  1.0677 -0.5466  1.9645
  127OSM    H9T13565   6.511   5.421   7.553  0.6538 -0.0765 -0.3840
  127OSM   C10S13566   6.413   5.594   7.634  0.2698 -0.5762 -0.1666
  127OSM   H10S13567   6.323   5.539   7.669 -0.5538  0.1104 -1.1699
  127OSM   H10T13568   6.376   5.692   7.598  0.6627 -1.1068 -2.1142
  127OSM   C11S13569   6.513   5.602   7.744  0.0311  0.7660  0.7243
  127OSM   H11S13570   6.602   5.658   7.709  0.2229 -0.2121 -0.4330
  127OSM   H11T13571   6.564   5.505   7.760 -0.7265  0.7414  3.5674
  127OSM   C12S13572   6.464   5.644   7.883 -0.0111 -0.5706  0.3841
  127OSM   H12S13573   6.415   5.562   7.940  0.8183 -1.7951 -0.6057
  127OSM   H12T13574   6.383   5.718   7.869 -0.2645 -1.1074 -1.1136
  127OSM   C13S13575   6.576   5.704   7.972  0.6020  0.6971  0.3455
  127OSM   H13S13576   6.627   5.789   7.922 -0.4037  0.0962 -1.8328
  127OSM   H13T13577   6.642   5.621   8.006 -0.2264  0.1610  0.6956
  127OSM   C14S13578   6.514   5.761   8.102 -0.0326  0.0473  1.2465
  127OSM   H14S13579   6.450   5.687   8.153  0.7364 -0.8219  0.9922
  127OSM   H14T13580   6.436   5.836   8.076 -0.0745 -0.6753 -0.9896
  127OSM   C15S13581   6.617   5.823   8.196  0.2531 -0.2267 -0.3334
  127OSM   H15S13582   6.674   5.894   8.134 -2.6202  1.4268 -1.2996
  127OSM   H15T13583   6.682   5.740   8.232  1.4132  1.2051  1.0485
  127OSM   C16S13584   6.550   5.910   8.308  0.2061  0.3103 -0.6744
  127OSM   H16S13585   6.627   5.906   8.388  0.4034 -1.1943 -0.9241
  127OSM   H16T13586   6.465   5.855   8.352  1.8677 -1.8016  0.0964
  127OSM   C17S13587   6.525   6.053   8.265 -0.2333  0.5404  0.4989
  127OSM   H17S13588   6.448   6.050   8.185 -1.0274 -0.5305  1.2641
  127OSM   H17T13589   6.607   6.103   8.210 -0.9327  0.3989 -0.7029
  127OSM   C18S13590   6.465   6.119   8.389  0.2252  0.0812  0.4193
  127OSM   H18S13591   6.546   6.139   8.463  0.0683 -0.9204  0.8740
  127OSM   H18T13592   6.384   6.052   8.426 -0.1213 -1.2400 -2.5133
  127OSM   H18U13593   6.406   6.211   8.371 -0.4417  0.1838  2.7434
  127OSM    C1F13594   6.363   5.673   6.688 -0.7135 -0.1656 -0.2079
  127OSM     OF13595   6.264   5.698   6.618  0.3545 -0.5995 -0.4767
  127OSM    C2F13596   6.470   5.774   6.693  0.2399 -0.2585 -0.5671
  127OSM    H2F13597   6.469   5.824   6.594 -3.0229  4.4735  1.5034
  127OSM    H2G13598   6.570   5.727   6.708  0.5748  1.1299  2.1838
  127OSM    C3F13599   6.443   5.890   6.792  0.2337 -0.3244 -0.2910
  127OSM    H3F13600   6.336   5.918   6.782  0.2589 -0.2477 -0.3491
  127OSM    H3G13601   6.505   5.978   6.764  2.4621 -1.1113  1.8618
  127OSM    C4F13602   6.450   5.856   6.936  0.5634  0.1108 -1.1231
  127OSM    H4F13603   6.557   5.849   6.964  0.5302  1.0663 -0.7297
  127OSM    H4G13604   6.394   5.761   6.950  0.8129 -0.4326 -3.4127
  127OSM    C5F13605   6.377   5.959   7.025  0.1429  0.3328  0.2229
  127OSM    H5F13606   6.280   5.985   6.977  1.6246  0.1463 -3.1100
  127OSM    H5G13607   6.439   6.051   7.025 -0.5991  0.8419  0.1076
  127OSM    C6F13608   6.367   5.918   7.177 -0.2770 -0.0278  0.9154
  127OSM    H6F13609   6.469   5.911   7.221 -0.2377 -0.6458  0.7443
  127OSM    H6G13610   6.303   5.827   7.177 -2.6387  1.3735 -3.2025
  127OSM    C7F13611   6.301   6.036   7.252  0.1579 -0.7145  0.0906
  127OSM    H7F13612   6.354   6.125   7.213  1.4621 -1.5172 -0.0275
  127OSM    H7G13613   6.329   6.023   7.358  1.7442  0.9298 -0.0849
  127OSM    C8F13614   6.149   6.052   7.244  1.0559  0.6344 -0.1970
  127OSM    H8F13615   6.101   5.959   7.281 -1.7791  2.7773  2.0335
  127OSM    H8G13616   6.132   6.074   7.137  3.7003 -1.0866 -1.0859
  127OSM    C9F13617   6.102   6.176   7.324  1.0336 -0.6506 -0.4190
  127OSM    H9F13618   6.094   6.267   7.262 -3.4149 -0.0225  0.7257
  127OSM   C10F13619   6.047   6.186   7.448  0.2237  0.5324 -0.2600
  127OSM   H10F13620   6.013   6.281   7.491  0.7969  0.3823  0.5511
  127OSM   C11F13621   6.029   6.061   7.537  0.4233 -0.0288  0.1180
  127OSM   H11F13622   6.039   6.084   7.645  1.1257 -4.6732  1.2891
  127OSM   H11G13623   6.109   5.984   7.532  0.0529 -0.4428  0.5026
  127OSM   C12F13624   5.886   5.998   7.522 -0.2932 -0.0776  0.4844
  127OSM   H12F13625   5.874   5.965   7.416 -0.2426  2.8025 -0.5021
  127OSM   H12G13626   5.811   6.080   7.524  0.7012  0.8481  1.6776
  127OSM   C13F13627   5.847   5.878   7.605 -0.1211  0.6946 -1.0898
  127OSM   H13F13628   5.920   5.798   7.582  0.0299  0.5030  0.0047
  127OSM   H13G13629   5.743   5.861   7.567 -1.2878  2.4949  1.0737
  127OSM   C14F13630   5.824   5.916   7.752 -0.1585  0.8670 -0.2645
  127OSM   H14F13631   5.746   5.850   7.796  1.8157 -0.6705  1.1034
  127OSM   H14G13632   5.786   6.021   7.755 -0.8112  0.6398  2.6009
  127OSM   C15F13633   5.945   5.906   7.849 -1.0259  0.0040  0.6100
  127OSM   H15F13634   6.033   5.964   7.814 -1.8366  1.7295  1.3505
  127OSM   H15G13635   5.982   5.801   7.851  0.2756  0.3429 -1.6900
  127OSM   C16F13636   5.925   5.956   7.997 -0.2612 -0.3415  0.1776
  127OSM   H16F13637   5.840   5.900   8.040 -0.6033  0.6198  0.7824
  127OSM   H16G13638   5.896   6.063   7.993 -1.6078 -0.6399  1.3012
  127OSM   C17F13639   6.048   5.943   8.076 -0.0449  0.2158  0.9213
  127OSM   H17F13640   6.114   6.020   8.030  0.1339 -1.1436 -1.2464
  127OSM   H17G13641   6.094   5.844   8.057  1.1385  1.0807 -1.0248
  127OSM   C18F13642   6.052   5.973   8.227 -0.9234  0.2504  0.1440
  127OSM   H18F13643   6.157   5.958   8.261 -1.1333 -2.6326 -0.2654
  127OSM   H18G13644   5.990   5.895   8.276 -0.3025  0.6403  1.6087
  127OSM   H18H13645   6.004   6.068   8.260 -3.0166 -0.3870 -0.8644
  128OSM      N13646   0.904   1.172   6.385 -0.2778  1.0683 -0.5380
  128OSM    C1513647   0.901   1.089   6.257  0.7021 -0.8441  0.9315
  128OSM   H15A13648   0.850   1.144   6.179 -0.0785 -0.1515  1.9040
  128OSM   H15B13649   0.853   0.992   6.267 -2.1176  0.0141 -2.1565
  128OSM   H15C13650   0.996   1.069   6.211  0.2325  1.1516 -1.0679
  128OSM    C1413651   0.959   1.304   6.364 -0.1189 -0.5889 -0.2247
  128OSM   H14A13652   0.892   1.358   6.298  0.4669 -0.1716 -0.4844
  128OSM   H14B13653   1.054   1.304   6.313  0.2996  2.5089  0.3592
  128OSM   H14C13654   0.967   1.362   6.455 -0.5081  0.3324 -0.7620
  128OSM    C1313655   0.756   1.183   6.425 -0.1513 -0.0710 -0.0586
  128OSM   H13A13656   0.714   1.089   6.457 -0.0614  0.0221  0.3389
  128OSM   H13B13657   0.692   1.220   6.347  0.2304 -2.8631 -1.8553
  128OSM   H13C13658   0.750   1.255   6.505  3.1758 -1.9107  2.1234
  128OSM    C1213659   0.968   1.092   6.496  0.1257 -0.0182  0.0159
  128OSM   H12A13660   0.905   1.005   6.508 -1.5873  1.3245  1.1985
  128OSM   H12B13661   0.963   1.149   6.587  0.6893 -3.2236  2.2324
  128OSM    C1113662   1.109   1.041   6.477  0.1355 -0.0412  0.0239
  128OSM   H11A13663   1.114   0.969   6.392  2.6097  0.1285 -0.0263
  128OSM   H11B13664   1.134   0.974   6.561  0.0335  0.3882  0.4018
  128OSM      P13665   1.291   1.151   6.312 -0.2501 -0.5261  0.2052
  128OSM    O1313666   1.232   1.075   6.203 -0.1173  0.3222 -0.0221
  128OSM    O1413667   1.312   1.295   6.290  0.2586 -0.4546 -0.0432
  128OSM    O1113668   1.426   1.090   6.342  0.2813  0.4580  0.0213
  128OSM    O1213669   1.216   1.129   6.460 -0.0222  0.5544  0.1708
  128OSM    C1S13670   1.538   1.151   6.408 -0.2904 -0.1889 -0.0800
  128OSM    H1S13671   1.540   1.257   6.374 -0.7737 -0.8811 -2.4193
  128OSM    H1T13672   1.629   1.092   6.383 -0.1459 -0.3914  0.8796
  128OSM     NF13673   1.633   1.203   6.621  0.2003 -0.0394  0.0455
  128OSM    HNF13674   1.724   1.163   6.625 -0.0932 -0.7846 -0.5606
  128OSM    C2S13675   1.531   1.122   6.560  0.0118  0.2288  0.4661
  128OSM    H2S13676   1.428   1.153   6.590 -0.4340 -1.9271  1.3811
  128OSM    C3S13677   1.537   0.968   6.585 -0.1459 -0.4195 -0.2979
  128OSM    H3S13678   1.631   0.931   6.538  1.6689  1.0197  1.9785
  128OSM     O313679   1.434   0.896   6.526 -0.2899  0.1803  0.4201
  128OSM    HO313680   1.384   0.965   6.483  3.0918  1.0826 -2.5455
  128OSM    C4S13681   1.543   0.944   6.734  0.0817  0.0040  0.2820
  128OSM    H4S13682   1.642   0.973   6.771 -0.1548  2.1512 -0.6137
  128OSM    C5S13683   1.437   0.913   6.814 -0.4083  0.3144  0.6412
  128OSM    H5S13684   1.336   0.920   6.771 -0.4486 -2.0317  0.2535
  128OSM    C6S13685   1.447   0.897   6.964  0.8307 -0.5126  0.3724
  128OSM    H6S13686   1.434   0.790   6.988 -2.9340 -0.0696  0.9257
  128OSM    H6T13687   1.362   0.957   7.004  1.7636  1.1812 -0.0494
  128OSM    C7S13688   1.578   0.944   7.033 -0.1978  0.0196 -0.8258
  128OSM    H7S13689   1.587   1.053   7.016  0.2729 -0.2732 -2.5690
  128OSM    H7T13690   1.664   0.899   6.979  0.8063 -0.4004  1.0074
  128OSM    C8S13691   1.579   0.898   7.175  0.5007  0.3861  0.0491
  128OSM    H8S13692   1.544   0.793   7.178  0.1444  0.5310  1.3997
  128OSM    H8T13693   1.516   0.968   7.233  0.2990 -1.1049  1.7156
  128OSM    C9S13694   1.718   0.898   7.243 -0.2163 -0.0141  0.2722
  128OSM    H9S13695   1.764   0.994   7.212 -0.8498  0.4621  0.7544
  128OSM    H9T13696   1.768   0.809   7.200 -0.6362 -0.0181 -0.2177
  128OSM   C10S13697   1.716   0.885   7.393  0.0890 -0.1370 -0.3757
  128OSM   H10S13698   1.651   0.956   7.450 -0.6325 -1.3686  0.3825
  128OSM   H10T13699   1.820   0.910   7.424 -0.3137 -0.4154  1.3245
  128OSM   C11S13700   1.680   0.743   7.434  0.4845  0.0325  0.4063
  128OSM   H11S13701   1.740   0.665   7.382 -2.3638 -1.1766 -1.2944
  128OSM   H11T13702   1.574   0.735   7.401  1.1589  0.2703 -2.0743
  128OSM   C12S13703   1.698   0.714   7.584 -0.0228 -0.5309  0.1885
  128OSM   H12S13704   1.680   0.610   7.619  1.9945 -0.4974  1.5229
  128OSM   H12T13705   1.622   0.769   7.643  1.0342 -0.0740  1.1611
  128OSM   C13S13706   1.837   0.758   7.640  0.3795  0.5079  0.7099
  128OSM   H13S13707   1.864   0.864   7.660  2.0147 -0.2351  2.9191
  128OSM   H13T13708   1.918   0.704   7.586  0.0162  1.4138 -0.8075
  128OSM   C14S13709   1.848   0.710   7.787 -0.6362  0.2476 -0.2302
  128OSM   H14S13710   1.955   0.701   7.813 -0.6466  2.3375  0.7116
  128OSM   H14T13711   1.822   0.602   7.784  2.0090 -0.4730  0.7554
  128OSM   C15S13712   1.762   0.796   7.885  0.0014  0.9984 -0.4269
  128OSM   H15S13713   1.662   0.816   7.841 -1.0508 -1.6084  0.5404
  128OSM   H15T13714   1.811   0.894   7.904  2.2964 -0.3684  1.2440
  128OSM   C16S13715   1.729   0.726   8.023 -0.3246  0.0389 -0.2188
  128OSM   H16S13716   1.635   0.667   8.013  0.2409 -0.9343  0.1056
  128OSM   H16T13717   1.707   0.801   8.102  0.5583 -0.6320  0.6875
  128OSM   C17S13718   1.837   0.635   8.094  0.1783  0.0674 -0.9680
  128OSM   H17S13719   1.852   0.547   8.028  0.2809 -1.0480  0.4790
  128OSM   H17T13720   1.798   0.607   8.195  1.2395  0.4459 -0.4414
  128OSM   C18S13721   1.969   0.711   8.120  0.4049  0.0604 -0.2817
  128OSM   H18S13722   2.015   0.752   8.028 -0.6476 -1.0531 -1.3390
  128OSM   H18T13723   2.044   0.651   8.176  0.8099  2.1402  1.5553
  128OSM   H18U13724   1.946   0.805   8.175  1.1534  0.3004 -0.3641
  128OSM    C1F13725   1.616   1.331   6.648  1.7583 -0.7898  0.1864
  128OSM     OF13726   1.496   1.375   6.633  0.3136  0.4450 -0.4947
  128OSM    C2F13727   1.729   1.417   6.697 -0.0305 -0.3126 -0.2018
  128OSM    H2F13728   1.765   1.475   6.610 -1.4348  1.8561  0.5849
  128OSM    H2G13729   1.812   1.356   6.739  0.7943  0.3373 -0.8757
  128OSM    C3F13730   1.684   1.530   6.795 -0.1163  0.0871  0.2879
  128OSM    H3F13731   1.609   1.595   6.746 -0.7814 -0.3401  0.7151
  128OSM    H3G13732   1.763   1.605   6.814  0.3009 -0.3136  0.1761
  128OSM    C4F13733   1.627   1.490   6.929  0.1249  0.3128 -0.5790
  128OSM    H4F13734   1.538   1.430   6.901 -1.0127  0.4436  2.4089
  128OSM    H4G13735   1.598   1.575   6.995  2.6687  2.0767 -1.5549
  128OSM    C5F13736   1.716   1.392   7.014 -0.0490  0.4935 -0.0850
  128OSM    H5F13737   1.751   1.304   6.956  1.3815 -1.1932  3.0767
  128OSM    H5G13738   1.653   1.340   7.089 -1.8818  1.7833 -0.6421
  128OSM    C6F13739   1.842   1.458   7.068 -0.4211  0.7093  0.3946
  128OSM    H6F13740   1.799   1.534   7.136  0.5194  0.7667  0.9450
  128OSM    H6G13741   1.894   1.505   6.982 -0.1035 -0.6615 -0.1823
  128OSM    C7F13742   1.943   1.366   7.142  0.1327  0.3443  0.3279
  128OSM    H7F13743   2.029   1.429   7.175  0.4291  1.8162 -2.7917
  128OSM    H7G13744   1.988   1.285   7.080 -0.4058 -0.0040  0.3853
  128OSM    C8F13745   1.886   1.295   7.269 -0.2557 -0.4606  0.2776
  128OSM    H8F13746   1.799   1.236   7.232  0.5840 -0.4694 -1.8495
  128OSM    H8G13747   1.843   1.368   7.341 -2.2284 -0.8716 -0.3979
  128OSM    C9F13748   1.991   1.215   7.347  0.8590 -0.0692  0.6729
  128OSM    H9F13749   1.995   1.108   7.324 -0.0463 -0.1228  0.7423
  128OSM   C10F13750   2.082   1.264   7.437 -0.0723 -0.3122 -0.2888
  128OSM   H10F13751   2.157   1.192   7.473  1.1332  0.3358 -1.4113
  128OSM   C11F13752   2.103   1.406   7.491 -0.8160 -0.8561 -0.2610
  128OSM   H11F13753   2.052   1.482   7.428 -1.8281 -0.1108  1.3631
  128OSM   H11G13754   2.211   1.431   7.487 -0.3173 -2.8985 -0.5097
  128OSM   C12F13755   2.037   1.440   7.632 -0.3765 -0.7922  0.1100
  128OSM   H12F13756   1.931   1.409   7.632 -0.4636 -0.5428  1.4831
  128OSM   H12G13757   2.043   1.549   7.648  3.7228 -0.5594 -1.6557
  128OSM   C13F13758   2.122   1.380   7.741  0.4944 -0.1668 -0.3198
  128OSM   H13F13759   2.227   1.414   7.728  1.8648 -4.0494 -0.6963
  128OSM   H13G13760   2.112   1.270   7.733  3.2267 -0.6919  2.0006
  128OSM   C14F13761   2.077   1.433   7.891  0.5476 -0.0771  0.1762
  128OSM   H14F13762   1.969   1.412   7.905  0.4905  1.6212  2.8637
  128OSM   H14G13763   2.095   1.542   7.899 -2.1218  0.5552 -1.2816
  128OSM   C15F13764   2.142   1.353   8.003 -0.3517 -0.1267 -0.1807
  128OSM   H15F13765   2.249   1.383   7.997 -0.5217  0.5372 -0.0005
  128OSM   H15G13766   2.128   1.245   7.984 -0.5492 -0.3083  0.8923
  128OSM   C16F13767   2.085   1.383   8.145 -0.0431 -0.4438 -0.4851
  128OSM   H16F13768   2.147   1.314   8.206 -0.1254 -0.0826  0.0159
  128OSM   H16G13769   1.976   1.357   8.145 -0.4802  1.2752 -0.3447
  128OSM   C17F13770   2.097   1.525   8.199 -0.1970 -0.1574  0.4043
  128OSM   H17F13771   2.018   1.532   8.276 -0.3671  1.9426  0.0776
  128OSM   H17G13772   2.059   1.599   8.125  0.8139 -0.2997 -0.2842
  128OSM   C18F13773   2.236   1.557   8.248 -0.6557  0.7946  0.1324
  128OSM   H18F13774   2.322   1.523   8.186  1.0887  2.3182  1.5869
  128OSM   H18G13775   2.244   1.502   8.345  1.4728 -0.2047 -0.5309
  128OSM   H18H13776   2.259   1.663   8.273 -2.1222  0.7790  1.7675
  129OSM      N13777   3.212   4.306   6.105 -0.1738  0.3973  0.2525
  129OSM    C1513778   3.098   4.363   6.026  0.3975 -0.1146 -0.7776
  129OSM   H15A13779   3.039   4.284   5.981  1.5964 -2.0648  0.8735
  129OSM   H15B13780   3.114   4.440   5.953  0.1955  0.2766 -0.4105
  129OSM   H15C13781   3.027   4.412   6.089  0.7048  0.9120 -1.2176
  129OSM    C1413782   3.310   4.242   6.014 -0.2612  0.5267  0.0071
  129OSM   H14A13783   3.385   4.194   6.074 -0.7917  0.9255  1.0086
  129OSM   H14B13784   3.362   4.315   5.953 -0.1113 -0.7586 -1.4726
  129OSM   H14C13785   3.259   4.178   5.943  0.2019  0.1419  0.0202
  129OSM    C1313786   3.278   4.425   6.183  0.2960  0.0282 -0.4002
  129OSM   H13A13787   3.207   4.498   6.219  0.2789 -0.4705  0.6066
  129OSM   H13B13788   3.339   4.478   6.111 -0.4161 -0.2306 -1.2046
  129OSM   H13C13789   3.340   4.391   6.265 -0.3017  0.2300  0.1401
  129OSM    C1213790   3.153   4.208   6.197  0.4730  0.3660 -0.1843
  129OSM   H12A13791   3.091   4.147   6.133  0.4665  1.2365 -1.0442
  129OSM   H12B13792   3.089   4.270   6.259 -0.9830  1.5780 -2.7002
  129OSM    C1113793   3.258   4.132   6.289  0.2946  0.4797 -0.4264
  129OSM   H11A13794   3.198   4.092   6.373  1.7358  1.6266  1.2290
  129OSM   H11B13795   3.330   4.203   6.335 -0.1154  0.3365  0.4520
  129OSM      P13796   3.264   3.898   6.168  0.6305 -0.4789 -0.5804
  129OSM    O1313797   3.134   3.923   6.097  0.5861 -0.1679  0.4371
  129OSM    O1413798   3.367   3.836   6.083  0.4524 -0.2676 -0.0700
  129OSM    O1113799   3.241   3.810   6.299  0.1022 -0.2265 -0.4545
  129OSM    O1213800   3.327   4.027   6.229  0.2070 -0.4019 -0.0227
  129OSM    C1S13801   3.356   3.763   6.371  0.3291 -0.8209 -0.3603
  129OSM    H1S13802   3.455   3.782   6.326  1.5635 -2.6064  1.4291
  129OSM    H1T13803   3.344   3.653   6.380 -2.5283 -0.6159 -0.7909
  129OSM     NF13804   3.462   3.749   6.587 -0.1906  0.3276  0.2358
  129OSM    HNF13805   3.455   3.664   6.639  1.3235 -0.2339 -0.4016
  129OSM    C2S13806   3.349   3.811   6.515  0.4752 -0.7106 -0.2143
  129OSM    H2S13807   3.358   3.921   6.520  0.5750 -0.7098 -0.4210
  129OSM    C3S13808   3.210   3.771   6.578  0.0673  0.5358 -0.3032
  129OSM    H3S13809   3.205   3.660   6.571 -0.4142  0.6361 -2.1102
  129OSM     O313810   3.087   3.818   6.519 -0.1604 -0.3063  0.1218
  129OSM    HO313811   3.099   3.818   6.423 -0.7459 -0.0160  0.0436
  129OSM    C4S13812   3.213   3.823   6.719 -0.0168  0.3433 -0.1392
  129OSM    H4S13813   3.234   3.930   6.709  0.2020  0.2058 -1.3048
  129OSM    C5S13814   3.215   3.760   6.840 -0.3071  0.3210 -0.5588
  129OSM    H5S13815   3.205   3.651   6.841 -1.7336  0.4407 -0.3012
  129OSM    C6S13816   3.230   3.819   6.978 -0.2055 -0.2838 -0.0327
  129OSM    H6S13817   3.210   3.928   6.979  0.3487 -0.1783 -0.2612
  129OSM    H6T13818   3.332   3.805   7.021 -0.2184  0.1145  0.1281
  129OSM    C7S13819   3.126   3.744   7.068 -0.2516  0.3075  0.4269
  129OSM    H7S13820   3.123   3.635   7.046  1.4964  0.1952  0.6240
  129OSM    H7T13821   3.022   3.762   7.035  0.0257 -1.0994 -1.3295
  129OSM    C8S13822   3.122   3.794   7.214  0.6126 -0.0061 -0.6993
  129OSM    H8S13823   3.129   3.905   7.216 -2.3749  0.3044  3.0266
  129OSM    H8T13824   3.218   3.752   7.251  0.0252 -2.4163 -1.7142
  129OSM    C9S13825   3.005   3.735   7.301  0.7322 -0.0876 -0.3013
  129OSM    H9S13826   2.996   3.628   7.273 -0.6705  0.0100 -0.3353
  129OSM    H9T13827   2.907   3.779   7.272  0.2406 -2.1528 -2.0842
  129OSM   C10S13828   3.029   3.743   7.453 -0.5525 -0.8114  0.3695
  129OSM   H10S13829   3.030   3.852   7.472  0.0220 -0.6566 -0.4776
  129OSM   H10T13830   3.133   3.707   7.471 -0.2357  0.2673  0.8115
  129OSM   C11S13831   2.937   3.664   7.547  0.4454 -0.4655 -1.2525
  129OSM   H11S13832   2.947   3.558   7.516  1.2578 -0.8816  0.3048
  129OSM   H11T13833   2.837   3.710   7.556  0.3349 -1.0410  1.8987
  129OSM   C12S13834   2.978   3.661   7.700 -0.1684  0.2147 -0.3274
  129OSM   H12S13835   3.087   3.648   7.718 -0.3474 -0.6681  0.1674
  129OSM   H12T13836   2.934   3.572   7.749 -1.4243  0.5328 -0.8224
  129OSM   C13S13837   2.927   3.784   7.776 -0.2341 -0.3534 -0.0902
  129OSM   H13S13838   2.817   3.776   7.786 -0.0767 -0.6857  1.7933
  129OSM   H13T13839   2.950   3.872   7.712 -1.9663  0.2206  0.0347
  129OSM   C14S13840   2.989   3.798   7.914  0.4809  0.9642  0.5710
  129OSM   H14S13841   3.085   3.852   7.902 -0.2126  2.3542  0.9840
  129OSM   H14T13842   3.016   3.705   7.968 -0.3435 -0.7528 -1.8358
  129OSM   C15S13843   2.889   3.878   8.002  0.2477 -0.3123 -1.1490
  129OSM   H15S13844   2.784   3.842   8.009 -0.6367  2.3406  0.5887
  129OSM   H15T13845   2.880   3.977   7.954 -2.0794 -0.1271 -0.4538
  129OSM   C16S13846   2.943   3.887   8.150  0.2493 -0.4734  0.1331
  129OSM   H16S13847   2.952   3.782   8.187 -5.1847 -0.4022  2.7636
  129OSM   H16T13848   2.873   3.941   8.218 -0.1167 -0.2721 -0.3993
  129OSM   C17S13849   3.074   3.974   8.150 -0.0906  0.5739  0.2616
  129OSM   H17S13850   3.048   4.073   8.108  0.6255  0.6522 -0.0001
  129OSM   H17T13851   3.139   3.924   8.075 -1.2625  0.8425 -0.9878
  129OSM   C18S13852   3.125   3.959   8.293  0.3386 -0.1731 -0.0020
  129OSM   H18S13853   3.163   3.858   8.316 -0.2104 -0.3841 -0.0126
  129OSM   H18T13854   3.037   3.978   8.358 -0.4440  1.1471 -1.3728
  129OSM   H18U13855   3.198   4.037   8.326  1.5047  0.9485 -4.5722
  129OSM    C1F13856   3.594   3.782   6.557 -0.1347 -0.1820 -0.2006
  129OSM     OF13857   3.618   3.885   6.488  0.0431 -0.4628 -0.7374
  129OSM    C2F13858   3.704   3.683   6.598 -0.2394  0.0211  0.4829
  129OSM    H2F13859   3.771   3.656   6.515  0.3601  1.7252  0.3669
  129OSM    H2G13860   3.656   3.588   6.631 -0.4192 -0.9654 -2.3213
  129OSM    C3F13861   3.787   3.747   6.712 -0.5163 -0.5278 -0.5071
  129OSM    H3F13862   3.817   3.850   6.684  1.3748 -0.8828  0.0455
  129OSM    H3G13863   3.885   3.698   6.733  0.4345  0.4762 -2.4166
  129OSM    C4F13864   3.704   3.751   6.840 -0.2296 -0.3057  0.5740
  129OSM    H4F13865   3.601   3.788   6.820  0.6289  1.7942 -0.2465
  129OSM    H4G13866   3.753   3.811   6.920 -1.3337 -0.1820  1.1767
  129OSM    C5F13867   3.687   3.611   6.904  0.2146 -0.0902 -0.0531
  129OSM    H5F13868   3.778   3.579   6.960  1.2852  0.0105 -1.6516
  129OSM    H5G13869   3.652   3.535   6.831  0.7835  0.7145 -1.1957
  129OSM    C6F13870   3.587   3.607   7.021  0.6733  0.0889  0.3445
  129OSM    H6F13871   3.605   3.507   7.067  0.2884 -0.3210 -0.3771
  129OSM    H6G13872   3.487   3.605   6.973  0.3167 -0.0881  1.0714
  129OSM    C7F13873   3.600   3.718   7.122  1.1447  0.0084 -0.7360
  129OSM    H7F13874   3.565   3.814   7.080  0.2000 -0.5978 -1.3605
  129OSM    H7G13875   3.703   3.737   7.161  0.0065 -0.7384  2.9677
  129OSM    C8F13876   3.513   3.684   7.252  0.3163 -0.5198  0.4905
  129OSM    H8F13877   3.564   3.599   7.302  1.4829  0.2120  0.5919
  129OSM    H8G13878   3.410   3.659   7.220  0.1468 -2.1773  2.1762
  129OSM    C9F13879   3.502   3.803   7.339  0.6348  0.1361 -0.0871
  129OSM    H9F13880   3.458   3.895   7.299  2.5142  1.2848  0.3814
  129OSM   C10F13881   3.519   3.798   7.467  0.1848  0.2221 -0.8591
  129OSM   H10F13882   3.524   3.897   7.514  1.8695  0.1352 -0.7727
  129OSM   C11F13883   3.544   3.678   7.558  0.7547 -0.4280 -0.3574
  129OSM   H11F13884   3.645   3.674   7.605  0.8323  0.5284 -0.4233
  129OSM   H11G13885   3.512   3.587   7.503 -1.7389 -0.3177  0.7869
  129OSM   C12F13886   3.443   3.665   7.681  0.2869 -0.5092 -0.3426
  129OSM   H12F13887   3.442   3.557   7.707  2.2708 -0.9348 -1.7536
  129OSM   H12G13888   3.342   3.693   7.644  0.2129 -0.9622 -0.4881
  129OSM   C13F13889   3.485   3.735   7.814  1.0658  0.3295  0.1245
  129OSM   H13F13890   3.524   3.835   7.782  0.7107  0.1619 -0.8846
  129OSM   H13G13891   3.584   3.693   7.841  2.5872  1.3368 -3.2537
  129OSM   C14F13892   3.389   3.742   7.936  0.1235  0.2636  0.5711
  129OSM   H14F13893   3.305   3.814   7.922 -1.7556 -2.0062 -0.6491
  129OSM   H14G13894   3.445   3.783   8.022 -0.1297  2.2284 -0.1503
  129OSM   C15F13895   3.340   3.602   7.989  0.5244 -0.6960  1.2058
  129OSM   H15F13896   3.425   3.532   8.001  1.6803  0.4901  0.1737
  129OSM   H15G13897   3.285   3.556   7.905 -0.1788 -2.1937  2.4358
  129OSM   C16F13898   3.266   3.621   8.126  0.1175  0.3437 -0.3814
  129OSM   H16F13899   3.181   3.689   8.105  0.1767  0.5832  0.1394
  129OSM   H16G13900   3.330   3.677   8.198 -4.3971  1.1973  3.4542
  129OSM   C17F13901   3.222   3.491   8.189  0.4371 -0.0918 -0.4847
  129OSM   H17F13902   3.309   3.425   8.210  0.3391 -0.7248 -1.9687
  129OSM   H17G13903   3.161   3.436   8.115 -0.0010 -0.0811 -0.1395
  129OSM   C18F13904   3.125   3.507   8.309  0.1769 -1.1551  0.1989
  129OSM   H18F13905   3.100   3.408   8.353 -2.0932 -0.9812 -0.5903
  129OSM   H18G13906   3.030   3.552   8.273  0.3119 -0.7527  0.3372
  129OSM   H18H13907   3.171   3.571   8.388  0.0305 -1.0334  0.1854
  130OSM      N13908   5.084   1.415   6.172  0.1972 -0.1005 -0.0528
  130OSM    C1513909   4.968   1.367   6.092  0.2394 -0.0430  0.6091
  130OSM   H15A13910   4.987   1.263   6.069 -0.2093 -0.0273  0.1506
  130OSM   H15B13911   4.958   1.414   5.995  0.2193 -0.0233  0.6207
  130OSM   H15C13912   4.882   1.380   6.155  1.3985  0.4837  2.1460
  130OSM    C1413913   5.208   1.399   6.088 -0.9430 -0.5271 -0.5272
  130OSM   H14A13914   5.213   1.475   6.012 -1.9679 -0.4164 -0.4988
  130OSM   H14B13915   5.208   1.307   6.032 -0.7977  0.1364 -1.6387
  130OSM   H14C13916   5.304   1.405   6.138  0.0588 -2.1909 -2.1675
  130OSM    C1313917   5.056   1.561   6.206  0.1063 -0.2899 -1.2187
  130OSM   H13A13918   4.988   1.574   6.288  0.0875  1.3204 -1.4707
  130OSM   H13B13919   5.018   1.607   6.117 -0.1366  0.6181 -0.6544
  130OSM   H13C13920   5.148   1.602   6.246 -0.3422  0.2424 -0.7347
  130OSM    C1213921   5.112   1.328   6.297 -0.2327  0.2849  0.0435
  130OSM   H12A13922   5.131   1.227   6.264  0.1757  0.2374  0.4217
  130OSM   H12B13923   5.014   1.313   6.340  0.1698 -1.3117  0.4679
  130OSM    C1113924   5.226   1.359   6.397  0.7057 -0.3758  1.1348
  130OSM   H11A13925   5.211   1.291   6.483 -2.2387 -0.4888  0.6358
  130OSM   H11B13926   5.204   1.461   6.436  1.4389  0.0236  0.5436
  130OSM      P13927   5.456   1.231   6.346  0.0171  0.2367 -0.0065
  130OSM    O1313928   5.384   1.101   6.342  0.3481 -0.2424 -0.1322
  130OSM    O1413929   5.549   1.255   6.231  0.2847  0.2969 -0.2145
  130OSM    O1113930   5.528   1.254   6.483  0.5574  0.0997  0.2627
  130OSM    O1213931   5.357   1.354   6.342  0.0279 -0.0237  0.5234
  130OSM    C1S13932   5.587   1.381   6.519 -0.8017  0.0863  0.2902
  130OSM    H1S13933   5.529   1.467   6.479  0.1352 -0.3058 -2.1167
  130OSM    H1T13934   5.690   1.390   6.480 -0.3240 -1.3373  1.1640
  130OSM     NF13935   5.664   1.523   6.701 -0.3397 -0.0394  0.5967
  130OSM    HNF13936   5.762   1.532   6.719 -0.0080 -1.9989 -0.0128
  130OSM    C2S13937   5.610   1.396   6.669 -0.1670  0.0732 -0.1484
  130OSM    H2S13938   5.512   1.386   6.720 -0.5963  0.2265 -0.9267
  130OSM    C3S13939   5.692   1.278   6.723 -0.2881  1.0330 -0.1375
  130OSM    H3S13940   5.798   1.300   6.699  0.7940 -3.4849 -0.3298
  130OSM     O313941   5.654   1.145   6.691 -0.5061 -0.5137 -0.3163
  130OSM    HO313942   5.622   1.163   6.602  0.0245 -0.4429 -0.4971
  130OSM    C4S13943   5.693   1.281   6.870 -0.4039 -0.2056 -0.5904
  130OSM    H4S13944   5.596   1.273   6.922 -0.3078  0.8837 -0.2121
  130OSM    C5S13945   5.799   1.302   6.945  0.2349  0.4344 -0.3005
  130OSM    H5S13946   5.902   1.302   6.907  0.9939  0.7940  1.6467
  130OSM    C6S13947   5.798   1.299   7.098  0.3986  0.1610 -0.4177
  130OSM    H6S13948   5.874   1.371   7.134  0.4276  0.3775 -0.9085
  130OSM    H6T13949   5.818   1.193   7.125 -0.1529 -0.0228 -0.7229
  130OSM    C7S13950   5.672   1.338   7.176  0.7462 -0.6569  0.7214
  130OSM    H7S13951   5.580   1.281   7.150 -1.4877  1.9254  2.4048
  130OSM    H7T13952   5.639   1.440   7.150 -0.0979 -1.3149 -0.9495
  130OSM    C8S13953   5.699   1.330   7.330 -0.0485  0.2326 -0.1703
  130OSM    H8S13954   5.799   1.375   7.347  1.1721 -1.4251 -2.3642
  130OSM    H8T13955   5.707   1.222   7.357  0.4944  0.5066  0.7907
  130OSM    C9S13956   5.594   1.389   7.418 -0.2758 -0.4517  0.9329
  130OSM    H9S13957   5.492   1.347   7.401  0.0468 -1.4041  1.3035
  130OSM    H9T13958   5.590   1.495   7.385 -2.0251 -0.6666  0.3313
  130OSM   C10S13959   5.620   1.363   7.566  0.0945  0.8211  0.5399
  130OSM   H10S13960   5.726   1.377   7.595 -0.5595  2.6019  2.3663
  130OSM   H10T13961   5.591   1.261   7.599  3.8036  0.2675  2.5560
  130OSM   C11S13962   5.546   1.462   7.655 -0.5767 -0.5777  0.3931
  130OSM   H11S13963   5.565   1.567   7.624 -1.0682 -0.3176  0.9407
  130OSM   H11T13964   5.582   1.439   7.757  1.4672  0.0477 -0.1387
  130OSM   C12S13965   5.392   1.448   7.658  0.1775 -0.6546 -0.1642
  130OSM   H12S13966   5.357   1.344   7.669  1.6087 -1.0667  0.7481
  130OSM   H12T13967   5.351   1.499   7.569 -0.6466  1.3135  1.2576
  130OSM   C13S13968   5.335   1.528   7.774  0.1478 -0.5017  0.5978
  130OSM   H13S13969   5.376   1.631   7.787 -4.7333  2.0166 -1.5319
  130OSM   H13T13970   5.366   1.470   7.863  2.5328 -1.3254 -0.6673
  130OSM   C14S13971   5.178   1.560   7.778  0.1459  0.3302 -0.0000
  130OSM   H14S13972   5.133   1.460   7.766 -2.5497  1.5585 -0.8924
  130OSM   H14T13973   5.156   1.619   7.686  0.7353 -0.4176 -0.6394
  130OSM   C15S13974   5.124   1.629   7.905  0.1874  0.1491 -0.3702
  130OSM   H15S13975   5.197   1.589   7.979  0.8947 -3.8324 -2.9208
  130OSM   H15T13976   5.026   1.585   7.933  0.7055 -0.5150  0.4546
  130OSM   C16S13977   5.098   1.775   7.877 -0.3288 -0.3861 -0.3909
  130OSM   H16S13978   5.036   1.786   7.786 -1.5857  0.7979  0.5573
  130OSM   H16T13979   5.190   1.832   7.852  1.0626 -1.2320  2.4026
  130OSM   C17S13980   5.011   1.847   7.985 -0.4451  0.4256  0.2747
  130OSM   H17S13981   4.921   1.802   8.031 -0.9749  0.2817 -0.8805
  130OSM   H17T13982   4.975   1.941   7.939  0.3271  0.1728 -0.9017
  130OSM   C18S13983   5.105   1.864   8.102  0.9101 -0.4793 -0.7453
  130OSM   H18S13984   5.190   1.927   8.069  0.4517 -0.1012 -1.2342
  130OSM   H18T13985   5.131   1.760   8.131 -1.5087 -1.1353 -0.7423
  130OSM   H18U13986   5.057   1.920   8.185 -1.3105 -0.2311 -2.1033
  130OSM    C1F13987   5.604   1.639   6.690  0.2294  0.0474  0.2852
  130OSM     OF13988   5.483   1.653   6.670 -0.2238 -0.3265 -0.3473
  130OSM    C2F13989   5.700   1.757   6.690  0.3727  0.5063 -0.7487
  130OSM    H2F13990   5.733   1.766   6.584  0.6745  0.1720 -0.6852
  130OSM    H2G13991   5.793   1.735   6.746 -0.2132 -1.1331 -0.3850
  130OSM    C3F13992   5.649   1.892   6.735 -0.2361 -0.1584  0.1993
  130OSM    H3F13993   5.558   1.906   6.673 -1.0933 -0.4534  1.3652
  130OSM    H3G13994   5.718   1.967   6.691 -2.1279  0.2485 -2.2821
  130OSM    C4F13995   5.624   1.917   6.883  0.0477 -0.2390 -0.1899
  130OSM    H4F13996   5.569   1.838   6.937 -1.1236 -0.0167 -1.0183
  130OSM    H4G13997   5.559   2.007   6.884 -1.3586 -1.0988 -3.2895
  130OSM    C5F13998   5.748   1.950   6.966 -0.0981 -0.0625  0.1535
  130OSM    H5F13999   5.824   2.008   6.909  1.1046 -0.9484  0.8144
  130OSM    H5G14000   5.797   1.854   6.992  0.7467  0.7686  1.7660
  130OSM    C6F14001   5.730   2.030   7.098  0.1441 -0.5903  0.2295
  130OSM    H6F14002   5.648   1.988   7.162 -0.3648  0.6174  0.3931
  130OSM    H6G14003   5.696   2.133   7.073  0.2880 -0.1494  1.7281
  130OSM    C7F14004   5.862   2.058   7.175 -0.1343 -0.1698  0.4109
  130OSM    H7F14005   5.831   2.118   7.263 -0.7049  0.5307 -0.2543
  130OSM    H7G14006   5.925   2.119   7.108  0.1234 -0.0041  0.7963
  130OSM    C8F14007   5.938   1.935   7.228  0.3621  0.2126 -0.0878
  130OSM    H8F14008   6.021   1.978   7.288  2.5076 -2.8055 -0.6556
  130OSM    H8G14009   5.977   1.886   7.137 -2.2938 -0.1879 -1.1250
  130OSM    C9F14010   5.852   1.841   7.308  0.0504 -0.1411 -0.2330
  130OSM    H9F14011   5.777   1.797   7.241  0.8100 -2.4921  0.3286
  130OSM   C10F14012   5.842   1.822   7.444 -0.1271 -0.5732  0.0259
  130OSM   H10F14013   5.793   1.734   7.488  0.5955 -0.5994  0.8081
  130OSM   C11F14014   5.934   1.896   7.537 -0.2629 -0.5094  0.0956
  130OSM   H11F14015   5.893   1.999   7.550  2.1057  0.9163 -2.6073
  130OSM   H11G14016   6.029   1.924   7.487 -0.1288  0.3427  0.8087
  130OSM   C12F14017   5.961   1.829   7.670  0.5281 -0.3191  1.1245
  130OSM   H12F14018   6.015   1.733   7.654  0.2651 -0.4284  0.8715
  130OSM   H12G14019   5.867   1.798   7.721  0.9037 -1.8652  0.9237
  130OSM   C13F14020   6.060   1.919   7.750  0.5144  0.0879  0.6068
  130OSM   H13F14021   6.034   2.026   7.744  1.7528  0.5329  2.2092
  130OSM   H13G14022   6.166   1.921   7.715  0.1236  0.4358 -0.5778
  130OSM   C14F14023   6.044   1.887   7.898  0.1968  0.1270 -0.3626
  130OSM   H14F14024   6.043   1.776   7.903  0.0115  0.1566  0.3455
  130OSM   H14G14025   5.944   1.925   7.929  0.3591  1.3024 -1.2211
  130OSM   C15F14026   6.161   1.918   7.995  0.1136 -0.5894 -0.2067
  130OSM   H15F14027   6.159   2.027   8.015  0.1857 -0.4658 -0.8628
  130OSM   H15G14028   6.250   1.892   7.935  0.1809  0.9757 -0.8205
  130OSM   C16F14029   6.160   1.841   8.135  0.1311 -0.3986  0.2933
  130OSM   H16F14030   6.119   1.738   8.128  0.9459 -0.8701  2.0920
  130OSM   H16G14031   6.093   1.896   8.205 -0.4147  1.3538 -1.4968
  130OSM   C17F14032   6.297   1.827   8.201  0.4154 -0.2525  0.3689
  130OSM   H17F14033   6.350   1.925   8.192  0.6153 -0.4907 -1.2560
  130OSM   H17G14034   6.359   1.758   8.140 -0.1713 -0.4065 -0.0593
  130OSM   C18F14035   6.295   1.791   8.347  0.4697  0.0785 -0.2208
  130OSM   H18F14036   6.228   1.856   8.407  2.2144  1.0676  0.7258
  130OSM   H18G14037   6.396   1.798   8.392  0.4323 -0.9711  0.0609
  130OSM   H18H14038   6.265   1.684   8.358 -2.4486  0.8760  0.5184
  131OSM      N14039   4.328   0.229   6.117  0.3676  0.4050  0.2438
  131OSM    C1514040   4.463   0.261   6.167 -0.8536 -0.0436 -0.6028
  131OSM   H15A14041   4.527   0.195   6.110 -0.4429  0.2538 -0.4879
  131OSM   H15B14042   4.474   0.247   6.273  0.0152 -0.5034 -0.7489
  131OSM   H15C14043   4.481   0.367   6.153  0.3975 -0.1357  0.1735
  131OSM    C1414044   4.230   0.313   6.196 -0.3087 -0.0785 -0.5534
  131OSM   H14A14045   4.247   0.274   6.296  0.0497 -0.1147 -0.6264
  131OSM   H14B14046   4.125   0.305   6.175 -0.4596  2.0623 -0.7628
  131OSM   H14C14047   4.262   0.416   6.189  1.9042 -0.7035 -0.5531
  131OSM    C1314048   4.329   0.279   5.980 -0.2839  0.0521  0.6712
  131OSM   H13A14049   4.335   0.386   5.968  0.6947  0.2411  2.5065
  131OSM   H13B14050   4.231   0.255   5.942 -1.3339  0.3162  3.0477
  131OSM   H13C14051   4.408   0.232   5.924 -0.0368  0.5688  0.5765
  131OSM    C1214052   4.301   0.078   6.110  0.4872  0.1057 -0.0527
  131OSM   H12A14053   4.197   0.069   6.079  1.1450  0.7181 -2.7550
  131OSM   H12B14054   4.309   0.031   6.207 -1.6700 -0.6646 -0.1778
  131OSM    C1114055   4.390  -0.008   6.019 -0.1992  0.0017  0.7963
  131OSM   H11A14056   4.391   0.024   5.912  1.6727  0.9449  1.0544
  131OSM   H11B14057   4.335  -0.104   6.014  0.8090 -0.5291 -0.5396
  131OSM      P14058   4.572  -0.155   6.142 -0.0641  0.2907 -0.0106
  131OSM    O1314059   4.507  -0.270   6.082 -0.6827 -0.0156 -0.1728
  131OSM    O1414060   4.721  -0.166   6.144 -0.6311 -0.1857  0.1346
  131OSM    O1114061   4.525  -0.142   6.285  0.1527 -0.1494 -0.6257
  131OSM    O1214062   4.526  -0.018   6.071 -0.2382  0.3291 -0.0797
  131OSM    C1S14063   4.554  -0.018   6.355  0.3714  0.9930  0.4532
  131OSM    H1S14064   4.486   0.055   6.307 -0.3254 -0.4046 -0.7367
  131OSM    H1T14065   4.662   0.009   6.358  0.7507 -0.3573 -0.1510
  131OSM     NF14066   4.486   0.099   6.558  0.0020 -0.2296 -0.4352
  131OSM    HNF14067   4.550   0.123   6.630 -0.6776 -1.6379  0.6856
  131OSM    C2S14068   4.500  -0.034   6.500 -0.0333 -0.3244  0.7491
  131OSM    H2S14069   4.400  -0.082   6.499 -0.6515  0.9362  0.3544
  131OSM    C3S14070   4.602  -0.127   6.573 -0.2419 -0.4191 -0.2698
  131OSM    H3S14071   4.702  -0.078   6.567 -0.1802 -0.4545  0.3679
  131OSM     O314072   4.613  -0.248   6.514  0.1737 -0.0016 -0.4215
  131OSM    HO314073   4.564  -0.231   6.433  0.1944 -1.1751 -0.6950
  131OSM    C4S14074   4.576  -0.139   6.715  0.6406  0.0904  0.2557
  131OSM    H4S14075   4.647  -0.086   6.781 -0.3226  0.2924  1.1622
  131OSM    C5S14076   4.467  -0.205   6.760 -0.2342 -1.3674 -0.5384
  131OSM    H5S14077   4.391  -0.245   6.692 -0.7653  0.1943 -0.9119
  131OSM    C6S14078   4.441  -0.216   6.909 -0.0359  0.2136 -0.1183
  131OSM    H6S14079   4.497  -0.142   6.970  0.0354 -0.6687  0.9048
  131OSM    H6T14080   4.481  -0.316   6.936  0.0174 -0.5508 -2.7260
  131OSM    C7S14081   4.292  -0.210   6.944 -0.5000  0.2855  0.0077
  131OSM    H7S14082   4.237  -0.284   6.883 -0.5127  1.2853 -1.2424
  131OSM    H7T14083   4.256  -0.109   6.914  1.8497  1.4249  0.7797
  131OSM    C8S14084   4.276  -0.216   7.096  0.9116 -0.5501 -0.1779
  131OSM    H8S14085   4.340  -0.150   7.159 -0.5572  1.3166 -0.5530
  131OSM    H8T14086   4.308  -0.318   7.128  1.1258 -0.8072 -1.1864
  131OSM    C9S14087   4.129  -0.188   7.138 -0.1287 -0.1238  0.1471
  131OSM    H9S14088   4.063  -0.260   7.086 -2.3203  1.9164 -0.0607
  131OSM    H9T14089   4.102  -0.083   7.114  0.6316  0.3700  1.3148
  131OSM   C10S14090   4.101  -0.202   7.288 -0.1564  0.0394 -0.4218
  131OSM   H10S14091   4.185  -0.154   7.342 -0.8238  0.4584  0.2695
  131OSM   H10T14092   4.113  -0.309   7.316  0.0403  0.2948  0.5059
  131OSM   C11S14093   3.969  -0.147   7.345 -0.1098  0.2178  0.1617
  131OSM   H11S14094   3.895  -0.176   7.267  0.1765 -0.7815  0.2471
  131OSM   H11T14095   3.987  -0.038   7.341  1.2130  0.1143  1.8521
  131OSM   C12S14096   3.924  -0.200   7.487  0.5716 -0.4581  0.4965
  131OSM   H12S14097   3.985  -0.165   7.573 -0.8214  0.1788  1.2674
  131OSM   H12T14098   3.916  -0.310   7.476 -0.3189 -0.6091  2.2598
  131OSM   C13S14099   3.789  -0.141   7.534 -0.5616 -0.2678  0.2230
  131OSM   H13S14100   3.700  -0.182   7.481 -0.7502  0.8033 -0.3238
  131OSM   H13T14101   3.787  -0.031   7.518  0.6728 -0.2448  0.1216
  131OSM   C14S14102   3.750  -0.164   7.683 -0.5488 -0.2141  0.5805
  131OSM   H14S14103   3.835  -0.130   7.746  0.5083  3.1608 -2.3778
  131OSM   H14T14104   3.737  -0.273   7.702 -0.3795 -0.1112  1.3396
  131OSM   C15S14105   3.626  -0.094   7.731 -0.2476 -0.7844 -0.5506
  131OSM   H15S14106   3.538  -0.143   7.683 -0.9346  0.0967 -0.2038
  131OSM   H15T14107   3.631   0.014   7.704 -2.5531  0.0818  2.0636
  131OSM   C16S14108   3.601  -0.092   7.882  0.4318  0.0254 -0.1985
  131OSM   H16S14109   3.621  -0.197   7.911  0.1523  0.1966  0.6630
  131OSM   H16T14110   3.498  -0.055   7.902  1.0322  0.5655  2.3303
  131OSM   C17S14111   3.694  -0.012   7.971 -0.1931  0.9269 -0.1309
  131OSM   H17S14112   3.799  -0.034   7.940  0.2315  2.7179 -0.0835
  131OSM   H17T14113   3.675  -0.060   8.069 -1.1711 -0.9143 -1.1643
  131OSM   C18S14114   3.656   0.130   7.979  0.3275 -0.3450  0.1370
  131OSM   H18S14115   3.727   0.195   8.034  0.9080  0.6351 -1.6967
  131OSM   H18T14116   3.549   0.137   8.009  0.1553 -2.2369  0.1013
  131OSM   H18U14117   3.655   0.173   7.876 -4.6570 -0.1695 -0.0053
  131OSM    C1F14118   4.394   0.194   6.529  0.3610  0.4604 -0.2657
  131OSM     OF14119   4.298   0.163   6.466  0.1603  0.1963 -0.1704
  131OSM    C2F14120   4.421   0.335   6.580  0.2204 -1.0160  1.1429
  131OSM    H2F14121   4.437   0.408   6.498  2.2613 -0.1262  2.2657
  131OSM    H2G14122   4.514   0.329   6.641  1.5998 -0.5628 -0.8146
  131OSM    C3F14123   4.313   0.396   6.676  0.5462  0.3204  0.2394
  131OSM    H3F14124   4.213   0.399   6.628 -0.3417 -0.7037  1.9291
  131OSM    H3G14125   4.328   0.505   6.693  1.7296  0.3501 -0.8405
  131OSM    C4F14126   4.321   0.336   6.812  1.0748  0.5957 -0.5698
  131OSM    H4F14127   4.421   0.347   6.860  0.3754  0.5121  0.9702
  131OSM    H4G14128   4.297   0.228   6.797  0.0407  0.5659  1.0678
  131OSM    C5F14129   4.214   0.377   6.908 -0.6292 -0.2634 -0.3722
  131OSM    H5F14130   4.117   0.357   6.857 -1.3757 -0.1560  0.9512
  131OSM    H5G14131   4.217   0.487   6.924  2.1924 -0.7197  3.9159
  131OSM    C6F14132   4.196   0.305   7.042  0.0749 -0.4447  0.1943
  131OSM    H6F14133   4.182   0.197   7.020 -1.9895 -0.0563 -0.5472
  131OSM    H6G14134   4.093   0.323   7.080 -0.5789 -0.4742 -1.4921
  131OSM    C7F14135   4.307   0.322   7.143 -0.3972  0.2150 -0.1125
  131OSM    H7F14136   4.303   0.425   7.187 -1.4589  0.1933 -0.1263
  131OSM    H7G14137   4.403   0.326   7.088  0.6399  2.0128  1.6786
  131OSM    C8F14138   4.331   0.210   7.237  0.2123 -0.0266  0.0261
  131OSM    H8F14139   4.421   0.240   7.295 -0.1474  1.6513 -0.2134
  131OSM    H8G14140   4.361   0.119   7.182  3.3750  0.8237  0.1489
  131OSM    C9F14141   4.214   0.201   7.328  0.9746  0.3308  0.7786
  131OSM    H9F14142   4.123   0.159   7.282  1.4726 -1.7356  1.5292
  131OSM   C10F14143   4.207   0.247   7.450  0.4619  0.3008 -0.1378
  131OSM   H10F14144   4.111   0.240   7.502 -0.1039  0.0769 -1.1783
  131OSM   C11F14145   4.312   0.316   7.529  0.4741 -0.0867 -0.0087
  131OSM   H11F14146   4.413   0.280   7.498  1.2058  0.5915  1.5090
  131OSM   H11G14147   4.293   0.300   7.637 -1.6355  1.0826 -0.1567
  131OSM   C12F14148   4.306   0.468   7.512  0.3176 -0.0398 -0.0563
  131OSM   H12F14149   4.211   0.510   7.551 -0.8165 -0.7917 -1.8819
  131OSM   H12G14150   4.309   0.490   7.404  0.5452 -0.1230 -0.0669
  131OSM   C13F14151   4.414   0.539   7.589 -0.0570 -0.0594 -0.5986
  131OSM   H13F14152   4.507   0.527   7.528  0.5104 -2.2378  0.6138
  131OSM   H13G14153   4.435   0.498   7.690  3.6772 -0.9613 -1.5695
  131OSM   C14F14154   4.390   0.686   7.614  0.7866  0.3409 -0.1863
  131OSM   H14F14155   4.353   0.746   7.528  1.7536  0.9484 -0.2005
  131OSM   H14G14156   4.484   0.745   7.624  0.8341  0.3536 -0.6709
  131OSM   C15F14157   4.297   0.717   7.732  0.9227 -0.2470 -0.3639
  131OSM   H15F14158   4.362   0.699   7.820  0.7323  2.2464  0.3663
  131OSM   H15G14159   4.202   0.659   7.736  0.2140  0.9531  0.7312
  131OSM   C16F14160   4.254   0.863   7.728  0.6497 -0.0489  0.4559
  131OSM   H16F14161   4.212   0.881   7.627  0.4461 -0.5211  0.4537
  131OSM   H16G14162   4.352   0.915   7.740  1.9598 -1.2217 -3.6398
  131OSM   C17F14163   4.148   0.907   7.827  0.4745  0.1303  0.3246
  131OSM   H17F14164   4.052   0.862   7.796 -0.0678  0.9789  0.7324
  131OSM   H17G14165   4.137   1.017   7.817  1.0103  0.1617  0.0225
  131OSM   C18F14166   4.174   0.873   7.971  0.3102  0.0756  0.1694
  131OSM   H18F14167   4.227   0.954   8.026  3.6557 -1.2266 -0.8783
  131OSM   H18G14168   4.238   0.782   7.972 -0.3853 -0.4364 -0.5593
  131OSM   H18H14169   4.080   0.842   8.021  0.6609  0.5674  1.1698
  132OSM      N14170   6.831   1.108   5.915 -0.5148 -0.5374  0.3634
  132OSM    C1514171   6.827   0.987   5.833  0.1694  0.6438  0.2421
  132OSM   H15A14172   6.883   0.907   5.880 -0.5570 -1.9357 -2.9092
  132OSM   H15B14173   6.874   1.001   5.737 -0.2909 -0.2811 -0.1355
  132OSM   H15C14174   6.727   0.954   5.807  0.7310 -0.0057 -1.2134
  132OSM    C1414175   6.969   1.161   5.916 -0.3784  0.5187 -0.2827
  132OSM   H14A14176   7.041   1.089   5.951  0.1403  0.1149 -2.0816
  132OSM   H14B14177   6.953   1.247   5.979  0.0066 -0.2695  0.9325
  132OSM   H14C14178   6.998   1.197   5.818 -0.9645 -1.0574 -1.0570
  132OSM    C1314179   6.748   1.207   5.837 -0.2619  0.1491 -0.0189
  132OSM   H13A14180   6.648   1.175   5.811 -0.2291  0.9624 -1.2384
  132OSM   H13B14181   6.806   1.238   5.751  2.0368 -1.2057  0.9573
  132OSM   H13C14182   6.747   1.296   5.899  2.2148  0.0231  0.3252
  132OSM    C1214183   6.791   1.077   6.047 -0.2366 -0.3003  0.1604
  132OSM   H12A14184   6.872   1.029   6.100  0.9318  0.0173 -1.2710
  132OSM   H12B14185   6.700   1.020   6.041 -0.6284  0.2551  0.6807
  132OSM    C1114186   6.735   1.192   6.131 -0.6147 -0.5548  0.0193
  132OSM   H11A14187   6.699   1.141   6.223 -2.1149  1.5075  0.6414
  132OSM   H11B14188   6.643   1.243   6.098  0.0561  0.1192 -0.8418
  132OSM      P14189   6.883   1.316   6.297 -0.2053  0.1111  0.3785
  132OSM    O1314190   7.000   1.405   6.280  0.0986  0.5838 -0.6041
  132OSM    O1414191   6.776   1.373   6.375  0.3876  0.3330 -0.1634
  132OSM    O1114192   6.922   1.167   6.345 -0.2541  0.3213  0.5481
  132OSM    O1214193   6.829   1.297   6.155 -0.7332  0.5168 -0.2336
  132OSM    C1S14194   6.991   1.147   6.465  0.9109 -0.1608  0.0559
  132OSM    H1S14195   7.071   1.221   6.486  0.8491  0.0941 -0.5857
  132OSM    H1T14196   7.054   1.056   6.450  1.6621  0.5456 -1.2273
  132OSM     NF14197   6.971   1.153   6.706  0.0536  0.0341 -0.0824
  132OSM    HNF14198   6.989   1.067   6.755  2.6602  0.7763  0.4130
  132OSM    C2S14199   6.889   1.128   6.586  0.1790 -0.0725 -0.1835
  132OSM    H2S14200   6.809   1.204   6.582 -2.2560 -2.3249  2.0762
  132OSM    C3S14201   6.828   0.990   6.576 -0.4368 -0.4712 -0.5918
  132OSM    H3S14202   6.909   0.914   6.566 -0.8099 -0.9710  0.1285
  132OSM     O314203   6.745   0.977   6.462  0.2777  0.4916  0.0152
  132OSM    HO314204   6.774   1.038   6.394 -2.6598  1.9509 -0.1087
  132OSM    C4S14205   6.761   0.958   6.703 -0.3453  0.6714  0.3298
  132OSM    H4S14206   6.817   0.910   6.784 -2.1749 -1.2209  0.5726
  132OSM    C5S14207   6.638   0.997   6.756 -0.2358 -1.0037  0.5296
  132OSM    H5S14208   6.570   1.052   6.689  2.2288  0.5986 -0.8499
  132OSM    C6S14209   6.584   0.943   6.889  0.1840  0.0335  0.0411
  132OSM    H6S14210   6.500   0.873   6.870 -0.3064  1.0526 -1.8785
  132OSM    H6T14211   6.544   1.016   6.962 -0.8608 -0.9901  0.5287
  132OSM    C7S14212   6.674   0.846   6.975  0.1477  0.1314  0.2966
  132OSM    H7S14213   6.741   0.907   7.038 -0.8161  1.3648  0.1671
  132OSM    H7T14214   6.723   0.766   6.915 -0.7449  0.5865 -1.1142
  132OSM    C8S14215   6.590   0.767   7.090 -0.1379 -1.1411 -0.1239
  132OSM    H8S14216   6.573   0.675   7.029 -2.0655 -1.3228  0.6154
  132OSM    H8T14217   6.496   0.826   7.100  0.4650 -0.3056  0.6941
  132OSM    C9S14218   6.657   0.737   7.223 -0.1596 -0.2034  0.0558
  132OSM    H9S14219   6.745   0.677   7.192 -0.5872 -0.8420  0.0457
  132OSM    H9T14220   6.591   0.681   7.292  0.0883 -0.9742 -0.3213
  132OSM   C10S14221   6.712   0.862   7.294 -0.0018  0.2011 -0.6851
  132OSM   H10S14222   6.627   0.924   7.332 -1.5877 -2.2028 -0.0971
  132OSM   H10T14223   6.779   0.934   7.242  1.4985  0.0899  0.9937
  132OSM   C11S14224   6.785   0.816   7.422 -0.0056 -0.8663  0.1453
  132OSM   H11S14225   6.834   0.905   7.467  1.5468 -1.0519 -1.0719
  132OSM   H11T14226   6.862   0.740   7.394  1.2888  0.3777  0.2353
  132OSM   C12S14227   6.702   0.757   7.537  0.7200  0.9274  0.4202
  132OSM   H12S14228   6.651   0.662   7.510 -0.7606  0.8149  3.2768
  132OSM   H12T14229   6.615   0.824   7.555 -1.0000 -0.9726 -0.4761
  132OSM   C13S14230   6.783   0.758   7.668 -0.2579 -0.0929  0.3202
  132OSM   H13S14231   6.754   0.847   7.728 -2.5178  0.0398 -0.8507
  132OSM   H13T14232   6.892   0.745   7.654  0.1129  1.8253  1.1617
  132OSM   C14S14233   6.749   0.632   7.759 -0.2431 -0.1715  1.2179
  132OSM   H14S14234   6.794   0.539   7.719 -0.2621  0.6607 -0.8326
  132OSM   H14T14235   6.638   0.620   7.764 -0.2504 -0.4586  0.4855
  132OSM   C15S14236   6.799   0.668   7.895  0.7073  0.7158 -0.0969
  132OSM   H15S14237   6.762   0.768   7.928 -0.9313 -0.2801  1.2494
  132OSM   H15T14238   6.909   0.673   7.909  0.4737  3.3645  1.7324
  132OSM   C16S14239   6.744   0.569   7.999 -0.2186  0.2346  1.2740
  132OSM   H16S14240   6.633   0.562   7.988  0.0753 -0.8485 -2.1105
  132OSM   H16T14241   6.778   0.600   8.100 -0.7229  1.0698  1.1931
  132OSM   C17S14242   6.804   0.426   7.985  0.4786 -0.2999  1.2001
  132OSM   H17S14243   6.913   0.448   7.989  0.2891  0.7575  0.8621
  132OSM   H17T14244   6.776   0.370   7.894 -2.6284 -0.8327  2.3629
  132OSM   C18S14245   6.777   0.317   8.085  0.4904  0.1249  0.0057
  132OSM   H18S14246   6.725   0.229   8.041  0.7463  0.1247 -0.3059
  132OSM   H18T14247   6.708   0.342   8.167 -0.2864 -3.3490  0.5457
  132OSM   H18U14248   6.872   0.279   8.128 -0.2416 -2.2839 -0.3561
  132OSM    C1F14249   7.018   1.279   6.742 -0.3459  0.2375 -0.0136
  132OSM     OF14250   6.992   1.385   6.687 -0.7331 -0.4440 -0.3394
  132OSM    C2F14251   7.117   1.275   6.854  0.1104 -0.1923 -0.1152
  132OSM    H2F14252   7.165   1.175   6.853  0.7197  0.0847 -2.0822
  132OSM    H2G14253   7.065   1.279   6.953 -0.6223  1.4198 -0.5319
  132OSM    C3F14254   7.219   1.397   6.844  0.3699  0.0566  0.0375
  132OSM    H3F14255   7.150   1.483   6.838  0.1280  0.2919  3.7846
  132OSM    H3G14256   7.286   1.390   6.755 -2.4720 -0.3052 -2.2083
  132OSM    C4F14257   7.287   1.437   6.981  0.8815 -1.4216  0.6619
  132OSM    H4F14258   7.234   1.519   7.033  2.5598  0.2148 -0.0911
  132OSM    H4G14259   7.382   1.482   6.943 -1.2778  1.4551 -1.7981
  132OSM    C5F14260   7.328   1.321   7.068 -0.1759  0.2522 -0.2822
  132OSM    H5F14261   7.331   1.223   7.016  0.6990  0.6218 -0.9373
  132OSM    H5G14262   7.251   1.315   7.148  2.7268  1.9625  2.9135
  132OSM    C6F14263   7.462   1.331   7.149 -0.4853  0.1953  0.3286
  132OSM    H6F14264   7.478   1.430   7.197  1.5369 -0.3826  0.9133
  132OSM    H6G14265   7.545   1.325   7.076 -1.0517 -1.1159 -0.2249
  132OSM    C7F14266   7.471   1.220   7.253 -0.8751 -0.2959 -0.7755
  132OSM    H7F14267   7.577   1.195   7.273 -1.0594 -0.6859 -0.2893
  132OSM    H7G14268   7.423   1.132   7.206 -0.4568  0.2151 -2.2275
  132OSM    C8F14269   7.409   1.255   7.386  0.9342 -0.2163  0.9916
  132OSM    H8F14270   7.370   1.160   7.427 -2.2203  0.5861  0.1374
  132OSM    H8G14271   7.315   1.314   7.374  0.3277 -1.5564 -1.3235
  132OSM    C9F14272   7.501   1.346   7.472 -0.5026  0.2689 -0.4850
  132OSM    H9F14273   7.537   1.439   7.427 -2.3746  1.4561  0.3391
  132OSM   C10F14274   7.545   1.310   7.596 -1.0034 -0.3725  0.4177
  132OSM   H10F14275   7.625   1.376   7.634 -0.5323  1.7395 -3.7396
  132OSM   C11F14276   7.505   1.186   7.680 -0.0793  0.1393 -0.1681
  132OSM   H11F14277   7.524   1.095   7.618 -0.5404  1.1201 -1.8005
  132OSM   H11G14278   7.398   1.202   7.707 -0.0766 -2.1521  1.5777
  132OSM   C12F14279   7.582   1.179   7.814 -0.2129  0.1225  0.5858
  132OSM   H12F14280   7.688   1.149   7.801 -0.5704 -0.9985  0.1849
  132OSM   H12G14281   7.533   1.101   7.876 -2.5902  0.1253 -1.1597
  132OSM   C13F14282   7.569   1.304   7.911  0.3223  0.7442 -0.0995
  132OSM   H13F14283   7.479   1.298   7.975 -1.6477  3.4381 -2.3924
  132OSM   H13G14284   7.549   1.395   7.849 -1.4862  1.9372  2.1146
  132OSM   C14F14285   7.704   1.318   7.981  0.0594 -0.2188 -0.2560
  132OSM   H14F14286   7.785   1.323   7.905 -0.4001 -0.2478 -0.7494
  132OSM   H14G14287   7.721   1.231   8.048 -2.8374 -0.2213  0.6206
  132OSM   C15F14288   7.718   1.442   8.066  0.3202 -0.2877 -0.3228
  132OSM   H15F14289   7.632   1.438   8.136  0.7198 -0.0227  0.1915
  132OSM   H15G14290   7.703   1.530   8.000  0.4623 -0.9072 -1.1925
  132OSM   C16F14291   7.849   1.444   8.147 -0.1684  1.1003  0.2830
  132OSM   H16F14292   7.837   1.379   8.237 -0.4010 -0.9424 -1.1470
  132OSM   H16G14293   7.879   1.547   8.177  1.3686  0.3725  1.3607
  132OSM   C17F14294   7.978   1.397   8.055  0.3921 -0.2546  1.1907
  132OSM   H17F14295   7.975   1.452   7.959  1.0754 -0.3323  1.1197
  132OSM   H17G14296   7.966   1.288   8.037 -1.6633  0.0517  0.4590
  132OSM   C18F14297   8.109   1.420   8.122  0.2435 -0.4610  1.0721
  132OSM   H18F14298   8.135   1.528   8.118  0.5679 -0.5447  0.8557
  132OSM   H18G14299   8.189   1.369   8.064 -0.0917  1.3145 -1.1151
  132OSM   H18H14300   8.099   1.385   8.227 -0.5951 -1.8316  0.5720
  133SAPE     N14301   2.633   6.323  10.632 -0.0575  0.3428 -0.1986
  133SAPE   HN114302   2.574   6.269  10.565 -0.4362 -1.4417  1.4996
  133SAPE   HN214303   2.607   6.424  10.627  1.9905  0.9328  0.2922
  133SAPE   HN314304   2.732   6.326  10.601 -0.1608  0.1380 -0.5551
  133SAPE   C1214305   2.614   6.247  10.759 -0.5963 -0.1323  0.4161
  133SAPE  H12A14306   2.508   6.263  10.788 -0.4934  1.0196  0.2146
  133SAPE  H12B14307   2.675   6.294  10.839 -0.8295 -0.3572  0.7286
  133SAPE   C1114308   2.660   6.098  10.740 -0.0156  0.4276  0.5289
  133SAPE  H11A14309   2.646   6.037  10.832 -1.5299  0.2273  0.1868
  133SAPE  H11B14310   2.768   6.106  10.713  0.2806  2.1605  2.0721
  133SAPE     P14311   2.460   5.960  10.657 -0.7013  0.2481  0.0019
  133SAPE   O1314312   2.475   5.811  10.675 -0.2495 -0.0848  0.2924
  133SAPE   O1414313   2.387   6.025  10.764 -0.0198  0.1176  0.1267
  133SAPE   O1214314   2.597   6.028  10.637 -0.3759 -0.6067  0.5243
  133SAPE   O1114315   2.392   5.976  10.520  0.1974 -0.2540 -0.2102
  133SAPE    C114316   2.332   5.876  10.442  0.4787 -0.2991  0.1697
  133SAPE    HA14317   2.287   5.797  10.506  1.4556 -1.5198 -0.6064
  133SAPE    HB14318   2.244   5.914  10.385 -1.2779 -0.6412  2.4877
  133SAPE    C214319   2.418   5.805  10.343 -0.3671 -0.1815 -0.1219
  133SAPE    HS14320   2.504   5.776  10.406 -1.7980 -0.4812  1.7671
  133SAPE   O2114321   2.449   5.903  10.245  0.2786  0.3945  0.0473
  133SAPE   C2114322   2.575   5.906  10.196 -0.0898  0.2606  0.1136
  133SAPE   O2214323   2.664   5.836  10.234 -0.1192  0.4305 -0.1967
  133SAPE   C2214324   2.587   6.028  10.101  0.0480  1.4080 -0.8513
  133SAPE   H2R14325   2.482   6.063  10.084 -1.2141 -1.4644  0.4041
  133SAPE   H2S14326   2.640   6.097  10.169  1.0309 -1.6325  1.6900
  133SAPE    C314327   2.345   5.681  10.276  0.4142 -0.0078  0.9178
  133SAPE    HX14328   2.255   5.722  10.226 -0.6162 -0.9393  1.9515
  133SAPE    HY14329   2.314   5.602  10.348 -0.6133  0.2193  0.7344
  133SAPE   O3114330   2.417   5.637  10.158 -0.4487 -0.9075 -0.1564
  133SAPE   C3114331   2.509   5.543  10.176 -0.0206  0.0716  0.4894
  133SAPE   O3214332   2.523   5.473  10.276 -0.6946  0.3500 -0.1016
  133SAPE   C3214333   2.597   5.526  10.048 -0.0219  0.1868  0.0217
  133SAPE   H2X14334   2.702   5.522  10.082  0.2918  1.1826 -0.7518
  133SAPE   H2Y14335   2.597   5.621   9.991 -0.8764  0.1786 -0.0129
  133SAPE   C2314336   2.676   6.018   9.974  0.4648 -0.1032 -0.1470
  133SAPE   H3R14337   2.777   5.979  10.001  0.3538  0.9715  2.0397
  133SAPE   H3S14338   2.697   6.119   9.933  1.8290  0.5012  1.8786
  133SAPE   C2414339   2.605   5.935   9.860  0.2083 -0.1744  0.5278
  133SAPE   H4R14340   2.496   5.957   9.860  0.6733  3.6891 -3.6884
  133SAPE   H4S14341   2.618   5.832   9.897 -0.2047 -0.9484 -1.3497
  133SAPE   C2514342   2.662   5.950   9.722 -0.7935  0.1010  0.5109
  133SAPE   H5R14343   2.653   6.052   9.684  0.5832  0.0430 -0.0356
  133SAPE   C2614344   2.739   5.858   9.656  0.3807 -0.5791 -0.5293
  133SAPE   H6R14345   2.783   5.897   9.563  0.5609  1.5031  0.3810
  133SAPE   C2714346   2.794   5.724   9.699  0.2087 -0.4002  0.1444
  133SAPE   H7R14347   2.764   5.658   9.615  0.8809  0.4444 -0.7762
  133SAPE   H7S14348   2.734   5.693   9.787  0.1551 -0.5904  0.0409
  133SAPE   C2814349   2.948   5.730   9.731  0.7588 -0.5673 -0.3435
  133SAPE   H8R14350   2.984   5.784   9.819 -0.4032 -0.1584 -0.1053
  133SAPE   C2914351   3.040   5.675   9.653  0.0294  0.0031  0.4285
  133SAPE   H9R14352   3.146   5.683   9.679 -0.2325 -1.6516  2.2009
  133SAPE  C21014353   3.013   5.613   9.519  0.1095 -0.5623  0.1944
  133SAPE  H10R14354   2.971   5.689   9.449 -0.7591 -0.5754  0.6894
  133SAPE  H10S14355   2.932   5.537   9.518 -0.8055  0.3669  0.8187
  133SAPE  C21114356   3.139   5.547   9.465 -0.4801 -0.1144  0.0315
  133SAPE  H11R14357   3.220   5.543   9.540 -0.8219  0.1827  0.4302
  133SAPE  C21214358   3.145   5.489   9.343  0.1950  0.8987 -0.0476
  133SAPE  H12R14359   3.242   5.448   9.312  0.4444 -1.1391  3.0256
  133SAPE  C21314360   3.031   5.485   9.244  0.2292 -0.1279  0.4641
  133SAPE  H13R14361   3.079   5.538   9.159  0.5186 -1.1034  0.0174
  133SAPE  H13S14362   2.934   5.534   9.269  0.1272  0.6051 -1.2772
  133SAPE  C21414363   3.008   5.343   9.199 -0.1972 -0.4482  0.8803
  133SAPE  H14R14364   3.014   5.261   9.272  0.7624 -0.0827  1.2227
  133SAPE  C21514365   2.991   5.305   9.071  0.5203  0.6893  0.4959
  133SAPE  H15R14366   2.972   5.200   9.041 -0.7228  0.9006  0.4770
  133SAPE  C21614367   2.980   5.401   8.961  0.3870 -0.1639  0.8057
  133SAPE  H16R14368   2.919   5.486   8.998 -0.2535 -0.7938  1.2295
  133SAPE  H16S14369   2.918   5.353   8.883  1.5646  0.4344 -0.5554
  133SAPE  C21714370   3.105   5.443   8.885  0.4635 -0.3254  0.2744
  133SAPE  H17R14371   3.158   5.353   8.848  1.2800  0.6070 -0.9179
  133SAPE  H17S14372   3.167   5.500   8.957 -0.2796  0.5297  0.2493
  133SAPE  C21814373   3.080   5.549   8.771 -0.3098 -0.0221  0.0722
  133SAPE  H18R14374   3.022   5.507   8.685  0.9530  0.1360 -0.8903
  133SAPE  H18S14375   3.174   5.592   8.730 -0.8296  0.0897 -1.0619
  133SAPE  C21914376   2.998   5.669   8.820 -0.4751 -0.5196 -0.4638
  133SAPE  H19R14377   3.018   5.687   8.928  1.2326 -0.7509 -0.7242
  133SAPE  H19S14378   2.889   5.654   8.804 -1.1400  3.1216 -0.2388
  133SAPE  C22014379   3.035   5.804   8.755 -0.7957 -0.5441 -0.0384
  133SAPE  H20R14380   2.979   5.887   8.803 -0.5848 -0.7264  0.5307
  133SAPE  H20S14381   3.025   5.791   8.645  1.2361  0.0165 -0.3298
  133SAPE  H20T14382   3.140   5.832   8.776 -0.5105 -0.8018 -1.0474
  133SAPE   C3314383   2.540   5.400   9.966  1.0545  0.0505 -0.5173
  133SAPE   H3X14384   2.429   5.401   9.965  1.0125  0.1462  1.2343
  133SAPE   H3Y14385   2.559   5.307  10.025  1.0725 -1.3985 -2.6862
  133SAPE   C3414386   2.610   5.385   9.833  0.2052  0.2262 -0.4778
  133SAPE   H4X14387   2.689   5.307   9.831  0.9843  0.8318  2.4385
  133SAPE   H4Y14388   2.662   5.482   9.816  0.5801  0.5801  2.2675
  133SAPE   C3514389   2.512   5.361   9.715 -0.2368  0.1840  0.1991
  133SAPE   H5X14390   2.428   5.433   9.729 -0.5368 -0.2538  0.7347
  133SAPE   H5Y14391   2.462   5.262   9.711  1.1504 -0.5310 -0.0109
  133SAPE   C3614392   2.572   5.389   9.580 -0.0503 -0.3726  0.4384
  133SAPE   H6X14393   2.682   5.373   9.575  0.0244  0.3575 -2.8171
  133SAPE   H6Y14394   2.564   5.498   9.559 -2.9445 -0.2375  1.7826
  133SAPE   C3714395   2.513   5.310   9.458  0.4491 -0.5786  0.1988
  133SAPE   H7X14396   2.405   5.331   9.444  0.5135 -1.9704 -3.6444
  133SAPE   H7Y14397   2.515   5.204   9.490  0.1514 -1.0087 -1.1453
  133SAPE   C3814398   2.596   5.337   9.331  0.3096  0.2121  0.0244
  133SAPE   H8X14399   2.701   5.303   9.346 -0.1933 -1.3806  0.1396
  133SAPE   H8Y14400   2.594   5.447   9.324  0.6455  0.1911 -0.3976
  133SAPE   C3914401   2.538   5.270   9.205 -0.0050 -0.5577  0.7251
  133SAPE   H9X14402   2.593   5.303   9.114 -0.8176  0.1720  0.4868
  133SAPE   H9Y14403   2.434   5.306   9.192  0.0078 -1.0849 -1.0317
  133SAPE  C31014404   2.538   5.119   9.200 -0.1183 -0.0405 -0.3203
  133SAPE  H10X14405   2.492   5.078   9.292  0.9758 -0.7587 -0.0665
  133SAPE  H10Y14406   2.644   5.086   9.203 -0.1280 -0.0455 -0.0556
  133SAPE  C31114407   2.457   5.058   9.075 -0.0314 -0.9921 -0.0969
  133SAPE  H11X14408   2.355   5.101   9.075  0.9503  1.4788 -0.2147
  133SAPE  H11Y14409   2.444   4.949   9.095 -3.1578 -0.8442 -0.7463
  133SAPE  C31214410   2.516   5.090   8.940  0.3597  0.5256  0.3997
  133SAPE  H12X14411   2.513   5.201   8.937  0.3231  0.5029 -0.4964
  133SAPE  H12Y14412   2.462   5.067   8.847  0.0916  3.3242 -0.2272
  133SAPE  C31314413   2.660   5.041   8.919  0.2476 -0.4962 -0.0559
  133SAPE  H13X14414   2.661   4.931   8.936  0.9592 -0.2051  1.9985
  133SAPE  H13Y14415   2.727   5.081   8.998  0.4749  0.4665 -0.7178
  133SAPE  C31414416   2.718   5.094   8.779  0.7303  0.2060 -0.4802
  133SAPE  H14X14417   2.703   5.203   8.762  0.4120 -0.1275 -2.4749
  133SAPE  H14Y14418   2.652   5.043   8.706  1.0282 -0.7594 -0.0866
  133SAPE  C31514419   2.866   5.057   8.767 -0.8115 -0.6030 -0.3512
  133SAPE  H15X14420   2.930   5.101   8.846 -0.2644  0.6951 -1.4822
  133SAPE  H15Y14421   2.898   5.105   8.672  0.0934  0.8248  0.6353
  133SAPE  C31614422   2.894   4.900   8.755 -0.4695 -0.4957  0.4899
  133SAPE  H16X14423   2.805   4.849   8.712  0.4350 -0.9125 -0.9491
  133SAPE  H16Y14424   2.897   4.866   8.861  1.1993  0.9365  0.9609
  133SAPE  C31714425   3.013   4.867   8.673 -0.5063  0.3222  0.0097
  133SAPE  H17X14426   3.014   4.894   8.565  0.6956 -3.3575 -1.0644
  133SAPE  H17Y14427   3.006   4.756   8.673 -1.3189  0.3709  0.5506
  133SAPE  C31814428   3.147   4.918   8.727 -0.4029  0.6517 -0.7171
  133SAPE  H18X14429   3.168   4.874   8.826 -2.6509 -1.7139 -1.1623
  133SAPE  H18Y14430   3.153   5.028   8.740 -1.8496  0.6888 -0.1684
  133SAPE  H18Z14431   3.229   4.892   8.657 -1.8533  0.1911 -2.3235
  134SAPE     N14432   3.891   6.774  10.564  0.1140  0.1561  0.3238
  134SAPE   HN114433   3.965   6.717  10.611  2.3038  2.4136 -0.1545
  134SAPE   HN214434   3.835   6.817  10.641  1.1578  2.3130 -0.0418
  134SAPE   HN314435   3.829   6.710  10.512  2.3316 -1.2397 -0.7782
  134SAPE   C1214436   3.954   6.872  10.463 -0.7715  0.6942 -0.2230
  134SAPE  H12A14437   4.026   6.806  10.410 -1.4814 -1.9634  1.8917
  134SAPE  H12B14438   4.024   6.936  10.521 -1.6974  0.9322  0.6735
  134SAPE   C1114439   3.856   6.965  10.393 -0.2279 -0.3396  1.1233
  134SAPE  H11A14440   3.804   6.914  10.309  2.4731 -1.4535  0.0110
  134SAPE  H11B14441   3.909   7.049  10.344  0.5076 -0.9247  0.9024
  134SAPE     P14442   3.787   7.144  10.571 -0.2527  0.0656  0.0746
  134SAPE   O1314443   3.671   7.172  10.657 -0.3617  0.3190  0.3324
  134SAPE   O1414444   3.917   7.139  10.645 -0.0137  0.3001 -0.0646
  134SAPE   O1214445   3.760   7.019  10.477 -0.0888 -0.6882  0.2061
  134SAPE   O1114446   3.794   7.265  10.460  0.3445 -0.2765 -0.4627
  134SAPE    C114447   3.910   7.337  10.437 -0.0759  0.1151  0.4827
  134SAPE    HA14448   3.977   7.352  10.525 -0.7487  2.2772  0.6888
  134SAPE    HB14449   3.968   7.285  10.358  0.6071  2.1663 -0.4459
  134SAPE    C214450   3.888   7.482  10.376 -1.2899  0.0431 -0.6969
  134SAPE    HS14451   3.842   7.537  10.462  0.1712 -0.8899  0.7357
  134SAPE   O2114452   3.811   7.476  10.259 -0.7131  0.5966 -0.0082
  134SAPE   C2114453   3.706   7.565  10.256 -0.3734  0.4507 -0.3914
  134SAPE   O2214454   3.673   7.638  10.346  0.6003  0.3633  0.4284
  134SAPE   C2214455   3.653   7.570  10.106 -0.4193 -0.4651  0.0422
  134SAPE   H2R14456   3.668   7.466  10.069 -0.5987 -1.3221  2.2097
  134SAPE   H2S14457   3.545   7.597  10.106 -0.2590  0.2962 -1.4191
  134SAPE    C314458   4.030   7.550  10.346  0.4627  0.2847  0.1144
  134SAPE    HX14459   4.072   7.552  10.449 -1.8276 -4.0631  1.3792
  134SAPE    HY14460   4.032   7.653  10.303  0.1294 -0.0685 -0.7616
  134SAPE   O3114461   4.114   7.453  10.277 -0.2951 -0.3040  0.3064
  134SAPE   C3114462   4.114   7.458  10.147 -0.1327 -0.0018  0.5588
  134SAPE   O3214463   4.085   7.553  10.074 -0.2270 -0.4865 -0.1611
  134SAPE   C3214464   4.162   7.311  10.105  0.0054 -0.0455  0.3460
  134SAPE   H2X14465   4.098   7.229  10.144 -0.2601 -1.3886 -2.6173
  134SAPE   H2Y14466   4.263   7.299  10.150 -0.2845 -1.2577  0.7022
  134SAPE   C2314467   3.717   7.692  10.035 -0.6292 -0.1533 -0.4174
  134SAPE   H3R14468   3.827   7.696  10.051 -0.4292 -1.7674 -1.3030
  134SAPE   H3S14469   3.674   7.787  10.075  2.6545  1.5782 -0.6291
  134SAPE   C2414470   3.698   7.701   9.880 -0.0769 -0.0949  0.0808
  134SAPE   H4R14471   3.766   7.631   9.827 -1.8242 -0.1644 -2.2540
  134SAPE   H4S14472   3.735   7.802   9.850 -0.0989 -0.3123 -0.7088
  134SAPE   C2514473   3.554   7.677   9.839 -0.2470 -0.5345 -0.8484
  134SAPE   H5R14474   3.530   7.583   9.787  0.8724  1.0687 -4.6044
  134SAPE   C2614475   3.460   7.776   9.841 -0.8400 -0.0405 -0.2013
  134SAPE   H6R14476   3.355   7.752   9.819 -0.9563  1.0911 -0.9738
  134SAPE   C2714477   3.479   7.919   9.885 -0.7347 -0.0491 -0.0212
  134SAPE   H7R14478   3.581   7.930   9.927 -0.0459 -0.8620 -1.4376
  134SAPE   H7S14479   3.426   7.941   9.981  1.6606 -1.1183  1.6365
  134SAPE   C2814480   3.438   8.032   9.792 -0.4229  0.1386  0.4495
  134SAPE   H8R14481   3.352   8.092   9.826  1.0289  2.2666  0.5536
  134SAPE   C2914482   3.480   8.046   9.664 -0.2990 -0.1849 -0.6740
  134SAPE   H9R14483   3.430   8.132   9.617 -1.0961 -0.4653 -0.3466
  134SAPE  C21014484   3.589   7.970   9.594  0.3992  0.2296 -0.4481
  134SAPE  H10R14485   3.647   7.906   9.664 -2.7902  1.1810  3.4125
  134SAPE  H10S14486   3.659   8.050   9.561  1.0758 -0.1055  0.1400
  134SAPE  C21114487   3.532   7.888   9.491  0.6491  0.3120  0.0467
  134SAPE  H11R14488   3.516   7.781   9.511 -2.0134  0.2755 -1.8145
  134SAPE  C21214489   3.500   7.930   9.367  0.6787  0.2344  0.1628
  134SAPE  H12R14490   3.466   7.851   9.299  2.0967 -0.9683  0.7738
  134SAPE  C21314491   3.509   8.072   9.317 -0.3460 -0.9115 -0.6798
  134SAPE  H13R14492   3.617   8.093   9.307  0.3413 -2.5028  2.3725
  134SAPE  H13S14493   3.473   8.142   9.394  2.2280 -0.8260  0.5455
  134SAPE  C21414494   3.436   8.099   9.188 -0.3104 -0.1234 -0.6183
  134SAPE  H14R14495   3.350   8.164   9.208  0.9652  1.2249  0.6818
  134SAPE  C21514496   3.454   8.065   9.062 -0.7092 -0.1571  0.2133
  134SAPE  H15R14497   3.378   8.105   8.994 -0.6197  2.5421  1.5639
  134SAPE  C21614498   3.574   7.987   9.007  0.0704 -0.0066  0.3725
  134SAPE  H16R14499   3.549   7.881   9.029 -2.1568  0.1468 -1.0552
  134SAPE  H16S14500   3.662   8.013   9.070 -0.4167  0.0181  1.0492
  134SAPE  C21714501   3.610   7.993   8.859 -0.3291  0.8191 -0.0080
  134SAPE  H17R14502   3.525   7.951   8.800  1.7138 -2.6423 -0.7372
  134SAPE  H17S14503   3.690   7.919   8.842 -0.2643  0.8417  0.1915
  134SAPE  C21814504   3.644   8.133   8.805  0.2766  0.3589  0.7266
  134SAPE  H18R14505   3.710   8.185   8.877 -0.6695  0.7074  1.3693
  134SAPE  H18S14506   3.554   8.198   8.813  0.9870  1.3470  0.8252
  134SAPE  C21914507   3.720   8.141   8.674 -0.6549  0.3103 -0.2914
  134SAPE  H19R14508   3.716   8.247   8.641 -0.2894  0.3910 -0.0729
  134SAPE  H19S14509   3.669   8.074   8.602  0.3830 -0.1815 -0.5833
  134SAPE  C22014510   3.865   8.090   8.683 -0.5229 -0.0245 -0.3642
  134SAPE  H20R14511   3.864   7.980   8.696  1.2448  0.1895  2.5315
  134SAPE  H20S14512   3.922   8.125   8.772  0.7677  0.0224 -1.1898
  134SAPE  H20T14513   3.931   8.109   8.595 -1.1883  0.6922 -0.7303
  134SAPE   C3314514   4.186   7.292   9.952  0.0145  0.1250  0.8380
  134SAPE   H3X14515   4.239   7.386   9.924  1.0302 -0.3960  0.9847
  134SAPE   H3Y14516   4.089   7.286   9.897 -1.1240  0.7751  2.6722
  134SAPE   C3414517   4.267   7.162   9.905  0.9496 -0.0684  0.1752
  134SAPE   H4X14518   4.214   7.074   9.946 -0.7296  1.2433  0.9108
  134SAPE   H4Y14519   4.367   7.162   9.954  1.1520  0.2912 -0.2344
  134SAPE   C3514520   4.292   7.161   9.756 -0.0222  0.3548 -1.0541
  134SAPE   H5X14521   4.360   7.074   9.748 -0.9871 -0.9282  2.4814
  134SAPE   H5Y14522   4.340   7.259   9.737  0.8143  0.7516  2.3938
  134SAPE   C3614523   4.164   7.133   9.670 -0.4019 -0.3665  0.4327
  134SAPE   H6X14524   4.090   7.215   9.673 -0.0368  0.0111 -0.6164
  134SAPE   H6Y14525   4.121   7.042   9.717 -1.9507  1.2594  2.3297
  134SAPE   C3714526   4.198   7.106   9.522 -0.3755  0.4415  0.1617
  134SAPE   H7X14527   4.107   7.061   9.476  0.1425 -0.8736  0.4093
  134SAPE   H7Y14528   4.273   7.024   9.516 -0.6848  0.1843 -0.2591
  134SAPE   C3814529   4.247   7.219   9.436 -0.0095  0.3483 -0.4506
  134SAPE   H8X14530   4.344   7.258   9.474  0.9257 -1.0128 -1.3146
  134SAPE   H8Y14531   4.172   7.301   9.433  0.1711  0.4902 -2.3772
  134SAPE   C3914532   4.269   7.158   9.295 -0.3076 -0.2447 -0.0760
  134SAPE   H9X14533   4.169   7.135   9.252 -0.5207  1.8958 -0.8622
  134SAPE   H9Y14534   4.327   7.064   9.303  0.5250 -0.0592 -2.9708
  134SAPE  C31014535   4.337   7.249   9.194  0.4697  0.5247 -0.5265
  134SAPE  H10X14536   4.442   7.262   9.225  0.7454 -1.0673 -0.7252
  134SAPE  H10Y14537   4.295   7.352   9.186 -1.2854 -0.2686 -3.0228
  134SAPE  C31114538   4.339   7.180   9.058  0.3874 -0.5543 -0.4907
  134SAPE  H11X14539   4.238   7.168   9.014 -0.5459 -0.6696  1.5713
  134SAPE  H11Y14540   4.369   7.075   9.080 -0.1384 -0.3143  1.6000
  134SAPE  C31214541   4.435   7.242   8.953  0.5662 -0.6453 -0.7379
  134SAPE  H12X14542   4.535   7.268   8.995 -0.7077  0.0006  2.1519
  134SAPE  H12Y14543   4.380   7.332   8.918  0.2119 -0.6874 -0.3055
  134SAPE  C31314544   4.452   7.153   8.833 -0.0024  0.1149  0.0335
  134SAPE  H13X14545   4.347   7.135   8.801  0.0886 -0.8516  0.2636
  134SAPE  H13Y14546   4.499   7.062   8.876  1.3490  0.2121 -1.1393
  134SAPE  C31414547   4.539   7.216   8.722  0.7980 -0.5294  0.5841
  134SAPE  H14X14548   4.585   7.142   8.652  1.0999  0.8438 -0.7225
  134SAPE  H14Y14549   4.625   7.271   8.765  0.3121  1.8013 -1.2318
  134SAPE  C31514550   4.443   7.294   8.633  0.1014 -0.1838 -0.0467
  134SAPE  H15X14551   4.385   7.372   8.687  1.0920  0.9864 -0.6145
  134SAPE  H15Y14552   4.371   7.228   8.579 -0.7916  0.9158 -0.2501
  134SAPE  C31614553   4.515   7.376   8.521  0.4701  0.0393  0.0351
  134SAPE  H16X14554   4.551   7.314   8.436 -2.0911  0.7864 -1.7219
  134SAPE  H16Y14555   4.604   7.426   8.564  0.7395 -1.4377  1.2766
  134SAPE  C31714556   4.433   7.492   8.458  0.0558  0.5212  0.2388
  134SAPE  H17X14557   4.356   7.526   8.530  0.2422  1.2913  0.0745
  134SAPE  H17Y14558   4.374   7.458   8.370 -1.5118  1.3231  0.9458
  134SAPE  C31814559   4.524   7.606   8.414  0.3689 -0.6990  0.5117
  134SAPE  H18X14560   4.618   7.581   8.361  1.6721  2.1228  1.3065
  134SAPE  H18Y14561   4.549   7.681   8.492 -1.8492  1.4787 -0.7376
  134SAPE  H18Z14562   4.469   7.663   8.337  0.3196  0.0513  1.0929
  135SAPE     N14563   4.493   5.621  10.857  1.1641 -1.0799 -0.0381
  135SAPE   HN114564   4.538   5.710  10.828 -1.0172  0.7035  1.7337
  135SAPE   HN214565   4.398   5.648  10.889  0.2065 -1.1315 -2.6127
  135SAPE   HN314566   4.543   5.569  10.932  2.4272  0.1292 -0.0020
  135SAPE   C1214567   4.455   5.544  10.736 -0.6036  0.3619  0.1817
  135SAPE  H12A14568   4.401   5.455  10.775  2.1634 -1.3130  0.4779
  135SAPE  H12B14569   4.555   5.520  10.694 -0.4316  2.4334 -0.6915
  135SAPE   C1114570   4.359   5.626  10.649  0.1933  0.0528 -0.6639
  135SAPE  H11A14571   4.370   5.580  10.549  1.8476 -3.2160  0.8451
  135SAPE  H11B14572   4.389   5.732  10.640  0.9837  0.0241  1.2084
  135SAPE     P14573   4.112   5.519  10.667 -0.2386  0.1247  0.8823
  135SAPE   O1314574   4.155   5.386  10.711 -0.2880 -0.5099  0.7808
  135SAPE   O1414575   3.984   5.570  10.716  0.0774 -0.3458 -0.2033
  135SAPE   O1214576   4.229   5.615  10.711  0.3578  0.0479 -0.0460
  135SAPE   O1114577   4.117   5.524  10.507  0.7124 -0.0473  0.0034
  135SAPE    C114578   4.052   5.642  10.446 -1.2464  0.1557 -0.1559
  135SAPE    HA14579   4.086   5.735  10.497  0.8131 -1.6567  2.0394
  135SAPE    HB14580   4.093   5.652  10.343  1.1006 -0.1517  0.6751
  135SAPE    C214581   3.900   5.636  10.425  0.1302 -0.9164 -0.0123
  135SAPE    HS14582   3.846   5.644  10.521  1.3450  0.1426  0.6160
  135SAPE   O2114583   3.874   5.517  10.356  0.9314  0.1045  0.0692
  135SAPE   C2114584   3.799   5.423  10.417 -0.9616 -0.0614 -0.1228
  135SAPE   O2214585   3.740   5.435  10.520  0.8188 -0.2991 -0.8714
  135SAPE   C2214586   3.784   5.309  10.313  0.4355  0.0986 -0.2800
  135SAPE   H2R14587   3.886   5.296  10.272  0.6410  1.1116 -0.1326
  135SAPE   H2S14588   3.764   5.216  10.370 -1.5284  0.5384 -0.1620
  135SAPE    C314589   3.847   5.751  10.339  0.0240  1.0263 -0.4899
  135SAPE    HX14590   3.848   5.855  10.380  1.4538  1.4322 -1.4683
  135SAPE    HY14591   3.736   5.745  10.330 -0.0051  2.5207 -1.5084
  135SAPE   O3114592   3.905   5.751  10.205  0.6598 -0.0167  0.0007
  135SAPE   C3114593   3.839   5.800  10.099 -0.2996 -0.6749  0.2747
  135SAPE   O3214594   3.733   5.858  10.104  0.5805 -0.4745  0.0527
  135SAPE   C3214595   3.924   5.768   9.980 -0.0010 -0.9205  0.2507
  135SAPE   H2X14596   3.935   5.659   9.960 -0.4447 -0.8398 -0.4727
  135SAPE   H2Y14597   4.026   5.808   9.995  0.1523 -0.8438 -0.8920
  135SAPE   C2314598   3.689   5.323  10.195 -0.3611 -0.4066  0.0261
  135SAPE   H3R14599   3.592   5.358  10.235 -1.2101 -1.0019 -1.4117
  135SAPE   H3S14600   3.689   5.222  10.149  2.4090 -0.0878 -0.8902
  135SAPE   C2414601   3.722   5.426  10.086 -0.3795  0.5230 -0.2713
  135SAPE   H4R14602   3.709   5.526  10.134 -1.2039  0.0534  0.5035
  135SAPE   H4S14603   3.637   5.433  10.015  0.5944  0.9659 -1.4219
  135SAPE   C2514604   3.855   5.404  10.014 -0.2216  0.3646 -0.3383
  135SAPE   H5R14605   3.939   5.405  10.085 -0.2713  0.4515 -0.2814
  135SAPE   C2614606   3.892   5.390   9.882 -0.1677 -0.6985  0.8675
  135SAPE   H6R14607   3.996   5.365   9.855 -0.6669 -1.8959 -0.0658
  135SAPE   C2714608   3.794   5.385   9.764  0.7825 -0.9415 -0.6440
  135SAPE   H7R14609   3.820   5.460   9.686  1.3673 -0.7566 -0.2737
  135SAPE   H7S14610   3.691   5.411   9.797  0.8137  0.2000 -1.3849
  135SAPE   C2814611   3.779   5.252   9.701  0.4163  0.5925  0.4398
  135SAPE   H8R14612   3.830   5.167   9.747  1.5318  1.8448  1.6106
  135SAPE   C2914613   3.698   5.229   9.595  0.2168  0.0199  0.1806
  135SAPE   H9R14614   3.709   5.134   9.542 -0.8625 -0.2505  0.4221
  135SAPE  C21014615   3.610   5.325   9.515  0.2477  0.2740 -0.1081
  135SAPE  H10R14616   3.663   5.358   9.423  1.2919  1.1951  0.7889
  135SAPE  H10S14617   3.600   5.416   9.579 -1.8648 -1.0365  1.5636
  135SAPE  C21114618   3.477   5.267   9.490  0.3487 -0.3677  0.1606
  135SAPE  H11R14619   3.427   5.238   9.583 -0.4287 -1.3497 -0.5413
  135SAPE  C21214620   3.423   5.236   9.371 -0.3654 -0.5523  0.3885
  135SAPE  H12R14621   3.318   5.206   9.358  0.3086 -2.7218 -0.5145
  135SAPE  C21314622   3.484   5.265   9.234 -0.4781  1.1288  0.1551
  135SAPE  H13R14623   3.576   5.328   9.236 -0.2051  0.7141  1.6362
  135SAPE  H13S14624   3.407   5.310   9.167 -0.1610  1.8966  0.2931
  135SAPE  C21414625   3.515   5.132   9.165 -0.7068 -0.3474 -0.4167
  135SAPE  H14R14626   3.550   5.047   9.225 -2.0985 -0.0833  0.8245
  135SAPE  C21514627   3.512   5.113   9.034  0.5941 -0.4044  0.1787
  135SAPE  H15R14628   3.533   5.010   9.004  2.0286 -0.0152 -0.2678
  135SAPE  C21614629   3.478   5.215   8.930 -0.2207 -0.4394  0.2948
  135SAPE  H16R14630   3.507   5.318   8.960  0.6108 -0.4599 -0.3943
  135SAPE  H16S14631   3.368   5.226   8.916 -0.0479  0.7035 -0.3374
  135SAPE  C21714632   3.546   5.188   8.796  0.7467  0.4757 -1.0008
  135SAPE  H17R14633   3.528   5.084   8.762  1.2717  0.0965 -0.1725
  135SAPE  H17S14634   3.654   5.183   8.822  0.4423 -2.8341  0.0759
  135SAPE  C21814635   3.512   5.295   8.686 -0.6669  0.0647 -0.5483
  135SAPE  H18R14636   3.577   5.291   8.596 -2.4836 -1.1970 -1.8766
  135SAPE  H18S14637   3.527   5.398   8.725 -0.1907 -0.6018  1.1518
  135SAPE  C21914638   3.366   5.284   8.641  0.2856 -0.0903  0.0759
  135SAPE  H19R14639   3.290   5.292   8.722  0.8881 -0.6930  0.7101
  135SAPE  H19S14640   3.351   5.184   8.596  0.0858  0.1534 -0.4106
  135SAPE  C22014641   3.336   5.389   8.529 -0.2618  0.9024 -0.4316
  135SAPE  H20R14642   3.369   5.490   8.561 -0.9409  0.6330  1.2109
  135SAPE  H20S14643   3.227   5.389   8.507  0.1276  1.6219 -2.5383
  135SAPE  H20T14644   3.391   5.354   8.438  2.0885  3.0436  0.0544
  135SAPE   C3314645   3.872   5.827   9.853  0.0704 -0.1305 -0.2203
  135SAPE   H3X14646   3.952   5.820   9.777  2.0268 -2.6921  1.9095
  135SAPE   H3Y14647   3.850   5.936   9.865 -0.6849 -0.1866 -0.9965
  135SAPE   C3414648   3.751   5.758   9.789 -0.2471  0.3769 -0.6169
  135SAPE   H4X14649   3.665   5.760   9.859  0.7286 -2.0265  0.7587
  135SAPE   H4Y14650   3.782   5.652   9.788 -0.9203  0.1694 -0.0753
  135SAPE   C3514651   3.710   5.802   9.651 -0.9773  0.3649 -0.1462
  135SAPE   H5X14652   3.807   5.807   9.595  0.9395 -0.1288  2.8927
  135SAPE   H5Y14653   3.672   5.906   9.664  1.4173  1.2556  0.4997
  135SAPE   C3614654   3.606   5.702   9.591 -0.1573  0.7706  0.0353
  135SAPE   H6X14655   3.509   5.725   9.640 -0.2976  0.8533 -0.2794
  135SAPE   H6Y14656   3.642   5.604   9.628  0.8496  1.7224  1.7483
  135SAPE   C3714657   3.594   5.712   9.438 -0.2438  0.0343  0.2605
  135SAPE   H7X14658   3.678   5.649   9.401  1.4157  1.6727  1.0639
  135SAPE   H7Y14659   3.624   5.813   9.403 -3.5647  1.3517  0.8689
  135SAPE   C3814660   3.455   5.700   9.379  0.0749 -0.4204  0.1311
  135SAPE   H8X14661   3.398   5.780   9.431 -0.4467 -0.9072  0.3222
  135SAPE   H8Y14662   3.406   5.601   9.390 -2.8654  1.0969  2.1948
  135SAPE   C3914663   3.446   5.732   9.228  0.6335  0.0602  0.6991
  135SAPE   H9X14664   3.486   5.832   9.201  0.9554  0.3269  2.1001
  135SAPE   H9Y14665   3.339   5.721   9.201  0.4375  0.0062  1.4602
  135SAPE  C31014666   3.502   5.629   9.129  0.0588  0.5151 -0.1709
  135SAPE  H10X14667   3.457   5.533   9.163 -2.1337  1.5428  0.0208
  135SAPE  H10Y14668   3.610   5.625   9.151 -0.0103 -0.5415  0.0473
  135SAPE  C31114669   3.464   5.650   8.985 -0.5449  0.2817 -0.1358
  135SAPE  H11X14670   3.361   5.690   8.978  0.3519  2.5968 -1.4673
  135SAPE  H11Y14671   3.481   5.553   8.934  0.5281  0.0023  0.7111
  135SAPE  C31214672   3.555   5.747   8.906  0.8088 -0.4977 -0.1623
  135SAPE  H12X14673   3.663   5.733   8.927  1.5494 -0.2207 -3.2975
  135SAPE  H12Y14674   3.509   5.846   8.930  0.8033 -0.9931  2.1394
  135SAPE  C31314675   3.547   5.734   8.753  0.1922 -0.2307 -0.4804
  135SAPE  H13X14676   3.452   5.689   8.718  0.4712  1.3677 -3.6123
  135SAPE  H13Y14677   3.634   5.676   8.716  1.4935  1.6257 -0.4823
  135SAPE  C31414678   3.550   5.868   8.669 -1.0243 -0.4422  0.1121
  135SAPE  H14X14679   3.563   5.859   8.559  0.8589 -1.2827  0.3612
  135SAPE  H14Y14680   3.635   5.931   8.704 -2.3032  0.1156  2.3963
  135SAPE  C31514681   3.425   5.957   8.697 -0.1965 -0.6173  0.0457
  135SAPE  H15X14682   3.444   6.016   8.790 -1.4912  0.6350 -0.4459
  135SAPE  H15Y14683   3.341   5.890   8.723  0.2104 -0.3422  2.3591
  135SAPE  C31614684   3.399   6.051   8.582  0.2552  0.1338 -0.5359
  135SAPE  H16X14685   3.369   5.998   8.489  0.4993 -0.0303 -0.5190
  135SAPE  H16Y14686   3.491   6.107   8.555  0.0352  0.5647 -0.4177
  135SAPE  C31714687   3.287   6.151   8.604 -0.6561 -0.0357  0.1742
  135SAPE  H17X14688   3.306   6.203   8.700  0.7183 -1.6541  0.8284
  135SAPE  H17Y14689   3.191   6.096   8.617 -0.7637  0.4211  1.4316
  135SAPE  C31814690   3.280   6.247   8.483  0.1658  0.9039  1.2114
  135SAPE  H18X14691   3.200   6.322   8.501 -1.3751 -1.2937  4.3473
  135SAPE  H18Y14692   3.278   6.180   8.395 -2.0235  0.8836  1.2314
  135SAPE  H18Z14693   3.374   6.304   8.468 -1.0782  2.5862 -0.6738
  136SAPE     N14694   0.226   5.420  11.049 -0.5269 -0.7971  0.3800
  136SAPE   HN114695   0.171   5.375  10.973 -2.2807 -0.8605  1.6200
  136SAPE   HN214696   0.155   5.492  11.074 -1.1664 -1.4988  0.6084
  136SAPE   HN314697   0.313   5.465  11.013 -1.0917  1.5457  1.6994
  136SAPE   C1214698   0.268   5.328  11.160 -0.4312  0.1213 -0.0430
  136SAPE  H12A14699   0.173   5.310  11.215 -1.1595  0.4667 -1.1568
  136SAPE  H12B14700   0.337   5.383  11.227 -0.0473 -1.0846  0.5802
  136SAPE   C1114701   0.325   5.201  11.105 -0.6441 -0.5021  0.1309
  136SAPE  H11A14702   0.341   5.130  11.189 -0.4976  0.2042  0.7062
  136SAPE  H11B14703   0.425   5.222  11.062  0.8630 -3.6269  1.8035
  136SAPE     P14704   0.269   5.013  10.928 -0.1583  0.1029  0.2584
  136SAPE   O1314705   0.367   4.932  11.004 -0.3080 -0.1728 -0.0350
  136SAPE   O1414706   0.144   4.957  10.874  0.1360  0.3017  0.1777
  136SAPE   O1214707   0.233   5.146  11.004 -0.3788  0.2223 -0.3658
  136SAPE   O1114708   0.344   5.078  10.803 -0.6563 -0.4021 -0.1875
  136SAPE    C114709   0.279   5.181  10.731 -0.4182 -0.2111 -1.1220
  136SAPE    HA14710   0.190   5.226  10.780  0.4451 -0.9043  1.2492
  136SAPE    HB14711   0.354   5.252  10.690  0.8060  0.6081  2.1678
  136SAPE    C214712   0.206   5.122  10.606 -0.4516 -0.0599 -0.2325
  136SAPE    HS14713   0.133   5.048  10.646 -1.3064  0.8028 -0.1810
  136SAPE   O2114714   0.301   5.084  10.508  0.0853 -0.4921  0.2646
  136SAPE   C2114715   0.270   4.977  10.441  0.2533  0.1045 -0.5098
  136SAPE   O2214716   0.189   4.894  10.479  0.7377  0.5260 -0.2647
  136SAPE   C2214717   0.362   4.961  10.316 -0.4116 -0.1073 -0.0900
  136SAPE   H2R14718   0.358   5.059  10.264  0.0176 -0.1501 -0.2086
  136SAPE   H2S14719   0.470   4.941  10.334 -0.1916  0.4719 -0.7309
  136SAPE    C314720   0.122   5.238  10.550 -0.2674  0.0519 -0.2860
  136SAPE    HX14721   0.188   5.327  10.541  0.4872 -0.6655 -2.7584
  136SAPE    HY14722   0.050   5.263  10.631  0.0675 -0.1441  0.0759
  136SAPE   O3114723   0.063   5.205  10.425 -0.0556 -0.1265  0.4551
  136SAPE   C3114724  -0.048   5.128  10.439  0.3793 -0.0150 -0.0653
  136SAPE   O3214725  -0.114   5.115  10.543 -0.0019 -0.1414  0.2693
  136SAPE   C3214726  -0.103   5.087  10.308 -0.3832  0.0433  0.0044
  136SAPE   H2X14727  -0.020   5.081  10.234 -0.7283  0.1228 -0.3907
  136SAPE   H2Y14728  -0.163   5.175  10.276  0.7555  1.1554  0.8049
  136SAPE   C2314729   0.307   4.861  10.210 -0.0488  0.2143  0.0296
  136SAPE   H3R14730   0.223   4.906  10.152 -0.0490  0.9910  0.6174
  136SAPE   H3S14731   0.258   4.773  10.258  1.0852 -0.7376 -0.5081
  136SAPE   C2414732   0.416   4.814  10.113  0.0464  0.5944 -0.8155
  136SAPE   H4R14733   0.485   4.900  10.099 -1.3821  1.8873 -0.2430
  136SAPE   H4S14734   0.371   4.791  10.014 -1.3015 -0.5088  0.0121
  136SAPE   C2514735   0.501   4.716  10.175  0.2518 -0.0918  0.8873
  136SAPE   H5R14736   0.565   4.753  10.256  2.1673 -0.2254 -0.5042
  136SAPE   C2614737   0.513   4.587  10.149 -0.1829  0.2018  0.0247
  136SAPE   H6R14738   0.579   4.532  10.218 -0.9371 -0.6418  0.0852
  136SAPE   C2714739   0.447   4.497  10.047  0.2315 -0.2238 -0.1884
  136SAPE   H7R14740   0.535   4.450   9.999  0.0817 -0.8741  0.1616
  136SAPE   H7S14741   0.407   4.567   9.970  0.4490 -0.3526 -0.4174
  136SAPE   C2814742   0.345   4.403  10.099  0.0766 -0.2337  0.5694
  136SAPE   H8R14743   0.283   4.443  10.181 -1.0670  1.1643 -0.9141
  136SAPE   C2914744   0.307   4.286  10.045 -0.1048  0.2579  0.8852
  136SAPE   H9R14745   0.224   4.237  10.097 -0.2840 -0.1020  0.2700
  136SAPE  C21014746   0.358   4.200   9.927 -0.0904 -0.5306  0.0413
  136SAPE  H10R14747   0.408   4.111   9.972  0.5331 -0.3367 -0.2590
  136SAPE  H10S14748   0.437   4.256   9.873 -1.0337  3.3776  2.3516
  136SAPE  C21114749   0.252   4.141   9.829 -0.3772 -0.0556  0.2249
  136SAPE  H11R14750   0.151   4.130   9.869  0.0441  1.7911  1.9831
  136SAPE  C21214751   0.278   4.100   9.703 -0.6311  0.2071 -0.1997
  136SAPE  H12R14752   0.204   4.037   9.651  0.3361 -1.0579 -0.1087
  136SAPE  C21314753   0.413   4.103   9.638  0.0445 -1.0136  0.5480
  136SAPE  H13R14754   0.496   4.097   9.712 -0.1520 -1.9505  0.7037
  136SAPE  H13S14755   0.416   4.201   9.585 -0.1092  0.3446  2.9325
  136SAPE  C21414756   0.418   3.988   9.539  0.0033 -0.1291  0.0575
  136SAPE  H14R14757   0.454   3.894   9.584 -1.2135 -1.5942 -1.8377
  136SAPE  C21514758   0.385   3.991   9.405 -0.3702 -0.9683 -0.3430
  136SAPE  H15R14759   0.379   3.901   9.343 -1.4994 -0.9550 -0.2625
  136SAPE  C21614760   0.342   4.115   9.336 -0.1510  1.0063 -0.0426
  136SAPE  H16R14761   0.408   4.129   9.247  0.3779  3.1315  0.6234
  136SAPE  H16S14762   0.364   4.204   9.399  2.7447  0.7702 -0.6156
  136SAPE  C21714763   0.197   4.113   9.293 -0.5477  0.3118  0.2220
  136SAPE  H17R14764   0.137   4.126   9.386  1.5060  0.2820  1.6398
  136SAPE  H17S14765   0.164   4.020   9.244  1.7909  0.4314 -1.7430
  136SAPE  C21814766   0.176   4.231   9.195 -0.3229  0.0073  0.1976
  136SAPE  H18R14767   0.232   4.212   9.101  0.3828  0.5756  0.4904
  136SAPE  H18S14768   0.207   4.327   9.242 -0.8587  0.3131 -0.0756
  136SAPE  C21914769   0.028   4.241   9.159  0.0590  0.2064 -0.4524
  136SAPE  H19R14770   0.009   4.344   9.119  1.5436  0.1501 -1.4098
  136SAPE  H19S14771  -0.035   4.223   9.248 -1.1621  0.3230 -1.2709
  136SAPE  C22014772  -0.012   4.139   9.051 -0.3726 -0.4719  0.4914
  136SAPE  H20R14773   0.064   4.144   8.970 -1.2178  0.2913 -0.2748
  136SAPE  H20S14774  -0.116   4.154   9.016 -0.0433  3.5724  0.7672
  136SAPE  H20T14775   0.002   4.036   9.090  1.0224 -0.1046  1.0050
  136SAPE   C3314776  -0.185   4.960  10.315 -0.5970  0.0008 -0.0301
  136SAPE   H3X14777  -0.277   4.987  10.370 -1.3381  1.8217 -2.0434
  136SAPE   H3Y14778  -0.121   4.880  10.358 -1.2278  0.1943  1.3096
  136SAPE   C3414779  -0.237   4.907  10.175  0.4916 -0.0864 -0.3642
  136SAPE   H4X14780  -0.311   4.826  10.190  1.7752 -0.9441  1.7458
  136SAPE   H4Y14781  -0.147   4.869  10.123  0.7921  0.5819 -0.3552
  136SAPE   C3514782  -0.302   5.030  10.100 -0.2159  1.0664  0.1772
  136SAPE   H5X14783  -0.217   5.093  10.068 -1.4212  2.4740 -0.3737
  136SAPE   H5Y14784  -0.370   5.092  10.162 -1.9080 -0.3911 -0.1296
  136SAPE   C3614785  -0.369   5.003   9.965  0.4142 -0.3554 -0.0571
  136SAPE   H6X14786  -0.463   4.948   9.990  1.4497 -2.6828 -0.9871
  136SAPE   H6Y14787  -0.318   4.929   9.900 -0.2546 -1.6115  0.7873
  136SAPE   C3714788  -0.403   5.124   9.887 -0.2869  0.0704  0.4395
  136SAPE   H7X14789  -0.310   5.177   9.859 -0.9765  1.2614  0.3323
  136SAPE   H7Y14790  -0.460   5.198   9.948 -0.6723 -0.4035  0.6703
  136SAPE   C3814791  -0.477   5.094   9.758 -0.5642  0.0784 -0.4670
  136SAPE   H8X14792  -0.573   5.039   9.774 -1.5441  1.7248 -0.4183
  136SAPE   H8Y14793  -0.413   5.025   9.699  2.1769  1.6231  0.5034
  136SAPE   C3914794  -0.509   5.221   9.681 -0.4017 -0.2255 -0.3859
  136SAPE   H9X14795  -0.597   5.269   9.730 -0.1745 -0.0874 -0.1045
  136SAPE   H9Y14796  -0.536   5.181   9.581 -0.3703  0.2024 -0.5638
  136SAPE  C31014797  -0.403   5.326   9.673  0.5777 -0.4970  0.8430
  136SAPE  H10X14798  -0.308   5.278   9.644  0.3920 -0.2638 -0.1950
  136SAPE  H10Y14799  -0.387   5.369   9.775 -0.7893 -0.6909  1.1675
  136SAPE  C31114800  -0.451   5.441   9.573 -0.1424 -0.2279  0.0509
  136SAPE  H11X14801  -0.372   5.519   9.581 -1.1928  0.7564  1.3382
  136SAPE  H11Y14802  -0.548   5.484   9.605 -0.5086  0.2655 -1.6130
  136SAPE  C31214803  -0.475   5.389   9.425 -0.1359  0.3472 -0.0085
  136SAPE  H12X14804  -0.555   5.312   9.421  0.4140 -0.2155 -0.5624
  136SAPE  H12Y14805  -0.388   5.332   9.387 -0.2263  0.4153 -0.3252
  136SAPE  C31314806  -0.501   5.507   9.321 -0.2186 -0.4195 -0.8578
  136SAPE  H13X14807  -0.416   5.577   9.334  0.5186 -1.7616  2.8177
  136SAPE  H13Y14808  -0.603   5.548   9.338  0.3584  0.5973  0.3238
  136SAPE  C31414809  -0.511   5.464   9.167  0.3039  0.1997  0.4295
  136SAPE  H14X14810  -0.425   5.395   9.152 -0.2070 -0.1507 -0.9799
  136SAPE  H14Y14811  -0.501   5.552   9.100 -1.3108  1.3366  1.6130
  136SAPE  C31514812  -0.632   5.383   9.122 -0.2239 -0.4414 -0.4780
  136SAPE  H15X14813  -0.722   5.446   9.141  0.3021  0.2101 -0.1061
  136SAPE  H15Y14814  -0.650   5.292   9.183  0.8467  0.4579  1.2458
  136SAPE  C31614815  -0.627   5.341   8.975 -1.1413  0.2269 -0.2096
  136SAPE  H16X14816  -0.539   5.273   8.967 -1.0908  0.2484  0.1600
  136SAPE  H16Y14817  -0.609   5.433   8.915 -0.5786  0.0260 -0.3578
  136SAPE  C31714818  -0.761   5.281   8.941 -0.5411  0.1194 -0.0611
  136SAPE  H17X14819  -0.845   5.344   8.978  0.0647  2.3267 -2.1784
  136SAPE  H17Y14820  -0.758   5.187   9.000 -0.1371 -1.1087 -1.9427
  136SAPE  C31814821  -0.785   5.246   8.796  0.3577 -0.2148 -0.3179
  136SAPE  H18X14822  -0.887   5.208   8.775 -0.1528  0.6663  0.4831
  136SAPE  H18Y14823  -0.708   5.176   8.755  2.3853 -0.0607  2.8389
  136SAPE  H18Z14824  -0.787   5.340   8.737  0.4226  0.0187  0.0500
  137SAPE     N14825   4.534   2.089  10.716 -0.0857  0.0588 -0.2724
  137SAPE   HN114826   4.630   2.078  10.676  0.0172 -0.4667  0.1133
  137SAPE   HN214827   4.550   2.145  10.802 -2.0768  1.0243 -0.4979
  137SAPE   HN314828   4.498   1.996  10.746  2.9851 -0.4780  2.3451
  137SAPE   C1214829   4.446   2.160  10.619 -0.3484 -0.0593  0.1544
  137SAPE  H12A14830   4.349   2.105  10.622 -1.3603  1.6740  0.9304
  137SAPE  H12B14831   4.494   2.149  10.520 -0.7861 -1.0661  0.0393
  137SAPE   C1114832   4.437   2.303  10.672  0.0580  0.6628  0.9561
  137SAPE  H11A14833   4.373   2.367  10.607 -0.5642 -1.4552 -0.6457
  137SAPE  H11B14834   4.539   2.346  10.666 -0.2496  1.3084  0.2140
  137SAPE     P14835   4.269   2.337  10.886  0.0077  0.2009  0.0174
  137SAPE   O1314836   4.180   2.220  10.896  0.1025 -0.3774  0.6806
  137SAPE   O1414837   4.308   2.408  11.010  0.1994  0.7605  0.0789
  137SAPE   O1214838   4.394   2.295  10.807 -0.3874  0.1791  0.0855
  137SAPE   O1114839   4.216   2.443  10.783 -0.2901  0.7492 -0.3253
  137SAPE    C114840   4.086   2.440  10.722  0.1427 -0.6930 -0.2929
  137SAPE    HA14841   4.013   2.384  10.785 -1.4518  1.0532 -0.5203
  137SAPE    HB14842   4.039   2.540  10.718 -1.0001 -1.2154 -0.5589
  137SAPE    C214843   4.083   2.360  10.584 -0.2684  0.4124  0.3712
  137SAPE    HS14844   4.137   2.265  10.603  0.0539  0.5567  0.1708
  137SAPE   O2114845   4.143   2.457  10.487 -0.1942  0.3090 -0.3772
  137SAPE   C2114846   4.214   2.397  10.392  0.7914  0.5426 -0.1927
  137SAPE   O2214847   4.234   2.275  10.393  0.1097 -0.0819  0.1591
  137SAPE   C2214848   4.245   2.489  10.270  0.7750 -0.2856  0.5383
  137SAPE   H2R14849   4.174   2.574  10.264  0.6228 -0.2906  1.9515
  137SAPE   H2S14850   4.346   2.534  10.283 -0.4484  2.3592  1.7270
  137SAPE    C314851   3.939   2.327  10.534 -0.0038 -0.9172  0.0020
  137SAPE    HX14852   3.883   2.420  10.559  0.0086 -0.7334 -0.6243
  137SAPE    HY14853   3.903   2.250  10.606 -3.9378  0.8337  0.2236
  137SAPE   O3114854   3.932   2.293  10.395  0.4941  0.2721  0.2736
  137SAPE   C3114855   3.895   2.170  10.361  0.3536  0.4714 -0.6819
  137SAPE   O3214856   3.854   2.085  10.441  0.0850  0.3578  0.1270
  137SAPE   C3214857   3.923   2.145  10.215  0.0710 -0.3669  0.2942
  137SAPE   H2X14858   3.987   2.054  10.205  0.8300  0.4261 -4.4618
  137SAPE   H2Y14859   3.993   2.222  10.177  0.3541 -1.5931 -1.8510
  137SAPE   C2314860   4.237   2.403  10.134 -0.1221  0.4389  0.5672
  137SAPE   H3R14861   4.139   2.352  10.124  0.2194  0.2553 -3.2736
  137SAPE   H3S14862   4.316   2.326  10.138 -1.4109 -0.9997 -0.3815
  137SAPE   C2414863   4.264   2.484  10.001 -0.1837  0.1642 -0.6351
  137SAPE   H4R14864   4.213   2.583  10.004  0.0217  0.2507  1.2272
  137SAPE   H4S14865   4.223   2.424   9.917  2.7219 -1.4749 -1.0269
  137SAPE   C2514866   4.406   2.524   9.987  0.3814 -0.1745  0.0636
  137SAPE   H5R14867   4.467   2.503  10.076  1.1816 -0.0527 -0.4395
  137SAPE   C2614868   4.462   2.563   9.873  0.3489 -1.6698  0.2650
  137SAPE   H6R14869   4.568   2.588   9.865  0.0091 -0.5787 -1.4377
  137SAPE   C2714870   4.390   2.576   9.742 -0.0973 -0.1937 -0.0119
  137SAPE   H7R14871   4.284   2.548   9.758  0.1839 -1.0159  0.5097
  137SAPE   H7S14872   4.441   2.511   9.667  1.5267  0.9897  0.0178
  137SAPE   C2814873   4.402   2.720   9.694 -0.0852 -0.1507 -0.0391
  137SAPE   H8R14874   4.385   2.798   9.770 -0.9155  0.3780 -0.7514
  137SAPE   C2914875   4.433   2.762   9.572 -0.0617 -0.4100 -0.3949
  137SAPE   H9R14876   4.426   2.870   9.554  1.0713 -0.1588  0.6076
  137SAPE  C21014877   4.472   2.679   9.449 -0.2894  0.4601  0.0983
  137SAPE  H10R14878   4.508   2.576   9.472 -2.2268 -0.0683  0.9323
  137SAPE  H10S14879   4.556   2.732   9.397 -0.0615 -1.1505 -1.2728
  137SAPE  C21114880   4.351   2.663   9.360  0.5010  0.2354  0.9633
  137SAPE  H11R14881   4.265   2.601   9.388 -0.5017  0.9204 -0.4506
  137SAPE  C21214882   4.343   2.726   9.239 -0.5515  0.6536  0.1100
  137SAPE  H12R14883   4.258   2.701   9.174  0.0571 -0.1000 -0.4230
  137SAPE  C21314884   4.453   2.814   9.173  0.3088  0.4817  0.5063
  137SAPE  H13R14885   4.484   2.892   9.247 -0.4202  2.3302 -1.0748
  137SAPE  H13S14886   4.394   2.867   9.095  0.3265 -1.3606 -0.8049
  137SAPE  C21414887   4.567   2.736   9.108  0.1353  0.1497 -0.6310
  137SAPE  H14R14888   4.566   2.634   9.150 -1.1356 -0.1740 -1.3705
  137SAPE  C21514889   4.655   2.779   9.021  0.8117 -0.0850 -0.3226
  137SAPE  H15R14890   4.718   2.706   8.968  0.4686 -0.1273 -0.6826
  137SAPE  C21614891   4.669   2.921   8.971 -0.2701  0.7253 -0.4253
  137SAPE  H16R14892   4.776   2.948   8.970 -0.1342  0.2532  0.4480
  137SAPE  H16S14893   4.625   2.997   9.039 -0.8321 -2.1901  2.8130
  137SAPE  C21714894   4.620   2.934   8.826  0.0169 -0.1960 -0.3524
  137SAPE  H17R14895   4.677   2.869   8.756 -1.2802 -1.5956 -0.1615
  137SAPE  H17S14896   4.642   3.040   8.799 -0.0779 -0.1437 -0.2247
  137SAPE  C21814897   4.468   2.900   8.809  0.2550  0.2402  0.4412
  137SAPE  H18R14898   4.412   2.933   8.898  0.7368  0.1744  0.7692
  137SAPE  H18S14899   4.456   2.789   8.815 -1.8289  0.4375  0.5394
  137SAPE  C21914900   4.416   2.948   8.670  0.0918 -0.3547  0.7360
  137SAPE  H19R14901   4.319   2.900   8.646  0.2332 -0.7118  0.8835
  137SAPE  H19S14902   4.490   2.919   8.592  0.7978 -2.4778  2.1289
  137SAPE  C22014903   4.408   3.106   8.666  0.1758  0.1921 -0.4395
  137SAPE  H20R14904   4.351   3.145   8.753 -0.6670 -0.3744 -0.7212
  137SAPE  H20S14905   4.378   3.146   8.567  1.3919  1.7580 -0.2274
  137SAPE  H20T14906   4.508   3.155   8.670  0.2033  0.0927  0.1627
  137SAPE   C3314907   3.809   2.109  10.121  0.4068 -0.3604 -0.0013
  137SAPE   H3X14908   3.788   2.202  10.065 -1.4443 -0.2226  0.8421
  137SAPE   H3Y14909   3.717   2.085  10.178  1.9068  0.0525  2.7793
  137SAPE   C3414910   3.839   1.993  10.027  0.3246 -0.7149  0.8414
  137SAPE   H4X14911   3.853   1.895  10.077  2.0335 -1.0908 -0.2978
  137SAPE   H4Y14912   3.945   1.998   9.994 -0.6574 -0.0948 -2.5859
  137SAPE   C3514913   3.747   1.967   9.903  0.0509 -1.0878 -0.1647
  137SAPE   H5X14914   3.649   2.013   9.926  0.3236 -0.2985 -0.5365
  137SAPE   H5Y14915   3.735   1.858   9.889 -0.5368 -0.8369 -1.9126
  137SAPE   C3614916   3.787   2.020   9.760 -0.6522  0.3025 -1.2116
  137SAPE   H6X14917   3.891   1.989   9.735 -0.7759 -2.2312  1.0341
  137SAPE   H6Y14918   3.798   2.130   9.774  3.2192 -0.2705  2.1179
  137SAPE   C3714919   3.675   1.996   9.662  0.8140  0.3714 -0.1832
  137SAPE   H7X14920   3.578   2.008   9.716  0.2635  1.5594 -1.3822
  137SAPE   H7Y14921   3.682   1.889   9.635  2.2656  0.3137  0.3144
  137SAPE   C3814922   3.682   2.096   9.539 -0.1215  0.3509  0.4522
  137SAPE   H8X14923   3.694   2.202   9.570 -0.8630  0.3928  0.6132
  137SAPE   H8Y14924   3.587   2.090   9.482  0.5720 -0.3670 -0.6716
  137SAPE   C3914925   3.805   2.076   9.454  0.3156 -0.1539 -0.5747
  137SAPE   H9X14926   3.818   1.967   9.437 -0.1781 -0.7279  2.2416
  137SAPE   H9Y14927   3.881   2.104   9.530 -1.9114 -1.2326  2.2223
  137SAPE  C31014928   3.821   2.156   9.332 -0.2671  0.4005  0.2000
  137SAPE  H10X14929   3.928   2.149   9.302 -0.0965  2.6781  0.1212
  137SAPE  H10Y14930   3.808   2.264   9.356 -0.1024 -0.2088  3.5804
  137SAPE  C31114931   3.737   2.099   9.216  0.1757 -0.1543 -0.4820
  137SAPE  H11X14932   3.631   2.126   9.234 -0.3624 -0.7106 -2.4652
  137SAPE  H11Y14933   3.760   1.991   9.227 -0.4375 -0.5445 -2.5137
  137SAPE  C31214934   3.781   2.138   9.074 -0.1276 -0.2574 -0.1685
  137SAPE  H12X14935   3.888   2.122   9.053 -0.4360 -2.9924  0.0008
  137SAPE  H12Y14936   3.787   2.249   9.064 -1.2151 -0.2256 -0.6926
  137SAPE  C31314937   3.683   2.102   8.962  0.6064  0.0998  0.6939
  137SAPE  H13X14938   3.591   2.164   8.974  0.5817 -0.3173  3.0448
  137SAPE  H13Y14939   3.659   1.993   8.962  2.5978 -0.5273 -3.0837
  137SAPE  C31414940   3.749   2.136   8.821  0.0200 -0.2445  0.0342
  137SAPE  H14X14941   3.801   2.234   8.827  1.4740 -1.0793  2.2788
  137SAPE  H14Y14942   3.661   2.152   8.754  0.4707 -0.0462 -0.5171
  137SAPE  C31514943   3.848   2.039   8.760 -0.0040  0.4800  0.5506
  137SAPE  H15X14944   3.798   1.939   8.760  2.1316 -0.6484  1.2954
  137SAPE  H15Y14945   3.940   2.009   8.814 -0.4842  0.0621  1.1609
  137SAPE  C31614946   3.891   2.095   8.626 -0.2353 -0.1777  0.0962
  137SAPE  H16X14947   3.986   2.152   8.642  0.1662 -0.7835 -0.0848
  137SAPE  H16Y14948   3.806   2.160   8.596  0.5067  0.6904 -0.1857
  137SAPE  C31714949   3.903   1.994   8.520  0.2276  0.5324 -0.2382
  137SAPE  H17X14950   3.804   1.945   8.505  0.7347 -0.5917  0.0377
  137SAPE  H17Y14951   3.963   1.908   8.555  0.0701  0.4228 -0.2329
  137SAPE  C31814952   3.930   2.062   8.385  0.1686 -0.5229 -0.5190
  137SAPE  H18X14953   4.036   2.096   8.380 -0.1241  0.9827  1.8567
  137SAPE  H18Y14954   3.866   2.153   8.381  1.1023  0.1827  0.2314
  137SAPE  H18Z14955   3.906   1.999   8.296 -1.6899  1.7797 -1.7566
  138SAPE     N14956   3.393   4.514  10.651  0.7493  0.3591  0.2883
  138SAPE   HN114957   3.485   4.475  10.622 -0.6128 -1.4222 -1.9633
  138SAPE   HN214958   3.397   4.618  10.655 -0.5691  0.5177 -1.1560
  138SAPE   HN314959   3.371   4.473  10.743  1.8606 -2.0531 -0.4408
  138SAPE   C1214960   3.285   4.470  10.552 -0.1289 -0.1263 -0.5712
  138SAPE  H12A14961   3.306   4.521  10.455  2.2261 -0.7326 -0.4384
  138SAPE  H12B14962   3.183   4.488  10.592  1.4517 -0.8246  4.5179
  138SAPE   C1114963   3.310   4.319  10.530  0.1264  0.2351 -0.3006
  138SAPE  H11A14964   3.405   4.301  10.474 -0.1874  0.6298 -0.9697
  138SAPE  H11B14965   3.223   4.286  10.470  0.3130  0.5447 -0.7475
  138SAPE     P14966   3.195   4.178  10.727  0.0439 -0.1378  0.2829
  138SAPE   O1314967   3.234   4.110  10.854 -0.3091 -0.1515 -0.4256
  138SAPE   O1414968   3.086   4.279  10.731  0.4959  0.1328 -0.6462
  138SAPE   O1214969   3.322   4.240  10.646 -0.2378 -0.3572  0.5032
  138SAPE   O1114970   3.136   4.067  10.635 -0.2396  0.6402  0.2686
  138SAPE    C114971   3.191   3.934  10.620 -0.4620  0.1467 -0.3681
  138SAPE    HA14972   3.269   3.919  10.698  2.5917  0.2279 -3.1889
  138SAPE    HB14973   3.115   3.855  10.636 -1.8466  0.7763 -3.1321
  138SAPE    C214974   3.272   3.902  10.485  0.4627  0.2057  0.4705
  138SAPE    HS14975   3.310   3.799  10.496 -0.3138 -0.1624 -0.1798
  138SAPE   O2114976   3.378   4.006  10.472 -0.1384  0.7576 -0.1444
  138SAPE   C2114977   3.487   3.983  10.546 -0.1302  0.6210  0.4180
  138SAPE   O2214978   3.500   3.882  10.613 -0.0005 -0.1511  0.4038
  138SAPE   C2214979   3.588   4.099  10.544  0.2642  0.5534 -0.5093
  138SAPE   H2R14980   3.565   4.151  10.449 -1.4481  2.2380  0.7505
  138SAPE   H2S14981   3.563   4.161  10.633  1.1126  1.3898 -0.8339
  138SAPE    C314982   3.192   3.921  10.358 -0.1395 -0.1372  0.1777
  138SAPE    HX14983   3.237   3.886  10.263 -0.6927 -1.2930  0.3206
  138SAPE    HY14984   3.172   4.030  10.352  2.0946  0.3269 -0.0516
  138SAPE   O3114985   3.068   3.846  10.368  0.0205 -0.0811  0.4850
  138SAPE   C3114986   2.995   3.865  10.269  0.2743  0.0067  0.9495
  138SAPE   O3214987   3.016   3.925  10.166  0.3734 -0.4248  0.0270
  138SAPE   C3214988   2.873   3.784  10.283  0.3533 -0.0782 -0.3691
  138SAPE   H2X14989   2.809   3.828  10.363  2.0219  0.1711  0.8761
  138SAPE   H2Y14990   2.901   3.686  10.326 -1.6529 -0.5846 -0.1273
  138SAPE   C2314991   3.734   4.045  10.549 -0.0033  0.3110  0.3646
  138SAPE   H3R14992   3.742   3.962  10.622  1.4438  0.4942  0.4376
  138SAPE   H3S14993   3.799   4.126  10.589  1.2787 -0.8025  0.5958
  138SAPE   C2414994   3.790   4.018  10.405 -0.0342  0.5196  0.2421
  138SAPE   H4R14995   3.901   4.021  10.395  0.2341 -3.5993 -0.0622
  138SAPE   H4S14996   3.764   4.102  10.337 -3.5920 -1.6440 -1.3829
  138SAPE   C2514997   3.743   3.884  10.354 -1.1314  0.0038 -0.2182
  138SAPE   H5R14998   3.765   3.801  10.423  0.7645 -0.4552 -1.3147
  138SAPE   C2614999   3.675   3.866  10.243 -1.0588 -0.3583  0.4942
  138SAPE   H6R15000   3.641   3.765  10.218  1.7722 -1.7101  1.6471
  138SAPE   C2715001   3.637   3.983  10.147 -0.0380  0.2781  0.3280
  138SAPE   H7R15002   3.709   4.067  10.153  2.3122 -1.4577 -1.5788
  138SAPE   H7S15003   3.547   4.028  10.194  1.0377  1.6140  1.1962
  138SAPE   C2815004   3.598   3.945  10.003  0.6590 -0.1747 -0.4515
  138SAPE   H8R15005   3.498   3.900   9.996  0.2746  0.6090 -0.1924
  138SAPE   C2915006   3.644   4.000   9.889 -0.8749 -0.6557 -0.1016
  138SAPE   H9R15007   3.595   3.968   9.796 -0.9295  0.2147 -0.3743
  138SAPE  C21015008   3.747   4.109   9.868  0.3930 -0.5834 -0.0524
  138SAPE  H10R15009   3.798   4.085   9.772 -2.6313 -0.8315 -1.7038
  138SAPE  H10S15010   3.827   4.095   9.945  0.8518 -0.5357 -0.5115
  138SAPE  C21115011   3.706   4.256   9.870 -0.2787  0.1771  0.1579
  138SAPE  H11R15012   3.715   4.310   9.966  0.3849  1.1183 -0.4146
  138SAPE  C21215013   3.679   4.341   9.768 -0.4471  0.1927 -0.0749
  138SAPE  H12R15014   3.647   4.443   9.795 -2.2807 -0.7194  1.4684
  138SAPE  C21315015   3.659   4.303   9.626  0.1941 -0.3540 -0.6125
  138SAPE  H13R15016   3.665   4.192   9.620  1.0361 -0.3785  0.4181
  138SAPE  H13S15017   3.734   4.347   9.557  0.9735  1.1020  1.0732
  138SAPE  C21415018   3.525   4.352   9.566 -0.9594  0.2254 -0.0954
  138SAPE  H14R15019   3.456   4.403   9.634 -0.7662  0.1155  0.1870
  138SAPE  C21515020   3.481   4.335   9.443 -0.0370 -0.3612 -0.0387
  138SAPE  H15R15021   3.378   4.372   9.431 -0.4680 -1.3427  0.5473
  138SAPE  C21615022   3.554   4.266   9.329 -0.3392  0.6375 -0.7930
  138SAPE  H16R15023   3.495   4.175   9.304 -1.4925  1.2158 -0.2462
  138SAPE  H16S15024   3.657   4.239   9.360 -0.9033 -1.3863 -0.5502
  138SAPE  C21715025   3.560   4.359   9.208  0.0995  0.2370 -0.0553
  138SAPE  H17R15026   3.608   4.459   9.221 -1.9557  1.3930 -0.9029
  138SAPE  H17S15027   3.456   4.377   9.174 -0.1365 -1.5486 -0.3855
  138SAPE  C21815028   3.636   4.290   9.092 -0.3201  0.6706 -0.0337
  138SAPE  H18R15029   3.634   4.353   9.001  1.7079 -0.5535 -0.9929
  138SAPE  H18S15030   3.583   4.195   9.066 -1.4338  1.2714 -0.0339
  138SAPE  C21915031   3.785   4.251   9.110 -0.4323 -0.6214 -0.0715
  138SAPE  H19R15032   3.805   4.183   9.196 -0.3506 -2.2436 -1.3108
  138SAPE  H19S15033   3.834   4.350   9.121 -1.6213  0.0829 -0.8962
  138SAPE  C22015034   3.852   4.193   8.991  0.2327 -0.2408  0.0617
  138SAPE  H20R15035   3.958   4.164   9.005  0.4254 -0.9311 -2.2990
  138SAPE  H20S15036   3.850   4.256   8.899 -0.8905  0.0769  0.2827
  138SAPE  H20T15037   3.811   4.092   8.969 -0.8863  0.2453 -0.1860
  138SAPE   C3315038   2.803   3.764  10.144 -0.6378 -0.7372 -0.4539
  138SAPE   H3X15039   2.873   3.719  10.071 -0.9769 -1.1308 -0.5408
  138SAPE   H3Y15040   2.775   3.863  10.101  1.8180 -0.5855 -1.8505
  138SAPE   C3415041   2.691   3.668  10.143  0.2535 -0.1871 -0.2015
  138SAPE   H4X15042   2.599   3.702  10.196 -0.5423 -1.5204 -0.6638
  138SAPE   H4Y15043   2.732   3.585  10.204  0.2632 -0.4619 -0.5743
  138SAPE   C3515044   2.654   3.608  10.006  0.5947  0.3160 -0.7028
  138SAPE   H5X15045   2.747   3.560   9.970  0.3974 -1.2622  0.7196
  138SAPE   H5Y15046   2.629   3.687   9.932 -1.2712  3.2026  2.7141
  138SAPE   C3615047   2.536   3.510  10.009 -0.1179  0.5078 -0.1146
  138SAPE   H6X15048   2.442   3.566  10.026  0.6161  2.0077 -0.7652
  138SAPE   H6Y15049   2.567   3.435  10.085  1.4428 -0.2908 -1.4620
  138SAPE   C3715050   2.518   3.434   9.874 -0.2186 -0.1598 -0.0958
  138SAPE   H7X15051   2.458   3.342   9.889 -1.6713  0.8192  0.3210
  138SAPE   H7Y15052   2.622   3.409   9.846  0.7275  1.2355  1.9050
  138SAPE   C3815053   2.456   3.514   9.760  0.1179  0.6190  0.3708
  138SAPE   H8X15054   2.501   3.615   9.763  1.0674  0.1898  1.5327
  138SAPE   H8Y15055   2.347   3.524   9.781 -0.5065 -0.9545 -1.7840
  138SAPE   C3915056   2.472   3.431   9.630 -0.7387  0.6452 -0.1852
  138SAPE   H9X15057   2.408   3.340   9.631  0.1635 -0.1465 -3.2147
  138SAPE   H9Y15058   2.578   3.398   9.624 -1.2707 -1.4118  0.6607
  138SAPE  C31015059   2.435   3.502   9.501  0.1372  0.0085  0.0757
  138SAPE  H10X15060   2.483   3.602   9.496 -0.0839  0.3636  3.4286
  138SAPE  H10Y15061   2.326   3.515   9.485  0.0955  0.2688  0.5891
  138SAPE  C31115062   2.477   3.416   9.380  0.1303  0.6330  0.0708
  138SAPE  H11X15063   2.429   3.316   9.386  0.0250  0.3685 -3.3993
  138SAPE  H11Y15064   2.588   3.407   9.379  0.1734  1.1819 -0.4664
  138SAPE  C31215065   2.437   3.481   9.242 -0.3302  0.0339  0.2233
  138SAPE  H12X15066   2.516   3.557   9.228  0.4210 -0.5055  1.4157
  138SAPE  H12Y15067   2.334   3.521   9.256 -0.6560 -1.4805  2.7115
  138SAPE  C31315068   2.437   3.380   9.126  0.0663 -0.2306 -0.2449
  138SAPE  H13X15069   2.356   3.307   9.149  1.6331 -1.4081  1.9958
  138SAPE  H13Y15070   2.526   3.313   9.127 -0.6218 -1.1756  1.2272
  138SAPE  C31415071   2.382   3.444   8.994 -0.3407 -0.3511  0.1473
  138SAPE  H14X15072   2.388   3.374   8.908  1.7646  0.6053 -0.5772
  138SAPE  H14Y15073   2.442   3.533   8.965 -0.9835 -0.5175 -1.8872
  138SAPE  C31515074   2.239   3.493   8.996  0.8946  0.2400  0.0409
  138SAPE  H15X15075   2.225   3.561   9.083  1.1640 -0.8657  0.9775
  138SAPE  H15Y15076   2.173   3.405   9.008  0.7236 -0.0949 -2.7741
  138SAPE  C31615077   2.206   3.561   8.866  0.5054  0.1507 -0.2046
  138SAPE  H16X15078   2.266   3.510   8.788  0.4163 -0.7461  0.2997
  138SAPE  H16Y15079   2.232   3.668   8.876 -1.5515  0.6141  0.7595
  138SAPE  C31715080   2.063   3.568   8.820  0.2809  0.2348  0.0680
  138SAPE  H17X15081   2.046   3.658   8.757  1.9421 -1.5052 -3.1468
  138SAPE  H17Y15082   1.997   3.572   8.909  2.8145  1.3148  2.0405
  138SAPE  C31815083   2.007   3.443   8.740 -0.5118 -0.4212 -0.8756
  138SAPE  H18X15084   2.064   3.437   8.644  0.7987 -1.7990 -0.0520
  138SAPE  H18Y15085   1.897   3.445   8.725 -0.5925  0.3417 -0.1907
  138SAPE  H18Z15086   2.037   3.352   8.796  0.2332 -1.3091 -2.6116
  139SAPE     N15087   1.747   5.865  10.774 -0.4344 -0.3627 -0.6312
  139SAPE   HN115088   1.770   5.904  10.681 -0.7948  0.3571 -0.4280
  139SAPE   HN215089   1.708   5.770  10.757 -1.1488 -0.6988  2.2846
  139SAPE   HN315090   1.668   5.919  10.816  0.2159  0.8304 -0.8995
  139SAPE   C1215091   1.874   5.864  10.864 -0.3972  0.0394 -0.2440
  139SAPE  H12A15092   1.857   5.804  10.956 -3.1951  1.7489  0.4735
  139SAPE  H12B15093   1.905   5.967  10.893 -1.1832  0.4384 -0.7859
  139SAPE   C1115094   1.989   5.803  10.784 -0.9659 -0.0696 -0.2729
  139SAPE  H11A15095   2.078   5.801  10.850 -1.3578 -0.9524  0.2412
  139SAPE  H11B15096   2.013   5.863  10.693  1.0131  1.4588  1.1835
  139SAPE     P15097   2.046   5.568  10.675  0.1789  0.0060 -0.3173
  139SAPE   O1315098   2.176   5.544  10.736  0.8244  0.1010 -0.4407
  139SAPE   O1415099   1.967   5.444  10.651  0.2843 -0.5143 -0.0057
  139SAPE   O1215100   1.966   5.666  10.767 -0.3076 -0.4096  0.3107
  139SAPE   O1115101   2.080   5.652  10.551 -0.3193  0.2678  0.4604
  139SAPE    C115102   1.999   5.705  10.457 -0.1737 -0.0649  0.4108
  139SAPE    HA15103   1.912   5.760  10.498 -0.7331  1.5176 -2.5679
  139SAPE    HB15104   2.071   5.774  10.408 -0.2218  0.8898  1.6311
  139SAPE    C215105   1.958   5.597  10.349 -0.1796 -0.1896  0.5369
  139SAPE    HS15106   1.902   5.519  10.405 -0.5906  0.4714  1.0572
  139SAPE   O2115107   2.073   5.542  10.282  0.4706 -0.3713 -0.6016
  139SAPE   C2115108   2.072   5.414  10.265  0.3223 -0.3636  0.1110
  139SAPE   O2215109   2.000   5.328  10.310  0.3018  0.0651  0.0600
  139SAPE   C2215110   2.192   5.392  10.168  0.5947  0.1209 -0.2456
  139SAPE   H2R15111   2.221   5.479  10.105 -1.4511 -0.2910 -1.8885
  139SAPE   H2S15112   2.283   5.382  10.231  0.2689  1.4322  0.4718
  139SAPE    C315113   1.861   5.660  10.242 -0.4844 -0.2704 -0.1455
  139SAPE    HX15114   1.781   5.714  10.298  0.6023  1.3133 -0.0544
  139SAPE    HY15115   1.818   5.566  10.201  3.2533 -2.6070  0.8009
  139SAPE   O3115116   1.922   5.749  10.149 -0.2200  0.2740  0.3911
  139SAPE   C3115117   1.948   5.695  10.031  0.1816 -0.3496 -0.1774
  139SAPE   O3215118   1.929   5.583   9.990 -0.1921 -0.1069 -0.1947
  139SAPE   C3215119   2.005   5.809   9.946 -0.1571 -0.3915 -0.0365
  139SAPE   H2X15120   1.976   5.907   9.991 -0.7531 -0.5219 -0.1241
  139SAPE   H2Y15121   1.958   5.795   9.846  0.2715  0.4417 -0.3608
  139SAPE   C2315122   2.181   5.263  10.087  0.5621  0.4118  0.1683
  139SAPE   H3R15123   2.153   5.184  10.160  0.4589 -1.2155 -1.5310
  139SAPE   H3S15124   2.281   5.237  10.047  1.2372  2.5362  0.3650
  139SAPE   C2415125   2.082   5.271   9.974  0.1855 -0.2931  0.6873
  139SAPE   H4R15126   2.111   5.358   9.911  1.7165  0.0840  1.8715
  139SAPE   H4S15127   1.978   5.296  10.005 -0.4061 -0.2719 -1.1752
  139SAPE   C2515128   2.069   5.146   9.893 -0.6480 -0.1390 -0.6174
  139SAPE   H5R15129   2.137   5.066   9.925  0.9360  1.2047 -0.4910
  139SAPE   C2615130   2.028   5.136   9.763  0.2142  0.9082 -0.3082
  139SAPE   H6R15131   2.033   5.040   9.709 -1.7708 -0.2739  1.4806
  139SAPE   C2715132   1.975   5.254   9.685 -0.2010  0.0589  0.3032
  139SAPE   H7R15133   1.966   5.348   9.744  1.0051  3.0827 -3.8369
  139SAPE   H7S15134   1.877   5.218   9.646  0.5764  0.5292 -2.2793
  139SAPE   C2815135   2.081   5.277   9.578  1.0577  0.2521 -0.2012
  139SAPE   H8R15136   2.164   5.333   9.622  0.5654  1.7238 -1.0820
  139SAPE   C2915137   2.090   5.240   9.448 -0.0350  0.8243 -0.0324
  139SAPE   H9R15138   2.183   5.268   9.396 -0.5808  1.7708 -0.5317
  139SAPE  C21015139   1.982   5.171   9.365 -0.0449 -0.1677 -1.0891
  139SAPE  H10R15140   1.961   5.240   9.281  0.7441  0.4179 -0.8250
  139SAPE  H10S15141   1.892   5.181   9.429  1.3702 -0.9591  1.1323
  139SAPE  C21115142   2.006   5.021   9.321  0.0981 -0.2307  0.5393
  139SAPE  H11R15143   2.025   4.952   9.405 -2.0165 -1.5422  0.0269
  139SAPE  C21215144   2.020   4.971   9.200  0.4201  0.5240  0.1768
  139SAPE  H12R15145   2.048   4.865   9.194  1.2116  0.6616  1.1524
  139SAPE  C21315146   2.003   5.029   9.066  0.7620  0.2484 -0.3741
  139SAPE  H13R15147   2.077   4.976   9.002  1.0552  1.1464 -0.7933
  139SAPE  H13S15148   2.040   5.134   9.072  0.3735  0.3415  0.4967
  139SAPE  C21415149   1.865   5.025   9.003 -0.0703  0.4077 -0.5949
  139SAPE  H14R15150   1.796   5.102   9.041 -1.0475 -0.1678 -1.1908
  139SAPE  C21515151   1.811   4.940   8.912 -0.4690  0.4375  0.0960
  139SAPE  H15R15152   1.714   4.966   8.866  0.9262 -0.4157 -3.6623
  139SAPE  C21615153   1.880   4.828   8.840 -0.8647 -0.0680  0.3296
  139SAPE  H16R15154   1.991   4.832   8.834 -0.8491 -0.7649  0.0418
  139SAPE  H16S15155   1.857   4.813   8.732 -3.1816 -1.0753  0.9004
  139SAPE  C21715156   1.831   4.697   8.908 -0.0953  1.1806 -0.4360
  139SAPE  H17R15157   1.722   4.698   8.928  0.3730 -1.5401  3.1972
  139SAPE  H17S15158   1.889   4.690   9.003  2.2175 -0.0456 -1.8492
  139SAPE  C21815159   1.866   4.583   8.814 -0.3193 -0.0025 -0.5771
  139SAPE  H18R15160   1.962   4.598   8.761 -0.3780 -3.0166 -1.7425
  139SAPE  H18S15161   1.792   4.604   8.734  0.0985  0.1876 -0.9180
  139SAPE  C21915162   1.857   4.443   8.876 -0.7254  0.1956  0.5734
  139SAPE  H19R15163   1.867   4.377   8.787 -2.0432 -0.1754  0.6768
  139SAPE  H19S15164   1.758   4.421   8.922 -0.4918  0.9605  1.4854
  139SAPE  C22015165   1.963   4.407   8.981  0.5748 -0.0791 -0.7120
  139SAPE  H20R15166   1.963   4.476   9.068  2.3509  0.7467 -1.3173
  139SAPE  H20S15167   2.063   4.396   8.935  1.1800 -1.0081  0.7400
  139SAPE  H20T15168   1.927   4.309   9.019 -0.7542 -0.2362 -2.2735
  139SAPE   C3315169   2.158   5.813   9.914  0.1328 -0.0046  0.0953
  139SAPE   H3X15170   2.223   5.796  10.002 -1.0660 -1.0352  0.8052
  139SAPE   H3Y15171   2.189   5.913   9.876 -1.3984 -0.2644 -2.0443
  139SAPE   C3415172   2.202   5.708   9.816 -0.3082 -0.2516  0.0072
  139SAPE   H4X15173   2.142   5.618   9.842 -1.8375  0.3618 -1.2790
  139SAPE   H4Y15174   2.310   5.688   9.833 -0.2313 -0.2217 -0.4360
  139SAPE   C3515175   2.174   5.745   9.673  0.3619  1.1036  0.5276
  139SAPE   H5X15176   2.223   5.844   9.657  3.3270 -0.3282  0.0988
  139SAPE   H5Y15177   2.063   5.747   9.661  0.1847 -3.1045  0.2423
  139SAPE   C3615178   2.237   5.653   9.571  0.0852 -0.5639 -0.0457
  139SAPE   H6X15179   2.194   5.553   9.594  0.4308 -1.3271 -2.4259
  139SAPE   H6Y15180   2.348   5.646   9.576  0.2831  1.6026 -0.6245
  139SAPE   C3715181   2.202   5.699   9.433  0.1609 -0.1271  0.3206
  139SAPE   H7X15182   2.261   5.792   9.418  2.0807 -1.6479 -2.2189
  139SAPE   H7Y15183   2.096   5.727   9.416  0.5087  0.6293 -0.6954
  139SAPE   C3815184   2.255   5.604   9.326 -0.0338  0.4220 -0.1692
  139SAPE   H8X15185   2.203   5.507   9.338 -0.3714  0.8031  1.9636
  139SAPE   H8Y15186   2.362   5.578   9.338  0.1442  1.4087  0.5814
  139SAPE   C3915187   2.230   5.666   9.184  0.1940  0.1724 -0.7942
  139SAPE   H9X15188   2.313   5.739   9.171  1.0717 -0.8563 -1.2103
  139SAPE   H9Y15189   2.127   5.707   9.177 -0.0349 -0.6028 -2.2458
  139SAPE  C31015190   2.244   5.557   9.073 -1.0397  0.0112  0.1294
  139SAPE  H10X15191   2.197   5.461   9.104 -0.3952 -0.3812 -0.0901
  139SAPE  H10Y15192   2.352   5.533   9.063 -1.5281 -2.1413 -0.4871
  139SAPE  C31115193   2.200   5.608   8.937  0.4171  0.0568 -0.4036
  139SAPE  H11X15194   2.255   5.695   8.896 -1.0758  0.9011 -0.6901
  139SAPE  H11Y15195   2.101   5.651   8.964 -0.1216 -0.9403 -0.7145
  139SAPE  C31215196   2.183   5.500   8.826 -0.2113 -0.1646  0.2165
  139SAPE  H12X15197   2.128   5.544   8.740  1.2398  0.6469 -0.3294
  139SAPE  H12Y15198   2.129   5.412   8.868 -0.7314 -0.2743 -0.6577
  139SAPE  C31315199   2.316   5.446   8.770  0.1092 -0.3345  0.7396
  139SAPE  H13X15200   2.363   5.379   8.844  0.5577 -1.1019 -0.2230
  139SAPE  H13Y15201   2.368   5.543   8.753 -1.1459  0.3061  0.4026
  139SAPE  C31415202   2.296   5.359   8.643  0.1757  0.0254  0.8865
  139SAPE  H14X15203   2.389   5.340   8.584 -2.0638 -3.0487 -2.0923
  139SAPE  H14Y15204   2.232   5.419   8.574 -1.5216 -0.5907  1.8627
  139SAPE  C31515205   2.240   5.216   8.666  0.5186  0.8640 -0.2209
  139SAPE  H15X15206   2.157   5.220   8.740  1.0561 -2.6253  0.7503
  139SAPE  H15Y15207   2.314   5.142   8.704 -1.9120 -2.1942 -0.9871
  139SAPE  C31615208   2.163   5.159   8.542  0.2120  0.2980  0.5336
  139SAPE  H16X15209   2.089   5.238   8.515 -1.0955 -0.4733  1.7556
  139SAPE  H16Y15210   2.226   5.145   8.451  0.0514 -0.4929  0.5408
  139SAPE  C31715211   2.081   5.032   8.583 -0.5892 -1.0456  0.2838
  139SAPE  H17X15212   2.013   5.066   8.665 -1.6301 -2.2804 -0.0320
  139SAPE  H17Y15213   2.146   4.951   8.622 -1.7118 -1.4649  1.3588
  139SAPE  C31815214   1.999   4.999   8.464  0.3650 -0.2314  0.0552
  139SAPE  H18X15215   2.050   4.946   8.380  0.7354 -0.5422  0.4765
  139SAPE  H18Y15216   1.958   5.094   8.424  0.4553 -0.3760 -0.3920
  139SAPE  H18Z15217   1.905   4.941   8.474  0.5684 -1.2079 -2.7909
  140SAPE     N15218   5.293   5.250  10.933  0.0108 -0.3876  0.3045
  140SAPE   HN115219   5.347   5.291  11.012 -1.0217 -0.1311  0.8969
  140SAPE   HN215220   5.285   5.146  10.933 -1.4538 -0.3382  2.5709
  140SAPE   HN315221   5.344   5.266  10.844  2.0520 -0.3508  1.4185
  140SAPE   C1215222   5.165   5.322  10.922 -0.2063 -0.1905  0.2318
  140SAPE  H12A15223   5.117   5.318  11.022  0.5600 -0.4924  0.5942
  140SAPE  H12B15224   5.097   5.282  10.844  0.7891  0.8619 -1.2128
  140SAPE   C1115225   5.201   5.469  10.889 -0.0677  0.0763 -0.4171
  140SAPE  H11A15226   5.107   5.523  10.865  1.1310  2.4015 -0.1237
  140SAPE  H11B15227   5.266   5.469  10.799 -0.6035 -2.9775 -0.9355
  140SAPE     P15228   5.331   5.672  10.993 -0.3818 -0.0804 -0.2868
  140SAPE   O1315229   5.278   5.752  11.108 -0.2187 -0.1249  0.1216
  140SAPE   O1415230   5.479   5.649  10.978  0.1561  0.4583 -1.0899
  140SAPE   O1215231   5.261   5.528  10.998 -0.5142 -0.2823  0.0717
  140SAPE   O1115232   5.280   5.740  10.861  0.4215  0.1237 -0.3296
  140SAPE    C115233   5.156   5.818  10.855 -0.2409 -0.0816 -0.2874
  140SAPE    HA15234   5.072   5.760  10.899  0.4226  0.7511  2.2526
  140SAPE    HB15235   5.164   5.913  10.912 -2.2113  1.2057 -1.9933
  140SAPE    C215236   5.130   5.878  10.714 -0.2128 -0.4447  0.2713
  140SAPE    HS15237   5.026   5.915  10.704 -0.1211  1.0626  3.4453
  140SAPE   O2115238   5.149   5.772  10.618 -0.2351  0.4084  0.2830
  140SAPE   C2115239   5.050   5.694  10.591 -0.6188  0.0012  0.6512
  140SAPE   O2215240   4.938   5.698  10.636  0.0200 -0.2023 -0.2824
  140SAPE   C2215241   5.083   5.614  10.464 -0.5184 -0.0404  0.3273
  140SAPE   H2R15242   5.008   5.533  10.448 -1.4264  1.1220 -1.7235
  140SAPE   H2S15243   5.072   5.675  10.372 -2.0537 -0.9099 -0.0972
  140SAPE    C315244   5.234   5.981  10.668 -0.4167 -0.6861 -0.3913
  140SAPE    HX15245   5.327   5.922  10.673 -0.9619 -1.5645 -0.4760
  140SAPE    HY15246   5.258   6.071  10.729 -2.4648 -0.7575  0.6078
  140SAPE   O3115247   5.222   6.020  10.527  0.6131 -0.4413 -0.2692
  140SAPE   C3115248   5.110   6.090  10.498 -0.1786 -0.0328  0.0314
  140SAPE   O3215249   5.051   6.169  10.568  0.1708  0.5415 -0.6250
  140SAPE   C3215250   5.062   6.038  10.362 -0.0477 -0.2794  0.4078
  140SAPE   H2X15251   5.053   5.928  10.351  0.3371 -0.3087  0.3562
  140SAPE   H2Y15252   5.147   6.067  10.296  0.8266 -0.8189  1.2826
  140SAPE   C2315253   5.222   5.545  10.460  0.6317 -0.2262 -0.0941
  140SAPE   H3R15254   5.204   5.466  10.536 -0.4511  0.2977  0.2129
  140SAPE   H3S15255   5.293   5.622  10.499  0.7243  0.4450 -1.5328
  140SAPE   C2415256   5.274   5.496  10.328  0.4439 -0.9728 -0.4127
  140SAPE   H4R15257   5.372   5.449  10.351  0.8102 -0.3961 -0.7775
  140SAPE   H4S15258   5.293   5.588  10.269  0.5609 -0.2404  0.7264
  140SAPE   C2515259   5.178   5.402  10.277 -1.0591  0.5286 -0.2145
  140SAPE   H5R15260   5.173   5.310  10.338  0.6091  0.0765 -0.6859
  140SAPE   C2615261   5.102   5.415  10.170 -0.3502 -0.2990 -0.0002
  140SAPE   H6R15262   5.028   5.339  10.140  0.0994  0.5096 -3.5084
  140SAPE   C2715263   5.093   5.530  10.074 -0.7990 -0.4106  0.3737
  140SAPE   H7R15264   5.167   5.606  10.105  0.4781 -2.1328  1.7866
  140SAPE   H7S15265   5.003   5.594  10.081  0.0247  0.7892  0.4124
  140SAPE   C2815266   5.115   5.483   9.932 -0.4607 -0.0608 -0.0329
  140SAPE   H8R15267   5.193   5.406   9.922 -0.5892 -0.2755  0.5618
  140SAPE   C2915268   5.054   5.510   9.812  0.7049 -0.1860  0.0050
  140SAPE   H9R15269   5.094   5.483   9.714 -1.3033 -0.2111 -0.8557
  140SAPE  C21015270   4.944   5.618   9.806  0.2700  0.0327 -0.4640
  140SAPE  H10R15271   4.946   5.668   9.706  0.1390 -0.7173 -0.8497
  140SAPE  H10S15272   4.977   5.703   9.869 -2.7190  1.1286 -0.2259
  140SAPE  C21115273   4.809   5.584   9.855  0.2981 -0.1125  0.5175
  140SAPE  H11R15274   4.796   5.592   9.964 -0.5977 -0.5287  0.4517
  140SAPE  C21215275   4.700   5.539   9.778 -0.2994  0.3254 -0.2146
  140SAPE  H12R15276   4.605   5.515   9.827 -1.0574 -0.2709 -1.9116
  140SAPE  C21315277   4.709   5.513   9.631  0.2423 -0.2479 -0.7315
  140SAPE  H13R15278   4.810   5.483   9.598  0.2049  0.9245 -2.0152
  140SAPE  H13S15279   4.676   5.608   9.583  1.4090 -0.7356 -2.5869
  140SAPE  C21415280   4.608   5.407   9.592 -0.1444 -0.1832 -0.1044
  140SAPE  H14R15281   4.574   5.345   9.676  2.4078 -0.9910  0.4118
  140SAPE  C21515282   4.544   5.399   9.477 -0.0521 -0.1133  0.2408
  140SAPE  H15R15283   4.461   5.327   9.478  1.4253 -1.8883  0.5465
  140SAPE  C21615284   4.553   5.484   9.352 -0.8503 -0.2929 -0.1396
  140SAPE  H16R15285   4.653   5.473   9.305 -0.3831 -2.4757  1.2420
  140SAPE  H16S15286   4.538   5.592   9.376 -1.2176 -0.4501  0.3468
  140SAPE  C21715287   4.454   5.450   9.240 -0.3115  0.1767 -0.2368
  140SAPE  H17R15288   4.352   5.478   9.272 -1.0323 -0.9547 -1.4646
  140SAPE  H17S15289   4.453   5.343   9.211 -0.9919  0.1415 -0.0839
  140SAPE  C21815290   4.485   5.535   9.108  0.3342  0.3099  0.2363
  140SAPE  H18R15291   4.593   5.512   9.095  0.0044 -2.6212  1.8644
  140SAPE  H18S15292   4.473   5.645   9.118 -3.5266  0.2303 -1.6848
  140SAPE  C21915293   4.398   5.487   8.989 -0.0590  0.1405  0.4524
  140SAPE  H19R15294   4.298   5.473   9.036 -0.8160  1.8543 -0.5607
  140SAPE  H19S15295   4.441   5.387   8.966  2.5190  0.8034  1.9582
  140SAPE  C22015296   4.382   5.571   8.862 -0.0476  0.2768  0.6836
  140SAPE  H20R15297   4.342   5.518   8.773  1.0887  1.5377 -0.6410
  140SAPE  H20S15298   4.485   5.595   8.829 -0.0837 -0.9125 -0.3698
  140SAPE  H20T15299   4.328   5.666   8.883  0.2603  0.9019 -1.1180
  140SAPE   C3315300   4.935   6.115  10.314  0.1122 -0.0776  0.2568
  140SAPE   H3X15301   4.943   6.224  10.290 -1.2608 -0.1045 -0.4479
  140SAPE   H3Y15302   4.865   6.107  10.399 -0.6940  1.5226 -0.2114
  140SAPE   C3415303   4.863   6.051  10.195 -0.2947 -0.2543 -0.3358
  140SAPE   H4X15304   4.760   6.087  10.172  0.0342 -0.5900 -2.4600
  140SAPE   H4Y15305   4.846   5.947  10.228 -1.7951  0.7946  2.5459
  140SAPE   C3515306   4.946   6.069  10.069  0.1436  0.2736  0.6642
  140SAPE   H5X15307   5.046   6.024  10.082  0.0151 -0.2389 -0.0482
  140SAPE   H5Y15308   4.957   6.179  10.052 -1.6918  0.3836 -0.0807
  140SAPE   C3615309   4.880   6.022   9.940 -0.3317 -0.5476  0.1985
  140SAPE   H6X15310   4.788   6.082   9.924  0.2112  0.4315  0.6569
  140SAPE   H6Y15311   4.838   5.919   9.942 -2.1336  0.1076 -1.4285
  140SAPE   C3715312   4.975   6.041   9.818  0.1068  0.1339  0.3382
  140SAPE   H7X15313   5.050   5.961   9.832 -1.8540 -2.1349 -1.3634
  140SAPE   H7Y15314   5.023   6.141   9.814  0.4305 -0.0215  0.2565
  140SAPE   C3815315   4.890   6.004   9.695  0.6041 -0.0672 -0.1394
  140SAPE   H8X15316   4.808   6.077   9.679 -1.5765 -2.5462 -0.9878
  140SAPE   H8Y15317   4.849   5.902   9.705 -0.9388  0.3424 -1.8564
  140SAPE   C3915318   4.981   6.012   9.576  0.4042  0.6877  0.2852
  140SAPE   H9X15319   5.070   5.950   9.600  0.0812  0.5002  1.0103
  140SAPE   H9Y15320   5.016   6.115   9.553  1.4116  0.1544 -0.7394
  140SAPE  C31015321   4.916   5.941   9.450 -0.6103  0.1065 -0.2147
  140SAPE  H10X15322   4.978   5.963   9.360  2.8450 -2.0049  1.4405
  140SAPE  H10Y15323   4.815   5.982   9.431 -2.1168 -2.3212  1.9376
  140SAPE  C31115324   4.896   5.790   9.462 -0.5771  0.1826 -0.3425
  140SAPE  H11X15325   4.822   5.765   9.541 -0.7729 -0.3753 -0.6952
  140SAPE  H11Y15326   4.996   5.767   9.503 -0.8242  1.3753  1.0141
  140SAPE  C31215327   4.846   5.717   9.331 -0.1113  0.0432 -0.5992
  140SAPE  H12X15328   4.737   5.731   9.318 -0.0408  2.4339  0.7473
  140SAPE  H12Y15329   4.849   5.608   9.354 -1.4000 -0.1025 -1.0700
  140SAPE  C31315330   4.927   5.739   9.206  0.4525 -0.6173  0.3500
  140SAPE  H13X15331   5.028   5.698   9.224  1.6049  1.5512 -0.8052
  140SAPE  H13Y15332   4.945   5.847   9.188  3.5392 -1.2019 -0.6536
  140SAPE  C31415333   4.854   5.678   9.087  0.3819  0.8257 -0.1860
  140SAPE  H14X15334   4.747   5.709   9.083 -0.2548 -1.2371 -3.0867
  140SAPE  H14Y15335   4.850   5.568   9.100 -2.2149  0.7191 -1.2427
  140SAPE  C31515336   4.929   5.707   8.956 -0.1530  0.1380  0.1769
  140SAPE  H15X15337   5.025   5.653   8.970  0.4028  0.9271 -0.4915
  140SAPE  H15Y15338   4.944   5.817   8.945 -0.4164  0.0293 -1.5238
  140SAPE  C31615339   4.843   5.650   8.846  0.3104 -0.1680 -0.3634
  140SAPE  H16X15340   4.743   5.695   8.827  1.6270  1.7947 -3.7111
  140SAPE  H16Y15341   4.830   5.544   8.874  0.4745 -0.0867  0.0254
  140SAPE  C31715342   4.902   5.655   8.706 -0.1806  0.5662  0.4492
  140SAPE  H17X15343   4.997   5.598   8.712 -0.3247  0.3812  0.9924
  140SAPE  H17Y15344   4.917   5.761   8.675 -1.6640 -0.2021 -3.3957
  140SAPE  C31815345   4.816   5.587   8.600 -0.6719 -0.5093 -1.0983
  140SAPE  H18X15346   4.866   5.574   8.501  2.0340 -0.9590  0.2106
  140SAPE  H18Y15347   4.730   5.656   8.588 -0.3604  0.0089 -0.4108
  140SAPE  H18Z15348   4.769   5.499   8.647 -0.7206 -0.3377 -0.8292
  141SAPE     N15349   4.953   6.493  11.133  0.2111  0.6434 -0.1799
  141SAPE   HN115350   4.961   6.596  11.144 -0.9679  0.5694  1.9416
  141SAPE   HN215351   4.881   6.470  11.061 -0.6935 -0.3296  0.9802
  141SAPE   HN315352   4.904   6.472  11.223  0.9030  2.1299  0.5845
  141SAPE   C1215353   5.078   6.403  11.122 -0.1476  0.1327  0.1406
  141SAPE  H12A15354   5.122   6.373  11.219 -0.7717  0.3480  0.4968
  141SAPE  H12B15355   5.149   6.468  11.067 -0.3564  0.2195 -0.0304
  141SAPE   C1115356   5.042   6.280  11.037  0.4221  0.0932  0.1345
  141SAPE  H11A15357   5.132   6.216  11.028  1.4322  1.3020  1.1954
  141SAPE  H11B15358   5.019   6.320  10.936 -2.2614  1.1853  1.1025
  141SAPE     P15359   4.869   6.089  11.007 -0.0861  0.0301 -0.0169
  141SAPE   O1315360   4.954   5.969  11.036 -0.1064 -0.1493 -0.4624
  141SAPE   O1415361   4.717   6.079  11.035 -0.0689  0.3758  0.0116
  141SAPE   O1215362   4.930   6.205  11.085  0.0278 -0.1006  0.0011
  141SAPE   O1115363   4.894   6.124  10.851 -0.0297 -0.1815  0.8386
  141SAPE    C115364   4.802   6.206  10.776  0.1045  1.0419 -0.0160
  141SAPE    HA15365   4.783   6.299  10.834 -1.3038 -0.5446  2.1773
  141SAPE    HB15366   4.846   6.237  10.678 -0.4525 -0.2728 -0.7066
  141SAPE    C215367   4.678   6.121  10.733 -0.0271  0.4083  0.2805
  141SAPE    HS15368   4.632   6.055  10.810  0.7049 -1.3517 -0.7079
  141SAPE   O2115369   4.728   6.036  10.622  0.3087 -0.3443 -0.1671
  141SAPE   C2115370   4.660   5.925  10.602  0.4405 -0.6842  0.0282
  141SAPE   O2215371   4.572   5.882  10.671  0.5427 -0.2659 -0.2348
  141SAPE   C2215372   4.703   5.854  10.476  0.1433  0.2259  0.3629
  141SAPE   H2R15373   4.661   5.904  10.386 -0.2889  0.0211  0.4492
  141SAPE   H2S15374   4.814   5.859  10.467  0.2494 -2.0399 -0.1068
  141SAPE    C315375   4.572   6.221  10.682  0.3428 -0.1567 -0.1659
  141SAPE    HX15376   4.625   6.294  10.616  0.1901  1.1681  1.1207
  141SAPE    HY15377   4.540   6.278  10.772 -0.2461 -1.8656  0.7540
  141SAPE   O3115378   4.463   6.165  10.613 -0.2109  0.0029  1.1319
  141SAPE   C3115379   4.349   6.135  10.674  0.1480 -0.7741  0.7500
  141SAPE   O3215380   4.328   6.158  10.792  0.2676  0.0373  0.4139
  141SAPE   C3215381   4.242   6.089  10.580  0.3166 -0.4980  0.2467
  141SAPE   H2X15382   4.190   6.180  10.541 -0.5683 -0.5467  1.2694
  141SAPE   H2Y15383   4.169   6.033  10.642 -0.9029  0.6827 -0.0659
  141SAPE   C2315384   4.665   5.705  10.476 -0.1329 -0.3505 -0.0781
  141SAPE   H3R15385   4.555   5.694  10.472 -0.1260 -1.2759  1.3876
  141SAPE   H3S15386   4.700   5.649  10.566 -0.7441  1.3867  1.3158
  141SAPE   C2415387   4.730   5.637  10.357  0.9845  0.3138  0.2472
  141SAPE   H4R15388   4.838   5.621  10.377  1.1579  0.4300 -0.5941
  141SAPE   H4S15389   4.729   5.697  10.264 -1.2827  0.5539  0.3671
  141SAPE   C2515390   4.666   5.503  10.326 -0.0875 -0.2653  0.1782
  141SAPE   H5R15391   4.675   5.428  10.406 -2.9155 -1.2178 -0.3094
  141SAPE   C2615392   4.567   5.486  10.231  0.4720 -0.8638 -0.1986
  141SAPE   H6R15393   4.511   5.391  10.226 -2.0439  0.4798  0.7168
  141SAPE   C2715394   4.509   5.584  10.131 -0.1920 -0.0741  0.4336
  141SAPE   H7R15395   4.527   5.558  10.024 -2.3845 -4.1394  0.8415
  141SAPE   H7S15396   4.565   5.679  10.140  0.6955 -0.7099  1.9514
  141SAPE   C2815397   4.366   5.620  10.150 -0.8350 -0.4130  0.6389
  141SAPE   H8R15398   4.346   5.667  10.248 -0.4585  0.6560  0.2186
  141SAPE   C2915399   4.260   5.591  10.066  0.2431 -0.8324  0.3679
  141SAPE   H9R15400   4.159   5.629  10.087 -0.0487 -0.2703 -1.7675
  141SAPE  C21015401   4.266   5.529   9.929  0.3490 -0.4935  0.2903
  141SAPE  H10R15402   4.160   5.500   9.912 -0.1372 -0.8417  3.4442
  141SAPE  H10S15403   4.319   5.433   9.945 -1.2058 -1.2257  1.2350
  141SAPE  C21115404   4.329   5.620   9.823 -0.4424 -0.0314  0.2270
  141SAPE  H11R15405   4.421   5.673   9.851 -0.5700 -0.1073  0.7907
  141SAPE  C21215406   4.280   5.658   9.703  0.7973  0.2534  0.0040
  141SAPE  H12R15407   4.338   5.720   9.632  0.4568  0.2071 -0.3198
  141SAPE  C21315408   4.150   5.611   9.636  0.0770 -0.8845  0.0736
  141SAPE  H13R15409   4.114   5.697   9.577  0.3460 -0.4630  0.5140
  141SAPE  H13S15410   4.084   5.600   9.725 -0.9978 -0.6336 -0.6725
  141SAPE  C21415411   4.163   5.492   9.557  0.3975 -0.2043  0.2722
  141SAPE  H14R15412   4.235   5.419   9.598 -1.1256 -2.6444 -1.1396
  141SAPE  C21515413   4.086   5.468   9.449 -0.1905 -0.1179 -0.5456
  141SAPE  H15R15414   4.101   5.383   9.381 -2.4749  1.0497 -2.6841
  141SAPE  C21615415   3.975   5.552   9.391 -0.3703 -0.0435  0.5467
  141SAPE  H16R15416   3.948   5.638   9.455  1.8602  0.2299  1.2239
  141SAPE  H16S15417   3.879   5.496   9.385 -0.2645 -0.1516 -0.2759
  141SAPE  C21715418   4.007   5.600   9.249 -0.0717 -0.2487  0.2961
  141SAPE  H17R15419   4.097   5.664   9.258  0.0806 -0.5441  0.8624
  141SAPE  H17S15420   3.923   5.667   9.219 -0.4134 -1.3360 -1.3105
  141SAPE  C21815421   4.018   5.494   9.143  0.0309 -0.0253  0.0042
  141SAPE  H18R15422   3.931   5.425   9.153 -2.4970  2.7686 -1.1515
  141SAPE  H18S15423   4.099   5.420   9.160  1.1307  1.0245 -0.4677
  141SAPE  C21915424   4.002   5.560   9.007 -0.0381 -0.0915 -0.3975
  141SAPE  H19R15425   4.088   5.628   8.989  0.6514 -0.8896 -0.2486
  141SAPE  H19S15426   3.914   5.626   9.001 -0.4209 -0.6854 -1.8423
  141SAPE  C22015427   4.007   5.454   8.900  0.3145 -0.3241  0.0117
  141SAPE  H20R15428   3.926   5.380   8.921 -0.5467  0.7162  0.4478
  141SAPE  H20S15429   4.100   5.396   8.884  0.2173 -0.6128  0.4891
  141SAPE  H20T15430   3.968   5.495   8.804  0.3297  0.7063  0.4404
  141SAPE   C3315431   4.289   6.007  10.457  0.1140 -0.1766  0.2149
  141SAPE   H3X15432   4.197   5.954  10.423 -0.6361  1.5693 -0.6416
  141SAPE   H3Y15433   4.371   5.939  10.488  1.2916  0.6550 -0.9946
  141SAPE   C3415434   4.323   6.083  10.329 -0.2590  0.1273  0.4887
  141SAPE   H4X15435   4.406   6.153  10.354 -0.4678  0.1761  1.0608
  141SAPE   H4Y15436   4.236   6.149  10.310  0.7653  1.6823  1.0114
  141SAPE   C3515437   4.359   5.992  10.208 -0.2909 -1.1262  0.3080
  141SAPE   H5X15438   4.264   5.937  10.188 -0.8860  0.8399 -3.1785
  141SAPE   H5Y15439   4.433   5.915  10.237  0.3915 -0.6925 -0.2605
  141SAPE   C3615440   4.404   6.071  10.084  0.5312 -0.3420 -0.3337
  141SAPE   H6X15441   4.492   6.132  10.113 -0.7041  0.6723  1.4994
  141SAPE   H6Y15442   4.327   6.138  10.041  0.1743 -1.2661 -1.1718
  141SAPE   C3715443   4.458   5.973   9.982 -0.0713  0.8619  0.5197
  141SAPE   H7X15444   4.379   5.898   9.959  0.6992 -0.1963  1.2007
  141SAPE   H7Y15445   4.544   5.913  10.017  0.7963 -0.5365 -3.5185
  141SAPE   C3815446   4.491   6.049   9.854 -0.4337  0.1229  0.0671
  141SAPE   H8X15447   4.568   6.126   9.876  0.0767 -0.0066 -1.2016
  141SAPE   H8Y15448   4.398   6.097   9.816 -0.2024 -0.3576 -1.1674
  141SAPE   C3915449   4.532   5.951   9.742 -0.0135 -0.9984  0.1351
  141SAPE   H9X15450   4.459   5.868   9.730  1.2416 -1.9901 -1.0760
  141SAPE   H9Y15451   4.632   5.901   9.748  0.7497  0.5458  0.8335
  141SAPE  C31015452   4.533   6.031   9.607 -0.0593  0.3406 -0.1345
  141SAPE  H10X15453   4.613   6.107   9.594  0.5134 -0.3437 -0.6855
  141SAPE  H10Y15454   4.436   6.085   9.594  0.4796  0.7953 -3.0679
  141SAPE  C31115455   4.545   5.928   9.474  0.1208  0.0086 -0.3955
  141SAPE  H11X15456   4.456   5.867   9.500  0.5958  0.4066  2.5073
  141SAPE  H11Y15457   4.636   5.866   9.488  0.0273  0.3190  2.0130
  141SAPE  C31215458   4.533   6.004   9.343  0.1234 -0.0615  0.1485
  141SAPE  H12X15459   4.621   6.069   9.324 -0.5257  0.4170 -1.3752
  141SAPE  H12Y15460   4.445   6.070   9.358  2.2341  2.7391  1.0539
  141SAPE  C31315461   4.487   5.921   9.217 -0.6249 -0.7367  0.2968
  141SAPE  H13X15462   4.400   5.861   9.252 -0.8804  0.1813  1.2996
  141SAPE  H13Y15463   4.568   5.848   9.197 -0.5828 -1.1784  1.9388
  141SAPE  C31415464   4.460   6.026   9.110  0.2793  0.6599  0.4839
  141SAPE  H14X15465   4.544   6.098   9.109  1.3128 -0.4752  1.5569
  141SAPE  H14Y15466   4.368   6.082   9.138  0.9656  1.0884  2.0233
  141SAPE  C31515467   4.439   5.962   8.965  0.3520 -0.2719 -0.5961
  141SAPE  H15X15468   4.350   5.895   8.970  0.0050  0.1369 -1.1572
  141SAPE  H15Y15469   4.526   5.895   8.952  0.9046  0.3406 -0.0801
  141SAPE  C31615470   4.422   6.077   8.864 -0.5082 -0.3951 -0.6985
  141SAPE  H16X15471   4.515   6.136   8.874 -1.2464  0.6795 -0.0378
  141SAPE  H16Y15472   4.336   6.142   8.891 -1.1881 -1.4847 -0.1675
  141SAPE  C31715473   4.401   6.032   8.722 -0.1338  0.3976 -0.7064
  141SAPE  H17X15474   4.435   6.117   8.659  2.5818 -0.9906 -1.2869
  141SAPE  H17Y15475   4.297   6.002   8.700 -0.0571 -0.5159  0.1026
  141SAPE  C31815476   4.496   5.922   8.686 -0.1957 -0.2564 -1.1041
  141SAPE  H18X15477   4.464   5.818   8.710  0.7091 -0.4637 -0.7307
  141SAPE  H18Y15478   4.596   5.953   8.723 -0.9277  0.3689  0.4276
  141SAPE  H18Z15479   4.521   5.914   8.578 -0.1311  1.9007 -1.2963
  142SAPE     N15480   6.056   3.509  11.263  0.3087 -0.0350  0.1764
  142SAPE   HN115481   5.975   3.447  11.245  1.1323 -0.8668 -0.8524
  142SAPE   HN215482   6.127   3.455  11.317 -0.5726 -0.7680  0.6228
  142SAPE   HN315483   6.015   3.582  11.325 -0.3147 -0.7913  0.6647
  142SAPE   C1215484   6.108   3.563  11.127 -0.4380  0.2447  0.7463
  142SAPE  H12A15485   6.123   3.481  11.054  1.8859  0.4794  0.8915
  142SAPE  H12B15486   6.195   3.630  11.145 -0.3845  0.5752 -0.6340
  142SAPE   C1115487   6.011   3.665  11.067  0.0397  0.7336  0.7576
  142SAPE  H11A15488   6.047   3.700  10.968 -0.5634 -1.9309 -0.4730
  142SAPE  H11B15489   6.002   3.755  11.131 -0.4928  0.7786  0.6212
  142SAPE     P15490   5.738   3.673  11.048  0.1286 -0.0814  0.1121
  142SAPE   O1315491   5.644   3.562  10.997  0.4945 -0.1027  0.4956
  142SAPE   O1415492   5.711   3.726  11.186 -0.2044  0.1504  0.4122
  142SAPE   O1215493   5.882   3.604  11.058 -0.0980  0.0405  0.3845
  142SAPE   O1115494   5.756   3.796  10.953 -0.2260 -0.1510  0.7870
  142SAPE    C115495   5.703   3.786  10.817 -0.2571 -0.1614  0.2335
  142SAPE    HA15496   5.644   3.694  10.795  0.3179 -0.3006 -0.7572
  142SAPE    HB15497   5.655   3.885  10.800 -0.5721 -0.2002  0.8687
  142SAPE    C215498   5.825   3.786  10.715  0.4443 -0.0949  0.4285
  142SAPE    HS15499   5.854   3.679  10.706 -2.4400 -0.9264  0.0072
  142SAPE   O2115500   5.926   3.877  10.765 -0.1660  0.0233 -0.6176
  142SAPE   C2115501   6.049   3.853  10.720  0.7755  0.2235 -0.0788
  142SAPE   O2215502   6.080   3.742  10.673 -0.0009  0.0344 -0.0057
  142SAPE   C2215503   6.146   3.965  10.757  0.2771  0.4584  0.5140
  142SAPE   H2R15504   6.099   4.065  10.750  0.2248  0.7203  3.4637
  142SAPE   H2S15505   6.173   3.974  10.864 -1.7773  3.9490  0.8948
  142SAPE    C315506   5.778   3.831  10.570  0.5829 -0.0704 -0.2111
  142SAPE    HX15507   5.762   3.940  10.579  1.4749 -0.0907  3.6200
  142SAPE    HY15508   5.682   3.780  10.548  0.8794 -1.1458  0.8372
  142SAPE   O3115509   5.878   3.795  10.471 -0.0792 -0.3671  0.6033
  142SAPE   C3115510   5.843   3.739  10.358 -0.7813  0.0098 -0.0858
  142SAPE   O3215511   5.739   3.685  10.339 -0.3303  0.0711  0.4085
  142SAPE   C3215512   5.973   3.712  10.268  0.4576  0.4912  0.2979
  142SAPE   H2X15513   6.021   3.636  10.333  1.2895  1.6297  1.0542
  142SAPE   H2Y15514   6.031   3.806  10.258  0.5967  0.5490  1.4683
  142SAPE   C2315515   6.273   3.963  10.669  0.3846  0.5219  0.1040
  142SAPE   H3R15516   6.310   3.858  10.677 -1.9983 -0.5813 -1.8586
  142SAPE   H3S15517   6.343   4.041  10.706 -0.2219  0.7860  0.7099
  142SAPE   C2415518   6.259   3.991  10.520 -0.2572 -0.2491  0.4541
  142SAPE   H4R15519   6.217   4.093  10.505 -2.9963 -1.4862 -0.9406
  142SAPE   H4S15520   6.190   3.914  10.480 -0.6407  0.8090 -0.9896
  142SAPE   C2515521   6.392   3.995  10.444 -0.3549 -0.1696  0.4081
  142SAPE   H5R15522   6.476   4.030  10.506  0.2525 -3.3707  1.6127
  142SAPE   C2615523   6.407   3.966  10.314 -0.3707  0.7982 -0.0837
  142SAPE   H6R15524   6.507   3.965  10.267  0.3061  1.8141  1.2607
  142SAPE   C2715525   6.290   3.922  10.232 -0.7284 -0.2584  0.1714
  142SAPE   H7R15526   6.235   4.018  10.224  2.0816  1.3200 -2.4485
  142SAPE   H7S15527   6.225   3.845  10.279 -1.6838  0.7328  0.5266
  142SAPE   C2815528   6.334   3.894  10.090  0.3921  0.6872  0.0672
  142SAPE   H8R15529   6.336   3.790  10.055 -0.1623 -0.0655  2.0861
  142SAPE   C2915530   6.376   3.988  10.006  0.4313 -0.1720 -0.5396
  142SAPE   H9R15531   6.398   3.974   9.900 -2.9470 -1.7871 -1.1781
  142SAPE  C21015532   6.382   4.139  10.045  0.5283 -0.1496  0.6550
  142SAPE  H10R15533   6.486   4.157  10.081  0.5423  2.4146 -0.4631
  142SAPE  H10S15534   6.325   4.169  10.135  1.4465  1.1569  0.8328
  142SAPE  C21115535   6.352   4.246   9.943  0.8212 -0.5538 -0.0316
  142SAPE  H11R15536   6.247   4.272   9.925  0.4624 -2.9200 -1.8845
  142SAPE  C21215537   6.438   4.300   9.860 -0.5790  0.4859 -0.1195
  142SAPE  H12R15538   6.419   4.388   9.796 -0.8530  0.6646  0.2058
  142SAPE  C21315539   6.588   4.272   9.872 -0.7959 -0.1722 -0.0068
  142SAPE  H13R15540   6.599   4.163   9.892 -0.4956 -0.5738 -2.1490
  142SAPE  H13S15541   6.640   4.328   9.953  2.6555  0.6279 -2.5425
  142SAPE  C21415542   6.669   4.308   9.746 -0.2488  0.0760  0.0558
  142SAPE  H14R15543   6.726   4.398   9.772  1.7025 -1.4274  1.2689
  142SAPE  C21515544   6.672   4.251   9.626  0.1689 -0.1993  0.2286
  142SAPE  H15R15545   6.748   4.284   9.555  0.4870 -0.4578  0.4503
  142SAPE  C21615546   6.579   4.139   9.584  0.1952  0.1647 -0.0970
  142SAPE  H16R15547   6.563   4.063   9.663  1.7837  0.1109  0.2038
  142SAPE  H16S15548   6.631   4.073   9.510 -2.1539 -0.4195 -1.3107
  142SAPE  C21715549   6.443   4.182   9.525 -0.5636  0.2080 -0.3489
  142SAPE  H17R15550   6.465   4.272   9.464  0.4272 -1.9505 -3.4189
  142SAPE  H17S15551   6.372   4.210   9.606  1.6966  1.9368  1.1732
  142SAPE  C21815552   6.382   4.074   9.438  0.3624  0.2770 -0.2806
  142SAPE  H18R15553   6.451   4.067   9.351 -2.2376 -1.0733 -2.3882
  142SAPE  H18S15554   6.284   4.103   9.395 -1.3392 -2.3398  1.5450
  142SAPE  C21915555   6.369   3.927   9.498 -0.7491  0.3817 -0.1721
  142SAPE  H19R15556   6.468   3.911   9.546  0.0820 -0.4257 -2.0489
  142SAPE  H19S15557   6.345   3.851   9.420  0.2903  0.6159 -0.7380
  142SAPE  C22015558   6.272   3.908   9.619  0.0217  0.1816  0.6704
  142SAPE  H20R15559   6.287   3.994   9.687 -2.0535  1.7987 -0.7870
  142SAPE  H20S15560   6.302   3.813   9.669  0.3682  0.6907  1.4360
  142SAPE  H20T15561   6.163   3.922   9.599  0.3741  3.0767  0.3794
  142SAPE   C3315562   5.933   3.665  10.125 -0.6663  0.0722 -0.0728
  142SAPE   H3X15563   5.833   3.616  10.130 -0.3430 -0.5473  0.4689
  142SAPE   H3Y15564   6.013   3.604  10.079 -0.3806  1.2576 -1.2037
  142SAPE   C3415565   5.912   3.791  10.030  0.5687  0.1772 -1.0145
  142SAPE   H4X15566   6.017   3.824  10.015  0.8967 -0.9106 -1.1435
  142SAPE   H4Y15567   5.847   3.866  10.081 -0.5682 -0.8431 -0.9197
  142SAPE   C3515568   5.861   3.754   9.897 -0.0049  0.1485  0.2649
  142SAPE   H5X15569   5.821   3.851   9.860 -0.7320  0.2489  1.2736
  142SAPE   H5Y15570   5.766   3.697   9.896  0.1013 -0.0635  1.3206
  142SAPE   C3615571   5.970   3.687   9.806 -0.3993  0.4975  0.2880
  142SAPE   H6X15572   5.977   3.584   9.847 -1.5288 -0.2390 -1.2542
  142SAPE   H6Y15573   6.068   3.739   9.810 -0.4662  0.7118 -0.6338
  142SAPE   C3715574   5.920   3.685   9.664  0.4410  0.5678  0.6902
  142SAPE   H7X15575   5.904   3.791   9.635  1.7649  0.7348  0.5367
  142SAPE   H7Y15576   5.820   3.637   9.663  1.2398 -1.1672  0.6568
  142SAPE   C3815577   6.018   3.610   9.571 -0.2050 -0.1997 -0.3900
  142SAPE   H8X15578   6.049   3.520   9.628  1.2277 -0.4846 -1.5406
  142SAPE   H8Y15579   6.106   3.678   9.571  0.0615 -0.4503  2.2955
  142SAPE   C3915580   5.966   3.601   9.428 -0.0425  0.1646 -0.0821
  142SAPE   H9X15581   5.889   3.679   9.412  0.1224  0.3807  0.1657
  142SAPE   H9Y15582   5.904   3.511   9.409  0.5809 -0.7557  1.9409
  142SAPE  C31015583   6.082   3.612   9.319 -0.5182  0.9255  0.2716
  142SAPE  H10X15584   6.164   3.545   9.354  1.5852  2.1706 -2.0029
  142SAPE  H10Y15585   6.117   3.717   9.321  2.0624  0.1278  0.9558
  142SAPE  C31115586   6.029   3.567   9.179 -1.0335  0.8568  0.1247
  142SAPE  H11X15587   5.971   3.644   9.123  1.5927  2.1245 -1.0708
  142SAPE  H11Y15588   5.957   3.486   9.201  0.0710 -0.0123  0.6506
  142SAPE  C31215589   6.142   3.513   9.081 -0.0274 -0.0097  0.2615
  142SAPE  H12X15590   6.099   3.464   8.991 -0.3461  1.5475 -0.4695
  142SAPE  H12Y15591   6.202   3.436   9.135 -0.0831  0.8809  1.6462
  142SAPE  C31315592   6.222   3.624   9.023 -0.2001  0.3412  0.0957
  142SAPE  H13X15593   6.262   3.681   9.110 -0.3890  0.0283  0.3884
  142SAPE  H13Y15594   6.156   3.693   8.967 -0.7277 -0.6494 -0.5269
  142SAPE  C31415595   6.330   3.583   8.927 -0.6137 -0.1209 -0.3774
  142SAPE  H14X15596   6.280   3.532   8.842  0.8819 -1.6774 -0.3751
  142SAPE  H14Y15597   6.390   3.509   8.985  1.6395  0.9684 -1.2077
  142SAPE  C31515598   6.429   3.703   8.902 -0.2984  0.6292  0.3126
  142SAPE  H15X15599   6.459   3.741   9.002  0.3379 -0.1734  0.4407
  142SAPE  H15Y15600   6.385   3.777   8.832 -0.2432 -1.1080 -1.6873
  142SAPE  C31615601   6.553   3.670   8.811 -0.0974  0.2088  0.5447
  142SAPE  H16X15602   6.608   3.764   8.791  2.0341 -0.6452  2.0683
  142SAPE  H16Y15603   6.532   3.624   8.712  3.2422 -0.9040  0.2152
  142SAPE  C31715604   6.653   3.578   8.876 -0.3870 -0.4293  0.7667
  142SAPE  H17X15605   6.621   3.478   8.911 -0.8487 -0.0246  1.5380
  142SAPE  H17Y15606   6.701   3.622   8.967  2.4034  0.1937 -0.8721
  142SAPE  C31815607   6.786   3.549   8.791 -0.0806 -0.3130 -0.4452
  142SAPE  H18X15608   6.856   3.479   8.841 -1.1134 -0.1523  1.2987
  142SAPE  H18Y15609   6.833   3.640   8.750  2.5060 -0.2955  2.3064
  142SAPE  H18Z15610   6.757   3.494   8.698  0.4607  0.5985 -1.1733
  143SAPE     N15611   4.975   4.371  10.714 -0.3336 -0.1890  0.0334
  143SAPE   HN115612   4.984   4.300  10.638  1.7488 -0.2244  0.2465
  143SAPE   HN215613   4.875   4.396  10.726 -0.9639 -1.8929 -1.2271
  143SAPE   HN315614   5.014   4.458  10.672  0.0617 -2.0240 -3.9056
  143SAPE   C1215615   5.051   4.332  10.841  0.4606  0.1097  0.1753
  143SAPE  H12A15616   5.139   4.272  10.810  1.1168  0.0656  2.0051
  143SAPE  H12B15617   4.979   4.267  10.895  1.7328 -0.6270  1.0370
  143SAPE   C1115618   5.082   4.460  10.919  0.1677  0.2936  0.1247
  143SAPE  H11A15619   5.155   4.428  10.997 -1.9682 -2.0971  1.2905
  143SAPE  H11B15620   4.990   4.495  10.971  0.3410 -1.7957  2.0070
  143SAPE     P15621   5.134   4.712  10.886 -0.4214 -0.5623 -0.3817
  143SAPE   O1315622   4.997   4.757  10.919  0.0842 -0.4134 -0.2212
  143SAPE   O1415623   5.246   4.730  10.982 -0.2863 -0.2704 -0.3469
  143SAPE   O1215624   5.139   4.563  10.841 -0.3706 -0.1730  0.2568
  143SAPE   O1115625   5.174   4.777  10.740 -0.4078 -0.1787 -0.2037
  143SAPE    C115626   5.090   4.737  10.628 -0.8092 -0.1873 -0.2005
  143SAPE    HA15627   5.038   4.641  10.648 -0.8398  0.2090  1.8634
  143SAPE    HB15628   5.009   4.813  10.622  1.8621  2.9010 -0.0207
  143SAPE    C215629   5.182   4.740  10.500 -0.1768 -0.2110  0.0301
  143SAPE    HS15630   5.126   4.711  10.409  1.6835  0.2904 -1.3408
  143SAPE   O2115631   5.300   4.656  10.516  0.2613  0.1389 -0.2076
  143SAPE   C2115632   5.269   4.533  10.552 -0.2053  0.2104 -0.6806
  143SAPE   O2215633   5.164   4.478  10.536  0.7538  0.1006 -0.2728
  143SAPE   C2215634   5.394   4.473  10.621 -0.4479 -0.0464 -0.2008
  143SAPE   H2R15635   5.475   4.491  10.547  0.1250  0.5637  0.5624
  143SAPE   H2S15636   5.410   4.536  10.711 -0.6211 -1.7282  1.0505
  143SAPE    C315637   5.238   4.885  10.482  0.0197  0.5202  0.2290
  143SAPE    HX15638   5.293   4.911  10.575 -0.8840 -0.4075  1.0388
  143SAPE    HY15639   5.144   4.940  10.461 -0.6004 -0.5370  0.1750
  143SAPE   O3115640   5.332   4.893  10.374 -0.3174 -0.2176 -0.1458
  143SAPE   C3115641   5.353   5.026  10.351 -0.1421 -0.0521 -0.3099
  143SAPE   O3215642   5.305   5.117  10.414 -0.1468 -0.1188  0.1511
  143SAPE   C3215643   5.451   5.030  10.236 -0.2354 -0.0402 -0.3526
  143SAPE   H2X15644   5.472   4.929  10.194  0.5998  1.0785 -2.8400
  143SAPE   H2Y15645   5.546   5.073  10.273 -1.3919  1.4934  0.9729
  143SAPE   C2315646   5.377   4.322  10.662  0.1990  0.1430 -0.6903
  143SAPE   H3R15647   5.277   4.279  10.641 -0.5253  1.6348 -0.4613
  143SAPE   H3S15648   5.388   4.317  10.772 -1.1770  0.5257 -0.5164
  143SAPE   C2415649   5.486   4.218  10.612 -0.3490  0.1667  0.2558
  143SAPE   H4R15650   5.484   4.231  10.501  1.1784 -0.5740  0.1137
  143SAPE   H4S15651   5.447   4.117  10.637  0.0079 -0.2503 -0.8189
  143SAPE   C2515652   5.619   4.216  10.673  0.6550  0.1734  0.0175
  143SAPE   H5R15653   5.617   4.195  10.782  1.7412 -0.7947 -0.1291
  143SAPE   C2615654   5.741   4.230  10.616 -0.6689  0.0200  0.6192
  143SAPE   H6R15655   5.830   4.191  10.669 -1.0385 -2.3095 -0.3483
  143SAPE   C2715656   5.774   4.248  10.470 -0.4890  0.2800  0.0314
  143SAPE   H7R15657   5.718   4.335  10.429 -1.4622 -0.8333 -1.0893
  143SAPE   H7S15658   5.755   4.163  10.401  1.7523 -0.7776  0.6514
  143SAPE   C2815659   5.912   4.300  10.440  0.2340 -0.4310 -0.4053
  143SAPE   H8R15660   5.959   4.350  10.526  1.8447  0.0581 -1.5087
  143SAPE   C2915661   5.977   4.297  10.327 -0.1893 -0.1241 -0.4607
  143SAPE   H9R15662   6.082   4.331  10.322 -0.1817  0.0679  0.7784
  143SAPE  C21015663   5.936   4.232  10.202 -0.0799 -0.1657 -0.0837
  143SAPE  H10R15664   5.839   4.180  10.215 -0.6709  0.8847 -0.1958
  143SAPE  H10S15665   6.015   4.155  10.190 -0.7506 -1.0540  1.0455
  143SAPE  C21115666   5.911   4.332  10.087  0.4844 -0.1237 -1.2342
  143SAPE  H11R15667   5.905   4.440  10.108 -1.5461 -0.4682  0.4049
  143SAPE  C21215668   5.911   4.289   9.962 -0.0762  0.0865  0.1104
  143SAPE  H12R15669   5.898   4.359   9.878 -0.7196  2.6440  2.2124
  143SAPE  C21315670   5.931   4.147   9.918 -0.3497 -0.9145 -0.8117
  143SAPE  H13R15671   5.842   4.085   9.941  1.1969 -2.6266  0.9096
  143SAPE  H13S15672   6.008   4.101   9.983 -0.0806 -1.2537 -1.3742
  143SAPE  C21415673   5.968   4.140   9.776 -0.2723 -0.1090  0.0089
  143SAPE  H14R15674   6.072   4.173   9.762 -0.3415  1.9725  3.2620
  143SAPE  C21515675   5.896   4.113   9.669 -0.0199  0.1012 -1.0770
  143SAPE  H15R15676   5.946   4.111   9.571  1.6476 -0.5938 -0.2444
  143SAPE  C21615677   5.753   4.077   9.671  0.4216  0.3233 -0.4361
  143SAPE  H16R15678   5.722   4.010   9.754  0.3170  1.7621  0.7334
  143SAPE  H16S15679   5.728   4.030   9.574  1.7608  2.9703 -2.1876
  143SAPE  C21715680   5.670   4.207   9.681  0.2161 -0.5559 -0.2420
  143SAPE  H17R15681   5.664   4.262   9.585  0.5296  2.2716  1.2453
  143SAPE  H17S15682   5.718   4.277   9.753 -0.6546 -2.1014  1.9773
  143SAPE  C21815683   5.531   4.190   9.749 -0.5319  0.2336  0.9721
  143SAPE  H18R15684   5.480   4.289   9.738 -0.1736  0.2331 -0.9989
  143SAPE  H18S15685   5.559   4.185   9.856  1.7714 -0.3435  0.3828
  143SAPE  C21915686   5.444   4.081   9.675  0.4682 -0.6674 -0.4223
  143SAPE  H19R15687   5.506   3.990   9.683  0.5866 -0.4744  1.1877
  143SAPE  H19S15688   5.426   4.133   9.578 -1.2305  2.5422  1.4234
  143SAPE  C22015689   5.310   4.056   9.740 -0.9168  0.2929 -0.3413
  143SAPE  H20R15690   5.233   4.022   9.666 -0.8815  0.1469 -0.3120
  143SAPE  H20S15691   5.286   4.158   9.777 -1.1488  0.7442 -1.6660
  143SAPE  H20T15692   5.324   3.994   9.830  2.2571 -1.7795 -2.0927
  143SAPE   C3315693   5.415   5.131  10.123  0.1619 -0.5767 -0.4636
  143SAPE   H3X15694   5.498   5.136  10.049  0.6204 -2.0226 -0.0758
  143SAPE   H3Y15695   5.407   5.228  10.175  2.4238 -0.6208  0.0729
  143SAPE   C3415696   5.288   5.097  10.042  0.4166  0.1823 -0.1868
  143SAPE   H4X15697   5.260   5.174   9.967 -1.1676 -0.4303 -0.2731
  143SAPE   H4Y15698   5.202   5.091  10.112  0.6419 -1.1369  0.0055
  143SAPE   C3515699   5.295   4.961   9.967  0.1024  0.6699 -0.1505
  143SAPE   H5X15700   5.203   4.953   9.907 -1.2913  0.9215  1.8548
  143SAPE   H5Y15701   5.311   4.879  10.041  1.2679  1.4249  0.4784
  143SAPE   C3615702   5.409   4.948   9.875  0.2469  0.0896  0.2045
  143SAPE   H6X15703   5.500   4.978   9.931  0.3584 -1.0260  0.6369
  143SAPE   H6Y15704   5.396   5.020   9.791  1.7959  1.3489  1.0029
  143SAPE   C3715705   5.431   4.806   9.815 -0.5827 -0.1727 -0.1656
  143SAPE   H7X15706   5.339   4.782   9.757  0.4903 -1.1430 -1.5533
  143SAPE   H7Y15707   5.435   4.737   9.901 -2.0296  0.6233  0.5752
  143SAPE   C3815708   5.555   4.784   9.716  0.0672 -0.9872 -0.4838
  143SAPE   H8X15709   5.653   4.790   9.770 -0.3831 -0.8221  0.3328
  143SAPE   H8Y15710   5.540   4.869   9.646 -0.2989  0.0311  0.7854
  143SAPE   C3915711   5.555   4.643   9.655 -0.2177  0.3521  0.7055
  143SAPE   H9X15712   5.460   4.635   9.599  0.3283  0.4049 -0.2580
  143SAPE   H9Y15713   5.554   4.572   9.741  2.3464  0.9737  1.3430
  143SAPE  C31015714   5.664   4.634   9.559  0.9788  0.4919  0.5262
  143SAPE  H10X15715   5.717   4.538   9.576 -2.4944 -2.2782 -2.4652
  143SAPE  H10Y15716   5.733   4.720   9.571 -1.5195  2.5064  1.3146
  143SAPE  C31115717   5.615   4.632   9.409  0.3540  0.2056 -0.1342
  143SAPE  H11X15718   5.585   4.736   9.388  0.6761  1.0618  3.0184
  143SAPE  H11Y15719   5.523   4.570   9.399 -0.5229  1.6155 -1.2760
  143SAPE  C31215720   5.718   4.572   9.319 -0.2866  0.0670  0.2550
  143SAPE  H12X15721   5.725   4.462   9.332  0.3237  0.0460 -0.2375
  143SAPE  H12Y15722   5.814   4.619   9.353 -0.5064  0.2953  0.5736
  143SAPE  C31315723   5.697   4.607   9.173  1.2096  0.3474 -0.1778
  143SAPE  H13X15724   5.677   4.714   9.152 -0.5910 -0.1151 -1.0175
  143SAPE  H13Y15725   5.610   4.550   9.134 -0.5198  1.2034  2.2119
  143SAPE  C31415726   5.821   4.582   9.084  0.0212 -0.0293  0.1914
  143SAPE  H14X15727   5.829   4.472   9.073 -1.1943 -0.0296 -0.8069
  143SAPE  H14Y15728   5.915   4.616   9.132  0.0656 -0.3625  0.3445
  143SAPE  C31515729   5.812   4.658   8.945 -0.7924  0.5859  0.7285
  143SAPE  H15X15730   5.777   4.759   8.975 -1.0098  1.4824 -2.1912
  143SAPE  H15Y15731   5.739   4.598   8.885 -0.2398  0.0376  0.5957
  143SAPE  C31615732   5.953   4.673   8.877 -0.0827 -0.1188 -0.3860
  143SAPE  H16X15733   5.996   4.572   8.862  2.5107  0.6300  1.3368
  143SAPE  H16Y15734   6.014   4.737   8.944 -0.1470  1.3331 -1.6582
  143SAPE  C31715735   5.957   4.747   8.744  0.1621 -0.0013  0.3697
  143SAPE  H17X15736   5.907   4.845   8.763  1.2668  0.4428  1.0631
  143SAPE  H17Y15737   5.880   4.692   8.686 -1.3994  1.4179  0.9921
  143SAPE  C31815738   6.095   4.750   8.683 -0.3228 -0.3559 -0.1190
  143SAPE  H18X15739   6.095   4.785   8.578  0.1196 -0.2629 -0.0891
  143SAPE  H18Y15740   6.138   4.649   8.671 -0.4160 -0.7065  2.1252
  143SAPE  H18Z15741   6.160   4.822   8.738 -1.3098 -0.1003  0.7585
  144SAPE     N15742   3.277   2.480  10.935  0.0132 -0.1188  0.2051
  144SAPE   HN115743   3.320   2.395  10.978  1.3868  0.6067  0.3074
  144SAPE   HN215744   3.358   2.501  10.874  0.8860 -0.5857  1.1459
  144SAPE   HN315745   3.262   2.550  11.011  3.0677 -0.7495  1.5599
  144SAPE   C1215746   3.159   2.450  10.841 -0.2622  0.2213  0.7386
  144SAPE  H12A15747   3.148   2.547  10.787  2.5893 -0.7511 -1.8440
  144SAPE  H12B15748   3.072   2.426  10.906  0.1993  1.0771  1.7118
  144SAPE   C1115749   3.186   2.330  10.752 -0.3155  0.4867 -0.1438
  144SAPE  H11A15750   3.269   2.339  10.678  1.9547 -0.8022  2.0950
  144SAPE  H11B15751   3.088   2.312  10.704 -1.8489  1.5865  2.3625
  144SAPE     P15752   3.208   2.070  10.777  0.6272  0.0147 -0.1330
  144SAPE   O1315753   3.280   1.980  10.880  0.4274  0.1709  0.1157
  144SAPE   O1415754   3.065   2.037  10.744 -0.3265 -0.0423  0.1040
  144SAPE   O1215755   3.214   2.216  10.839 -0.3466  0.1344  0.0532
  144SAPE   O1115756   3.301   2.084  10.646 -0.2993 -0.1700  0.3149
  144SAPE    C115757   3.319   2.002  10.537 -0.8836  0.5795  0.6695
  144SAPE    HA15758   3.420   2.030  10.500 -1.4663  0.4957 -1.0498
  144SAPE    HB15759   3.304   1.893  10.555 -0.1266  0.8219  3.1451
  144SAPE    C215760   3.229   2.028  10.411 -0.7674 -0.2726  0.1304
  144SAPE    HS15761   3.255   1.953  10.333 -2.9269  0.6603 -1.5876
  144SAPE   O2115762   3.245   2.158  10.352 -0.0984  0.1030  0.1061
  144SAPE   C2115763   3.366   2.176  10.292  1.0537 -0.1157 -0.3515
  144SAPE   O2215764   3.445   2.087  10.276  0.2167  0.0576 -0.4563
  144SAPE   C2215765   3.383   2.327  10.255  0.3667  0.8337 -0.2064
  144SAPE   H2R15766   3.288   2.381  10.234 -0.3246  0.2604  1.3012
  144SAPE   H2S15767   3.417   2.371  10.351  1.5809 -1.7042  0.6146
  144SAPE    C315768   3.079   2.008  10.450 -0.5373  0.2505  0.3932
  144SAPE    HX15769   3.053   2.102  10.504  0.4496  1.9098 -1.8625
  144SAPE    HY15770   3.060   1.920  10.515  1.3290  0.1456  0.8686
  144SAPE   O3115771   3.005   1.997  10.326 -0.2105 -0.0977 -0.3637
  144SAPE   C3115772   3.000   1.875  10.279 -0.0356 -0.1668  0.0820
  144SAPE   O3215773   3.050   1.776  10.334  0.3707  0.0544  0.9344
  144SAPE   C3215774   2.929   1.871  10.144 -0.6655 -0.2677  0.5081
  144SAPE   H2X15775   2.835   1.929  10.153  0.0152  1.0422 -0.5199
  144SAPE   H2Y15776   2.905   1.764  10.125  2.6087 -1.2094  1.0340
  144SAPE   C2315777   3.484   2.362  10.138 -0.4967  0.1716  0.1275
  144SAPE   H3R15778   3.577   2.302  10.146 -0.7073 -0.1362  0.3134
  144SAPE   H3S15779   3.509   2.468  10.158 -1.6269 -0.1066  3.6319
  144SAPE   C2415780   3.420   2.353   9.987 -0.1008 -0.6695  0.2657
  144SAPE   H4R15781   3.504   2.391   9.925  1.2001  0.9096  2.7753
  144SAPE   H4S15782   3.340   2.429   9.981  0.5883 -0.0251 -1.4908
  144SAPE   C2515783   3.383   2.216   9.946  0.2162  0.4999  0.4987
  144SAPE   H5R15784   3.375   2.137  10.022 -0.7937 -0.2830 -0.3853
  144SAPE   C2615785   3.346   2.188   9.817  0.0328  0.0646  0.4282
  144SAPE   H6R15786   3.314   2.086   9.790  0.3728 -0.3366  1.4779
  144SAPE   C2715787   3.324   2.288   9.698  0.9048 -0.1264 -0.0893
  144SAPE   H7R15788   3.286   2.386   9.735 -0.5101  0.0591 -1.9027
  144SAPE   H7S15789   3.254   2.248   9.621  0.4708 -0.0497  0.2613
  144SAPE   C2815790   3.450   2.321   9.630 -0.1452 -0.1991 -0.0469
  144SAPE   H8R15791   3.542   2.312   9.689 -0.8603 -0.6422  1.0220
  144SAPE   C2915792   3.464   2.372   9.511 -0.9600  0.5831  0.3407
  144SAPE   H9R15793   3.568   2.384   9.475 -0.2186 -2.4403  1.2129
  144SAPE  C21015794   3.353   2.408   9.413  0.1421 -0.0664  0.9889
  144SAPE  H10R15795   3.369   2.513   9.381  0.8189  0.1317  1.9150
  144SAPE  H10S15796   3.259   2.415   9.471  0.4293 -0.3153  1.4947
  144SAPE  C21115797   3.357   2.317   9.293 -0.2628  0.6270 -0.0540
  144SAPE  H11R15798   3.344   2.212   9.324  2.2505  0.9074  2.2869
  144SAPE  C21215799   3.342   2.343   9.162 -0.4632 -0.6170 -0.1324
  144SAPE  H12R15800   3.370   2.267   9.088  1.4178  0.7392 -0.8845
  144SAPE  C21315801   3.325   2.485   9.107  0.0427  0.9178 -0.8108
  144SAPE  H13R15802   3.270   2.540   9.187 -2.7824 -0.7005 -1.4754
  144SAPE  H13S15803   3.260   2.487   9.017  1.3109  1.4597 -1.7307
  144SAPE  C21415804   3.454   2.556   9.069  0.4973 -0.6291 -0.1205
  144SAPE  H14R15805   3.518   2.586   9.154 -0.1063  1.1415 -0.2325
  144SAPE  C21515806   3.501   2.582   8.948 -0.0199  0.3537  0.1394
  144SAPE  H15R15807   3.601   2.626   8.947  1.0179 -1.9030 -0.9674
  144SAPE  C21615808   3.430   2.553   8.818 -0.2291 -0.8220 -0.0412
  144SAPE  H16R15809   3.421   2.651   8.766  0.1333 -1.6061 -1.6499
  144SAPE  H16S15810   3.326   2.516   8.828 -0.4197 -0.8029 -1.7078
  144SAPE  C21715811   3.519   2.473   8.721  0.1334  0.3631  0.0525
  144SAPE  H17R15812   3.456   2.446   8.634  1.7077 -2.1494 -0.4014
  144SAPE  H17S15813   3.548   2.379   8.773  0.6770  0.1362 -0.6476
  144SAPE  C21815814   3.643   2.545   8.678  0.1707  0.5522  0.0021
  144SAPE  H18R15815   3.704   2.578   8.764 -0.9005 -0.3478  1.1454
  144SAPE  H18S15816   3.608   2.632   8.619 -1.6108 -1.6378 -2.4377
  144SAPE  C21915817   3.716   2.448   8.582  0.3086 -0.1810 -0.0956
  144SAPE  H19R15818   3.645   2.384   8.525  0.0487 -1.3128  1.4357
  144SAPE  H19S15819   3.775   2.375   8.641 -0.0474  0.8527  1.6013
  144SAPE  C22015820   3.796   2.517   8.470 -0.5866  0.6549  0.6120
  144SAPE  H20R15821   3.860   2.440   8.421 -0.0120  3.4639 -3.5735
  144SAPE  H20S15822   3.866   2.593   8.509 -0.4792 -0.5186  2.9275
  144SAPE  H20T15823   3.735   2.577   8.399 -0.2416  2.1388  1.5208
  144SAPE   C3315824   3.030   1.919  10.038 -0.0109  0.4071 -0.6915
  144SAPE   H3X15825   3.135   1.886  10.055 -1.4082 -4.0519  0.4553
  144SAPE   H3Y15826   3.041   2.029  10.046  0.0910  0.2623  2.0304
  144SAPE   C3415827   2.979   1.890   9.894  0.1158  0.3453 -0.3582
  144SAPE   H4X15828   2.869   1.904   9.880  0.4155  2.7591 -0.5783
  144SAPE   H4Y15829   2.991   1.782   9.871 -0.5170  0.2601 -0.3238
  144SAPE   C3515830   3.045   1.974   9.782 -0.0501 -0.1459 -0.1544
  144SAPE   H5X15831   3.151   1.946   9.764  0.7331  2.3240  0.2074
  144SAPE   H5Y15832   3.034   2.080   9.813 -4.1725 -0.5755  0.4003
  144SAPE   C3615833   2.983   1.951   9.647 -0.2539 -0.5182  0.1941
  144SAPE   H6X15834   2.874   1.969   9.649 -0.2119 -0.3480  1.3034
  144SAPE   H6Y15835   2.983   1.841   9.630  2.0960 -0.7180  1.1842
  144SAPE   C3715836   3.061   2.013   9.524 -0.4264 -0.1016  0.1333
  144SAPE   H7X15837   3.169   1.997   9.546 -0.2438  0.1680 -0.5551
  144SAPE   H7Y15838   3.045   2.122   9.530  2.7849  0.3805  2.4441
  144SAPE   C3815839   3.011   1.960   9.399 -0.2181 -0.0897 -0.2000
  144SAPE   H8X15840   2.905   1.992   9.388 -0.2691 -0.2528 -0.1781
  144SAPE   H8Y15841   3.025   1.850   9.406  0.9983  0.1035  0.5887
  144SAPE   C3915842   3.097   2.030   9.290 -0.0611 -0.4597  0.2441
  144SAPE   H9X15843   3.201   1.992   9.301  0.9064  1.8160 -0.4485
  144SAPE   H9Y15844   3.102   2.138   9.318  1.3964 -0.8935  1.8688
  144SAPE  C31015845   3.046   2.017   9.152 -0.5867 -0.8153  0.0732
  144SAPE  H10X15846   2.952   2.076   9.147  0.7733  1.6378  1.5519
  144SAPE  H10Y15847   3.036   1.913   9.113  0.7991  0.1275 -3.0579
  144SAPE  C31115848   3.148   2.083   9.057 -0.3167 -0.3623  0.7148
  144SAPE  H11X15849   3.247   2.034   9.068  2.7052  3.5899 -4.5641
  144SAPE  H11Y15850   3.157   2.187   9.095  0.1136 -0.8808  2.1003
  144SAPE  C31215851   3.112   2.077   8.904 -0.0900 -0.8557  0.0692
  144SAPE  H12X15852   3.023   2.139   8.882  0.8372  1.0585  1.4045
  144SAPE  H12Y15853   3.104   1.967   8.887  2.3637 -1.1630  0.4173
  144SAPE  C31315854   3.219   2.127   8.806  0.0524  0.8897 -0.5379
  144SAPE  H13X15855   3.306   2.060   8.826  1.1633  2.1430 -1.0354
  144SAPE  H13Y15856   3.249   2.231   8.826 -0.2802  0.7140  0.9830
  144SAPE  C31415857   3.179   2.135   8.656  0.1404  0.2766 -0.2303
  144SAPE  H14X15858   3.259   2.192   8.604  0.3080 -0.7633 -1.1482
  144SAPE  H14Y15859   3.090   2.201   8.647 -0.0284  0.3146  1.4670
  144SAPE  C31515860   3.156   2.001   8.580 -0.3695 -0.7813 -0.3247
  144SAPE  H15X15861   3.071   1.950   8.631 -0.5361 -1.2519 -1.0687
  144SAPE  H15Y15862   3.252   1.946   8.592 -0.2987 -0.8850 -1.3477
  144SAPE  C31615863   3.141   2.013   8.429 -0.9380  0.5747 -0.1886
  144SAPE  H16X15864   3.148   1.908   8.391  1.7479  0.5084  0.2856
  144SAPE  H16Y15865   3.236   2.060   8.395 -1.5715  3.4037  1.6508
  144SAPE  C31715866   3.014   2.092   8.385  0.4446  0.4746 -0.6502
  144SAPE  H17X15867   2.984   2.178   8.448 -0.3597 -0.7081  0.6339
  144SAPE  H17Y15868   2.928   2.022   8.383  0.8950 -0.1675  1.0654
  144SAPE  C31815869   3.046   2.146   8.240  0.7530  0.3248  0.2216
  144SAPE  H18X15870   2.958   2.182   8.182  0.6362 -1.4226 -0.7817
  144SAPE  H18Y15871   3.093   2.072   8.171  3.3247  0.7629  1.4074
  144SAPE  H18Z15872   3.118   2.227   8.262 -0.7700  1.8128 -0.0563
  145SAPE     N15873   6.026   2.722  11.407  0.5647  0.7719 -0.1783
  145SAPE   HN115874   6.079   2.753  11.490  1.2577  1.3119 -0.8040
  145SAPE   HN215875   5.964   2.641  11.430  2.5104 -0.7367 -0.0114
  145SAPE   HN315876   6.096   2.681  11.342 -0.6958 -1.4045 -0.2772
  145SAPE   C1215877   5.970   2.817  11.314 -0.4827 -0.0001  0.1495
  145SAPE  H12A15878   5.880   2.871  11.352  0.3838  0.0417  2.3262
  145SAPE  H12B15879   5.927   2.770  11.224  1.0611  1.4731 -1.4287
  145SAPE   C1115880   6.085   2.912  11.268  0.2174 -0.3197 -0.5831
  145SAPE  H11A15881   6.135   2.950  11.360 -0.2423  0.9103 -0.8321
  145SAPE  H11B15882   6.030   2.992  11.214  0.3844 -0.1208 -0.4557
  145SAPE     P15883   6.277   2.937  11.101 -0.0910  0.3276 -0.0620
  145SAPE   O1315884   6.293   3.074  11.153 -0.3226 -0.2910 -0.1967
  145SAPE   O1415885   6.396   2.854  11.072 -0.5235  0.2098  0.2108
  145SAPE   O1215886   6.174   2.850  11.187 -0.1105  0.0911 -0.1987
  145SAPE   O1115887   6.185   2.954  10.965  0.6740 -0.2009  0.0246
  145SAPE    C115888   6.135   2.831  10.909 -0.6822 -0.2028 -0.1174
  145SAPE    HA15889   6.134   2.739  10.971  0.5581 -1.8333 -2.3414
  145SAPE    HB15890   6.028   2.828  10.880 -0.3233 -0.8004 -1.4637
  145SAPE    C215891   6.203   2.795  10.779  0.4116 -0.2608 -0.3575
  145SAPE    HS15892   6.313   2.809  10.783  0.2464  0.8533  0.6745
  145SAPE   O2115893   6.151   2.888  10.682  0.5322  0.4156 -0.0980
  145SAPE   C2115894   6.208   3.006  10.671 -0.2105 -0.4474  0.1181
  145SAPE   O2215895   6.310   3.031  10.730 -0.3289 -0.2146 -0.1061
  145SAPE   C2215896   6.124   3.103  10.578 -0.3234 -0.0419  0.1644
  145SAPE   H2R15897   6.045   3.047  10.523 -0.6563 -0.9559  1.5213
  145SAPE   H2S15898   6.074   3.178  10.642  1.8203  1.4263  0.1891
  145SAPE    C315899   6.176   2.652  10.726  0.9439 -0.2545 -0.4881
  145SAPE    HX15900   6.068   2.651  10.700  1.0446  3.2189 -1.5612
  145SAPE    HY15901   6.200   2.582  10.809 -1.3511  0.1018  0.5355
  145SAPE   O3115902   6.253   2.625  10.610 -0.0341  0.0699  0.4112
  145SAPE   C3115903   6.381   2.599  10.633 -0.2656  0.9344 -0.7030
  145SAPE   O3215904   6.425   2.574  10.745 -0.6987 -0.2626  0.1707
  145SAPE   C3215905   6.448   2.621  10.505  1.3090  0.0450  0.0918
  145SAPE   H2X15906   6.559   2.616  10.513  1.2959  0.8564  0.8160
  145SAPE   H2Y15907   6.424   2.727  10.485 -0.9571 -0.5924 -0.9064
  145SAPE   C2315908   6.217   3.184  10.483 -0.1529  0.5140 -0.2915
  145SAPE   H3R15909   6.288   3.245  10.542 -1.4428  0.4737  1.3966
  145SAPE   H3S15910   6.147   3.252  10.429 -0.4016 -0.2201 -0.9105
  145SAPE   C2415911   6.287   3.093  10.378 -0.2667  0.9414  0.4359
  145SAPE   H4R15912   6.344   3.013  10.429  0.2605 -0.5886 -2.3643
  145SAPE   H4S15913   6.365   3.154  10.327  0.0412  1.3153  1.3344
  145SAPE   C2515914   6.193   3.019  10.280  0.3958 -0.8189  0.2778
  145SAPE   H5R15915   6.084   3.023  10.297  0.4745 -3.5837  2.3058
  145SAPE   C2615916   6.241   2.942  10.177 -0.3468  0.7334  0.3707
  145SAPE   H6R15917   6.163   2.894  10.115 -1.7010  0.3924  2.2252
  145SAPE   C2715918   6.384   2.914  10.137  0.1385  0.0376 -0.3431
  145SAPE   H7R15919   6.386   2.828  10.067 -0.4788 -1.4241  1.3449
  145SAPE   H7S15920   6.426   2.881  10.234 -1.4018 -0.5525  0.1565
  145SAPE   C2815921   6.473   3.024  10.085  0.4471 -1.0564 -0.0532
  145SAPE   H8R15922   6.523   3.094  10.153 -1.5022  0.7650 -0.3943
  145SAPE   C2915923   6.494   3.036   9.951  1.1230 -0.5171 -0.1423
  145SAPE   H9R15924   6.564   3.115   9.920  0.8227  0.0005  0.4660
  145SAPE  C21015925   6.446   2.940   9.845  0.0138 -0.5088  0.3066
  145SAPE  H10R15926   6.339   2.962   9.829  0.2777  1.1444  0.6563
  145SAPE  H10S15927   6.449   2.834   9.880  0.3578 -0.8371 -0.6747
  145SAPE  C21115928   6.529   2.938   9.719 -0.2281 -0.0082 -0.2576
  145SAPE  H11R15929   6.611   3.012   9.718 -0.6183  0.4289 -1.7411
  145SAPE  C21215930   6.509   2.873   9.601  0.9421 -0.5502  0.2505
  145SAPE  H12R15931   6.579   2.900   9.521 -2.0931  0.8425 -2.1313
  145SAPE  C21315932   6.392   2.784   9.557 -0.1248  0.1225 -0.5296
  145SAPE  H13R15933   6.348   2.825   9.464 -2.9102 -3.0403 -0.8234
  145SAPE  H13S15934   6.312   2.788   9.634 -1.5021  2.5167 -1.9744
  145SAPE  C21415935   6.433   2.642   9.529  0.0017  0.4963 -0.3606
  145SAPE  H14R15936   6.427   2.573   9.615 -0.6230  0.6609 -0.2647
  145SAPE  C21515937   6.456   2.588   9.413  0.5620 -0.5031  0.5342
  145SAPE  H15R15938   6.475   2.480   9.413 -0.9935 -0.7949  1.1626
  145SAPE  C21615939   6.458   2.649   9.279  0.0208  0.0822  0.7734
  145SAPE  H16R15940   6.448   2.759   9.281 -1.5877  0.0168 -0.8526
  145SAPE  H16S15941   6.363   2.618   9.229 -0.6260  3.0804 -0.0221
  145SAPE  C21715942   6.584   2.607   9.208  0.4484  0.1789 -0.3679
  145SAPE  H17R15943   6.614   2.500   9.214 -0.7949 -0.4297 -3.2228
  145SAPE  H17S15944   6.674   2.648   9.259  0.8050 -1.2208  0.1826
  145SAPE  C21815945   6.586   2.655   9.060  0.1293  0.4383  0.0100
  145SAPE  H18R15946   6.494   2.627   9.003  1.3562  0.6082 -2.1480
  145SAPE  H18S15947   6.667   2.591   9.019 -1.0270 -0.4182 -1.0236
  145SAPE  C21915948   6.622   2.802   9.038  0.2782  0.6803  0.0852
  145SAPE  H19R15949   6.715   2.827   9.095 -0.2304  0.0964  1.2084
  145SAPE  H19S15950   6.537   2.861   9.079 -1.8268 -1.8589 -0.3271
  145SAPE  C22015951   6.631   2.844   8.891 -0.0297 -0.1494  0.5163
  145SAPE  H20R15952   6.536   2.849   8.834  0.9432 -0.8132 -1.2533
  145SAPE  H20S15953   6.690   2.770   8.833 -1.7202 -1.2874  0.1958
  145SAPE  H20T15954   6.664   2.950   8.884  2.3689 -0.7758  1.2889
  145SAPE   C3315955   6.389   2.536  10.391 -0.2781 -0.2518 -0.6226
  145SAPE   H3X15956   6.285   2.567  10.367  0.7892  2.5673 -2.0319
  145SAPE   H3Y15957   6.385   2.427  10.411  0.4343 -0.8890 -3.5260
  145SAPE   C3415958   6.465   2.544  10.265 -0.0535  0.0795  0.2866
  145SAPE   H4X15959   6.571   2.514  10.278 -0.0695  0.4197  1.3285
  145SAPE   H4Y15960   6.467   2.647  10.223 -0.9107  0.5298  1.3156
  145SAPE   C3515961   6.411   2.448  10.160  0.2154  0.8478  0.4648
  145SAPE   H5X15962   6.307   2.468  10.125  0.3021  2.8225  1.1848
  145SAPE   H5Y15963   6.409   2.344  10.198 -1.7213  0.6857  0.0115
  145SAPE   C3615964   6.487   2.447  10.025  0.0243 -0.0484 -0.2464
  145SAPE   H6X15965   6.595   2.457  10.047  0.0335  3.3100 -1.3295
  145SAPE   H6Y15966   6.448   2.531   9.963 -0.7935 -0.6039 -0.5130
  145SAPE   C3715967   6.456   2.319   9.952  0.0473 -0.5568 -0.5466
  145SAPE   H7X15968   6.354   2.277   9.961 -0.1797  0.4631  2.8141
  145SAPE   H7Y15969   6.521   2.242   9.999 -1.0034 -1.7035 -0.9253
  145SAPE   C3815970   6.494   2.341   9.804 -0.0969  0.6755 -0.2422
  145SAPE   H8X15971   6.603   2.359   9.795 -0.1726  0.9056 -0.6844
  145SAPE   H8Y15972   6.446   2.434   9.769 -1.3831  0.2942  0.4277
  145SAPE   C3915973   6.463   2.217   9.720 -0.1125  0.1952 -0.5727
  145SAPE   H9X15974   6.355   2.195   9.736 -0.3491  1.2449 -0.7176
  145SAPE   H9Y15975   6.519   2.126   9.753 -0.3141  0.4674  0.5540
  145SAPE  C31015976   6.476   2.230   9.561  0.3959 -0.4516 -0.3941
  145SAPE  H10X15977   6.549   2.312   9.543  0.4156 -0.5782 -0.8968
  145SAPE  H10Y15978   6.378   2.258   9.517 -0.6649 -0.3109  1.9079
  145SAPE  C31115979   6.521   2.097   9.505  0.1507  0.4631 -0.5589
  145SAPE  H11X15980   6.443   2.022   9.527 -0.1097  0.2969 -1.9687
  145SAPE  H11Y15981   6.605   2.054   9.564 -2.3275 -1.6235  1.6610
  145SAPE  C31215982   6.561   2.105   9.356  0.5321 -0.2298  0.5786
  145SAPE  H12X15983   6.611   2.009   9.330  0.1670 -1.0245  2.5518
  145SAPE  H12Y15984   6.634   2.188   9.349  0.3547  0.2341  3.1913
  145SAPE  C31315985   6.441   2.130   9.269 -0.6741 -0.0639 -0.6781
  145SAPE  H13X15986   6.397   2.227   9.301  0.2560  0.5556 -1.1949
  145SAPE  H13Y15987   6.366   2.054   9.300 -0.7832  0.8796  1.5645
  145SAPE  C31415988   6.459   2.114   9.126  0.1172 -0.4581  0.8630
  145SAPE  H14X15989   6.375   2.138   9.058  0.1837  0.5821  1.1364
  145SAPE  H14Y15990   6.485   2.006   9.123  1.0524 -0.3833  3.3112
  145SAPE  C31515991   6.569   2.200   9.068 -1.1397  0.2159  0.3957
  145SAPE  H15X15992   6.669   2.161   9.098 -1.1784  0.0732  0.3409
  145SAPE  H15Y15993   6.553   2.303   9.107 -1.7610  1.6672 -3.2881
  145SAPE  C31615994   6.568   2.223   8.919  0.1062 -0.3629  0.0845
  145SAPE  H16X15995   6.461   2.248   8.898 -0.0270 -1.3499 -0.4908
  145SAPE  H16Y15996   6.599   2.138   8.855 -0.4087  0.3777 -1.1914
  145SAPE  C31715997   6.665   2.329   8.861 -0.2338 -0.2253 -0.6600
  145SAPE  H17X15998   6.767   2.287   8.871 -0.5477 -0.5006  2.2032
  145SAPE  H17Y15999   6.671   2.429   8.909  0.0656  0.4927 -2.1480
  145SAPE  C31816000   6.631   2.366   8.718 -0.3387  0.0714  0.1600
  145SAPE  H18X16001   6.693   2.450   8.684  1.6046 -1.4603 -0.2516
  145SAPE  H18Y16002   6.525   2.395   8.704 -0.9274 -0.6673  2.5189
  145SAPE  H18Z16003   6.660   2.279   8.656  0.6327  0.4928  0.0125
  146SAPE     N16004   3.953   5.217  11.057  0.5208  0.1609  0.8588
  146SAPE   HN116005   3.862   5.172  11.077  0.1783 -0.1715 -1.2551
  146SAPE   HN216006   4.005   5.139  11.012  0.0247 -1.0196  2.2411
  146SAPE   HN316007   3.994   5.259  11.143  0.7749  0.0525  0.7930
  146SAPE   C1216008   3.928   5.323  10.957 -0.2839  0.3816 -0.2904
  146SAPE  H12A16009   4.012   5.394  10.937  0.2020 -0.3259 -0.8366
  146SAPE  H12B16010   3.830   5.370  10.978 -0.4325  0.6086 -1.4400
  146SAPE   C1116011   3.896   5.258  10.819  0.6383  0.7572  0.1972
  146SAPE  H11A16012   3.989   5.216  10.774 -0.5223 -1.6847 -0.1033
  146SAPE  H11B16013   3.858   5.334  10.748 -1.9061 -0.2704  0.3672
  146SAPE     P16014   3.835   5.012  10.803  0.3843  0.4303  0.1181
  146SAPE   O1316015   3.939   4.987  10.910 -0.1973  0.4587  0.3186
  146SAPE   O1416016   3.710   4.927  10.804 -0.7875 -0.5953  0.1150
  146SAPE   O1216017   3.788   5.164  10.820  0.0087 -0.0229 -0.1628
  146SAPE   O1116018   3.907   4.999  10.663 -0.0500  0.2176  0.2038
  146SAPE    C116019   3.809   4.961  10.557 -1.0810  0.0960 -0.5244
  146SAPE    HA16020   3.705   4.997  10.570 -0.0283  2.8765  0.9462
  146SAPE    HB16021   3.838   5.024  10.470  1.2405  0.3222  0.3374
  146SAPE    C216022   3.805   4.811  10.515 -0.2355 -0.0080  0.0202
  146SAPE    HS16023   3.777   4.753  10.606 -1.8638  0.2305 -0.2861
  146SAPE   O2116024   3.937   4.781  10.458 -0.5584  0.3197  0.7589
  146SAPE   C2116025   3.976   4.656  10.477 -0.3188  0.3574 -0.1421
  146SAPE   O2216026   3.905   4.569  10.529  0.0491  0.0519 -0.3713
  146SAPE   C2216027   4.118   4.622  10.426 -1.0142  0.3038 -0.1335
  146SAPE   H2R16028   4.185   4.696  10.477  0.7625 -0.7959 -0.7831
  146SAPE   H2S16029   4.153   4.526  10.470 -0.4626  0.9626  0.9210
  146SAPE    C316030   3.695   4.793  10.415  0.1179  0.4828 -0.2583
  146SAPE    HX16031   3.719   4.858  10.328 -0.9031  3.4080  1.4927
  146SAPE    HY16032   3.597   4.821  10.460 -0.5586 -0.7104 -0.9305
  146SAPE   O3116033   3.678   4.653  10.376  0.4627 -0.1997 -0.3248
  146SAPE   C3116034   3.612   4.635  10.263 -0.6410 -0.6800  0.5760
  146SAPE   O3216035   3.571   4.720  10.188  0.7172  0.1952  0.0786
  146SAPE   C3216036   3.603   4.485  10.245  0.1955  0.0853 -0.1090
  146SAPE   H2X16037   3.565   4.437  10.338 -2.2851  1.3845 -0.3801
  146SAPE   H2Y16038   3.711   4.457  10.237 -0.4436 -2.1110 -2.6375
  146SAPE   C2316039   4.134   4.644  10.274  0.2460  0.3674  0.5115
  146SAPE   H3R16040   4.059   4.595  10.208  0.0516  1.9083 -0.4632
  146SAPE   H3S16041   4.217   4.573  10.252 -1.2914 -1.1097 -0.8754
  146SAPE   C2416042   4.176   4.782  10.230 -0.0975  0.5044  0.3063
  146SAPE   H4R16043   4.110   4.865  10.261 -1.3738 -0.9185  1.5331
  146SAPE   H4S16044   4.165   4.784  10.119  1.8286 -2.4978 -0.0694
  146SAPE   C2516045   4.312   4.825  10.288 -0.6438  0.3632 -0.4988
  146SAPE   H5R16046   4.306   4.853  10.394 -0.2148  0.5629 -0.5256
  146SAPE   C2616047   4.430   4.825  10.222 -0.2823 -0.2263  0.2710
  146SAPE   H6R16048   4.524   4.848  10.275 -0.6524 -1.1204  1.3603
  146SAPE   C2716049   4.440   4.772  10.078 -0.1752  0.0358 -0.1876
  146SAPE   H7R16050   4.408   4.860  10.017  2.1812  1.5733  0.6418
  146SAPE   H7S16051   4.367   4.689  10.067  0.2636 -0.2453 -1.0418
  146SAPE   C2816052   4.572   4.723  10.027  0.3299 -0.7747 -0.1390
  146SAPE   H8R16053   4.644   4.683  10.100  0.0297 -3.8987 -1.4090
  146SAPE   C2916054   4.602   4.715   9.898 -0.0047  0.6752  0.0786
  146SAPE   H9R16055   4.692   4.654   9.879 -0.2297  0.2461  0.3738
  146SAPE  C21016056   4.533   4.754   9.777  0.3679  0.1466  0.3376
  146SAPE  H10R16057   4.426   4.779   9.795  0.2244  0.1470 -0.4413
  146SAPE  H10S16058   4.517   4.660   9.719 -0.0155 -1.4729  2.9329
  146SAPE  C21116059   4.609   4.847   9.696 -0.1707  0.6424  0.4794
  146SAPE  H11R16060   4.605   4.953   9.727 -0.3060  0.5304  0.8505
  146SAPE  C21216061   4.677   4.820   9.581 -0.6456 -0.1448  0.3972
  146SAPE  H12R16062   4.717   4.901   9.519 -1.6734  0.5812  0.6587
  146SAPE  C21316063   4.691   4.689   9.509  0.2338 -0.3004 -0.2877
  146SAPE  H13R16064   4.658   4.605   9.574 -1.1419  1.6993  1.7628
  146SAPE  H13S16065   4.791   4.680   9.463  1.2944 -0.0388  1.8693
  146SAPE  C21416066   4.587   4.698   9.411 -0.1639  0.0728  1.1659
  146SAPE  H14R16067   4.490   4.714   9.460  1.7014  1.0579  4.9439
  146SAPE  C21516068   4.590   4.676   9.275 -0.5176  0.4234 -0.2165
  146SAPE  H15R16069   4.492   4.669   9.226 -0.9897  1.7597  0.4789
  146SAPE  C21616070   4.713   4.632   9.193  0.3359 -0.0578  0.6168
  146SAPE  H16R16071   4.803   4.686   9.229  1.1849 -2.3874  2.2778
  146SAPE  H16S16072   4.713   4.653   9.084 -0.0319 -0.2822  0.5738
  146SAPE  C21716073   4.751   4.483   9.218  0.0856  0.0368  0.3159
  146SAPE  H17R16074   4.753   4.448   9.324 -0.1160 -1.8986 -0.2670
  146SAPE  H17S16075   4.839   4.454   9.157 -0.2105 -0.2908  0.0410
  146SAPE  C21816076   4.642   4.384   9.174 -0.3021  0.0571  0.1839
  146SAPE  H18R16077   4.612   4.408   9.069 -0.9850  1.9671  0.7775
  146SAPE  H18S16078   4.555   4.401   9.240 -0.0046  2.3863  0.0565
  146SAPE  C21916079   4.688   4.236   9.164 -0.6923 -0.0464 -0.7603
  146SAPE  H19R16080   4.721   4.203   9.265 -1.3263  1.6501  0.0453
  146SAPE  H19S16081   4.765   4.207   9.089 -3.1885 -1.9278 -2.7683
  146SAPE  C22016082   4.564   4.154   9.131  0.9021 -0.7152  0.4895
  146SAPE  H20R16083   4.486   4.185   9.204 -0.2225 -1.6732 -0.2695
  146SAPE  H20S16084   4.580   4.045   9.145  0.4637 -1.0386 -1.3321
  146SAPE  H20T16085   4.525   4.174   9.029 -1.2813  0.0361  1.4104
  146SAPE   C3316086   3.522   4.441  10.114 -0.3905 -0.1919  0.3946
  146SAPE   H3X16087   3.554   4.341  10.077 -0.8700 -0.1933 -0.0362
  146SAPE   H3Y16088   3.567   4.504  10.033  0.4240 -2.1606 -0.7425
  146SAPE   C3416089   3.373   4.436  10.131 -0.2421 -0.2079 -1.0244
  146SAPE   H4X16090   3.341   4.530  10.182  0.5989 -0.9357  0.9590
  146SAPE   H4Y16091   3.349   4.355  10.204 -1.6095  1.8562  0.9409
  146SAPE   C3516092   3.291   4.394  10.005  0.7419  0.2823 -0.5407
  146SAPE   H5X16093   3.323   4.462   9.923 -1.2551  1.7332 -0.2107
  146SAPE   H5Y16094   3.182   4.387  10.026  0.9402 -2.3910  0.0446
  146SAPE   C3616095   3.313   4.255   9.959 -0.1465 -0.4694 -0.3468
  146SAPE   H6X16096   3.323   4.184  10.044  3.4762 -0.8701 -0.9723
  146SAPE   H6Y16097   3.419   4.244   9.928  0.0139  0.8645 -0.3322
  146SAPE   C3716098   3.220   4.195   9.852  0.0676 -0.0240  0.4461
  146SAPE   H7X16099   3.210   4.256   9.759 -0.4870 -0.5125  0.1769
  146SAPE   H7Y16100   3.118   4.172   9.890  0.3100 -2.4864 -0.2387
  146SAPE   C3816101   3.273   4.058   9.802 -0.1060  0.3507 -0.1813
  146SAPE   H8X16102   3.300   3.999   9.892  0.2473  0.0376 -0.4864
  146SAPE   H8Y16103   3.368   4.083   9.750 -0.4113  1.8082 -0.0644
  146SAPE   C3916104   3.174   3.981   9.722 -0.2086 -0.2575  0.2993
  146SAPE   H9X16105   3.074   4.029   9.731  0.7652  1.8282  0.4089
  146SAPE   H9Y16106   3.162   3.886   9.778  2.2492 -0.4536  0.5706
  146SAPE  C31016107   3.223   3.972   9.580  0.6935  0.2910  0.2529
  146SAPE  H10X16108   3.275   3.873   9.576 -0.2683 -0.1830 -1.1949
  146SAPE  H10Y16109   3.290   4.057   9.557  0.9732 -0.0854 -0.3304
  146SAPE  C31116110   3.102   3.959   9.482  0.3308 -0.4106 -0.8828
  146SAPE  H11X16111   3.040   4.051   9.493 -0.3060 -0.9544  0.2306
  146SAPE  H11Y16112   3.050   3.866   9.516  2.5350 -1.4496 -0.1900
  146SAPE  C31216113   3.143   3.950   9.337  0.4054  0.5535  0.2294
  146SAPE  H12X16114   3.219   3.870   9.319 -1.6555 -1.8454  1.5397
  146SAPE  H12Y16115   3.174   4.048   9.296  1.1755 -0.5667 -2.0701
  146SAPE  C31316116   3.026   3.907   9.241  0.6972 -0.0483  0.5459
  146SAPE  H13X16117   2.939   3.976   9.246  0.4883 -0.3734  1.7881
  146SAPE  H13Y16118   2.988   3.806   9.270 -3.3634  0.3533 -2.4247
  146SAPE  C31416119   3.077   3.889   9.094  0.0352 -0.5592  0.2292
  146SAPE  H14X16120   3.159   3.814   9.091  1.3237  0.8279 -1.7285
  146SAPE  H14Y16121   3.116   3.984   9.051 -0.6520 -0.1081  0.5731
  146SAPE  C31516122   2.976   3.835   8.991  0.3111  0.0779  0.2996
  146SAPE  H15X16123   2.879   3.888   9.004 -0.5322 -1.4241  0.3545
  146SAPE  H15Y16124   2.955   3.732   9.029 -0.5941  0.3854  0.6583
  146SAPE  C31616125   3.021   3.819   8.848  0.2903  0.6384 -0.2051
  146SAPE  H16X16126   2.947   3.761   8.789  2.3445 -1.7720 -0.5482
  146SAPE  H16Y16127   3.107   3.749   8.846 -1.5776 -1.7945  0.0741
  146SAPE  C31716128   3.056   3.953   8.788 -0.0279 -0.8749  0.1939
  146SAPE  H17X16129   3.167   3.954   8.793  0.0258 -2.1289 -0.3614
  146SAPE  H17Y16130   3.008   4.033   8.847 -0.1897 -0.9491  0.1614
  146SAPE  C31816131   3.005   3.958   8.649  0.6251  0.9205  0.1481
  146SAPE  H18X16132   3.080   3.898   8.593  1.3815  1.4969  0.5131
  146SAPE  H18Y16133   3.016   4.061   8.608 -2.1949  0.7693 -1.2224
  146SAPE  H18Z16134   2.902   3.919   8.634  0.3978  1.8204 -0.7954
  147SAPE     N16135   2.094   2.798   5.969 -0.3728 -0.4999 -0.8486
  147SAPE   HN116136   1.992   2.795   5.986 -0.3302  2.1157  0.3311
  147SAPE   HN216137   2.120   2.864   5.893  3.0404  1.6728  1.8697
  147SAPE   HN316138   2.128   2.704   5.941  0.3422 -0.4739 -0.1163
  147SAPE   C1216139   2.164   2.851   6.087 -0.4779 -0.5889 -0.3087
  147SAPE  H12A16140   2.133   2.786   6.172 -1.1927 -2.4650 -1.9301
  147SAPE  H12B16141   2.136   2.955   6.114 -0.2821 -0.5093 -0.4037
  147SAPE   C1116142   2.316   2.845   6.057  0.3840 -0.4064 -0.1160
  147SAPE  H11A16143   2.355   2.742   6.048  0.7874 -0.2912  0.3010
  147SAPE  H11B16144   2.375   2.877   6.145  0.1681 -1.3553  0.3904
  147SAPE     P16145   2.393   3.072   5.937  0.3419 -0.0320 -0.2296
  147SAPE   O1316146   2.519   3.071   5.863 -0.2939  0.1532 -0.4691
  147SAPE   O1416147   2.290   3.156   5.872 -0.1793  0.0507 -0.0931
  147SAPE   O1216148   2.341   2.931   5.943 -0.7238  0.1564  0.1019
  147SAPE   O1116149   2.410   3.113   6.093 -0.3491  0.3012 -0.0072
  147SAPE    C116150   2.534   3.159   6.139 -0.3432  0.1439  0.3708
  147SAPE    HA16151   2.612   3.080   6.136 -0.1282  0.3654 -0.0245
  147SAPE    HB16152   2.577   3.242   6.078  1.4118 -0.4228  0.7717
  147SAPE    C216153   2.522   3.211   6.290 -0.8974 -0.3804  0.2996
  147SAPE    HS16154   2.621   3.184   6.331 -0.9551 -0.5206  0.3449
  147SAPE   O2116155   2.409   3.153   6.359 -0.4251 -0.1232  0.3726
  147SAPE   C2116156   2.430   3.030   6.390 -0.3110  0.1607 -0.1130
  147SAPE   O2216157   2.523   2.962   6.348  0.0423  0.4492  0.7210
  147SAPE   C2216158   2.335   2.977   6.491  0.3257 -0.1918  0.0907
  147SAPE   H2R16159   2.322   3.052   6.572  0.0388 -0.5943  0.4184
  147SAPE   H2S16160   2.233   2.977   6.447  1.6046 -0.2495 -3.1552
  147SAPE    C316161   2.505   3.366   6.312  0.1528 -0.6055 -0.0012
  147SAPE    HX16162   2.419   3.411   6.258  0.7892  0.4460 -0.1615
  147SAPE    HY16163   2.599   3.401   6.264 -0.5244 -0.9732 -1.6413
  147SAPE   O3116164   2.510   3.407   6.449 -0.6650  0.7267 -0.1665
  147SAPE   C3116165   2.387   3.414   6.508 -0.1762 -0.0264 -0.2494
  147SAPE   O3216166   2.284   3.401   6.448 -0.1751  0.5101  0.0069
  147SAPE   C3216167   2.411   3.464   6.652  0.4251 -0.1169 -0.1618
  147SAPE   H2X16168   2.519   3.490   6.656  0.1662  1.5254 -2.2220
  147SAPE   H2Y16169   2.398   3.369   6.709  1.5483 -2.5650 -3.6279
  147SAPE   C2316170   2.359   2.839   6.554 -1.1084  0.0288 -0.5614
  147SAPE   H3R16171   2.405   2.771   6.479  1.5338 -1.4673  2.1812
  147SAPE   H3S16172   2.257   2.803   6.579 -1.7692  1.4139 -1.1493
  147SAPE   C2416173   2.459   2.825   6.675 -1.0102  0.1404 -0.4239
  147SAPE   H4R16174   2.434   2.726   6.717  1.7340 -0.2344  0.5509
  147SAPE   H4S16175   2.440   2.906   6.748 -0.3405 -0.7427  0.7629
  147SAPE   C2516176   2.611   2.815   6.648 -0.2965  0.6099  0.0422
  147SAPE   H5R16177   2.646   2.841   6.547 -2.3426  1.5960 -0.4545
  147SAPE   C2616178   2.702   2.798   6.747  0.4346 -0.5082  0.1877
  147SAPE   H6R16179   2.805   2.801   6.708  0.5387 -1.9243  0.3115
  147SAPE   C2716180   2.689   2.782   6.896 -0.5168  0.3389  0.5995
  147SAPE   H7R16181   2.717   2.678   6.921 -0.1600  0.5632  1.1542
  147SAPE   H7S16182   2.585   2.782   6.936 -0.8394 -1.0000 -0.1667
  147SAPE   C2816183   2.775   2.878   6.978  0.0290  1.0937 -0.0303
  147SAPE   H8R16184   2.851   2.932   6.919 -2.1204  1.8417 -2.3251
  147SAPE   C2916185   2.765   2.915   7.108  0.1341 -0.4380 -0.2358
  147SAPE   H9R16186   2.844   2.980   7.149  1.8441 -2.9237  0.6456
  147SAPE  C21016187   2.662   2.858   7.206 -0.5730  0.5296  0.3710
  147SAPE  H10R16188   2.692   2.752   7.221  3.5378  1.6394  1.1792
  147SAPE  H10S16189   2.568   2.847   7.148 -1.3170  0.4370  1.5637
  147SAPE  C21116190   2.640   2.947   7.326 -0.1298  0.3105  0.5404
  147SAPE  H11R16191   2.565   3.026   7.317 -0.1491  0.1053 -1.6253
  147SAPE  C21216192   2.713   2.945   7.442  0.9345 -0.2402  0.8948
  147SAPE  H12R16193   2.675   3.013   7.521 -0.3150 -0.5887  0.6249
  147SAPE  C21316194   2.830   2.856   7.481  0.7542 -0.7516 -0.0047
  147SAPE  H13R16195   2.875   2.826   7.385 -1.6009 -1.2470 -1.0123
  147SAPE  H13S16196   2.799   2.758   7.523 -0.2147 -1.3750 -2.0580
  147SAPE  C21416197   2.922   2.923   7.582  0.0208  0.3233  0.2456
  147SAPE  H14R16198   2.973   3.015   7.551  1.2507 -0.2640  0.4629
  147SAPE  C21516199   2.962   2.877   7.702 -0.4730 -0.0788 -0.3280
  147SAPE  H15R16200   3.030   2.934   7.767 -0.5281  0.3993 -0.6923
  147SAPE  C21616201   2.933   2.740   7.762 -0.6166  0.1992  0.0627
  147SAPE  H16R16202   3.019   2.672   7.748 -0.8842 -0.0291 -0.4656
  147SAPE  H16S16203   2.838   2.701   7.720 -1.1836 -0.3357  1.7556
  147SAPE  C21716204   2.931   2.754   7.913  0.3824  0.6476 -0.8841
  147SAPE  H17R16205   2.825   2.771   7.942  0.6236 -1.4383  1.5893
  147SAPE  H17S16206   2.998   2.833   7.952  1.2584 -0.6150  0.2820
  147SAPE  C21816207   2.978   2.623   7.981 -0.1416 -0.5460 -0.0359
  147SAPE  H18R16208   3.001   2.627   8.089  0.4477 -0.6315 -0.1590
  147SAPE  H18S16209   3.069   2.581   7.934 -0.6018 -0.4604 -1.0350
  147SAPE  C21916210   2.868   2.519   7.962 -0.4212 -0.1066 -0.6013
  147SAPE  H19R16211   2.915   2.422   7.993  0.9840  1.1279  1.4310
  147SAPE  H19S16212   2.834   2.515   7.857 -0.3784  1.7953 -0.7213
  147SAPE  C22016213   2.741   2.530   8.053  0.1054  0.1903 -0.0976
  147SAPE  H20R16214   2.655   2.491   7.994  1.1140  0.0392 -1.5235
  147SAPE  H20S16215   2.721   2.639   8.060  2.3812  0.7131 -0.9748
  147SAPE  H20T16216   2.745   2.475   8.149  2.5395 -1.5108 -1.0684
  147SAPE   C3316217   2.314   3.586   6.671  0.0600  0.7379 -0.4271
  147SAPE   H3X16218   2.207   3.558   6.667  0.1503  0.3418 -0.0481
  147SAPE   H3Y16219   2.344   3.659   6.592  1.6828  1.6605  0.9937
  147SAPE   C3416220   2.326   3.633   6.810 -0.3079 -0.9971 -1.2755
  147SAPE   H4X16221   2.433   3.662   6.815 -0.6207  0.0649 -0.2552
  147SAPE   H4Y16222   2.310   3.547   6.878  2.2731 -1.5328 -1.2287
  147SAPE   C3516223   2.251   3.762   6.845  0.0674 -0.1670  0.3241
  147SAPE   H5X16224   2.143   3.756   6.816 -0.4422  3.1295  1.1396
  147SAPE   H5Y16225   2.292   3.837   6.774  1.0592 -2.1218 -1.2368
  147SAPE   C3616226   2.249   3.815   6.985 -0.2316 -0.5056 -0.3979
  147SAPE   H6X16227   2.177   3.765   7.052  1.5827 -2.7186  0.0263
  147SAPE   H6Y16228   2.215   3.921   6.977  0.6046 -0.1828  0.1907
  147SAPE   C3716229   2.374   3.799   7.071 -0.2361  0.2921 -0.5683
  147SAPE   H7X16230   2.463   3.807   7.005  1.0004  0.3708  1.0511
  147SAPE   H7Y16231   2.371   3.693   7.103 -0.7582  0.4166 -0.1886
  147SAPE   C3816232   2.392   3.888   7.195  0.3625 -0.3834 -0.6544
  147SAPE   H8X16233   2.383   3.993   7.160 -1.3940  0.4686  2.0366
  147SAPE   H8Y16234   2.494   3.891   7.238 -0.3694 -3.0068  1.5630
  147SAPE   C3916235   2.305   3.836   7.313  0.4274  0.1918 -0.1634
  147SAPE   H9X16236   2.333   3.728   7.316 -1.0846 -0.2491 -0.7750
  147SAPE   H9Y16237   2.202   3.830   7.272 -0.1571  1.4726  1.0261
  147SAPE  C31016238   2.316   3.918   7.440  0.6893  0.4678 -0.2559
  147SAPE  H10X16239   2.262   4.014   7.435 -2.3944 -1.1310 -0.1274
  147SAPE  H10Y16240   2.425   3.934   7.451  0.7989  0.5393 -1.2799
  147SAPE  C31116241   2.272   3.850   7.564 -0.0789 -0.2150 -0.1092
  147SAPE  H11X16242   2.181   3.796   7.531 -1.5918  2.1063  0.0385
  147SAPE  H11Y16243   2.236   3.923   7.640  0.1630  0.2196 -0.4098
  147SAPE  C31216244   2.382   3.757   7.619 -0.0518 -0.3170  1.1031
  147SAPE  H12X16245   2.396   3.668   7.554 -0.6171 -0.7430  1.5503
  147SAPE  H12Y16246   2.338   3.725   7.716  3.3255 -3.9151  1.7171
  147SAPE  C31316247   2.513   3.829   7.664  0.2766 -1.1620  0.0724
  147SAPE  H13X16248   2.560   3.872   7.574 -3.0217  0.5521 -0.9834
  147SAPE  H13Y16249   2.589   3.755   7.696  1.9033 -0.1778 -1.3646
  147SAPE  C31416250   2.493   3.936   7.768 -0.3842  0.0434  0.4399
  147SAPE  H14X16251   2.414   4.012   7.746 -0.7434 -0.3816  0.2322
  147SAPE  H14Y16252   2.594   3.981   7.767  0.4558 -1.7474 -1.2048
  147SAPE  C31516253   2.468   3.869   7.908  0.0744  0.2917 -0.0900
  147SAPE  H15X16254   2.553   3.803   7.937 -0.9447 -0.9920  0.0579
  147SAPE  H15Y16255   2.381   3.801   7.904  0.2250  0.0732  0.3468
  147SAPE  C31616256   2.440   3.973   8.016 -0.2642 -0.5047  0.1846
  147SAPE  H16X16257   2.343   4.022   7.992  1.3558  2.0274 -1.6113
  147SAPE  H16Y16258   2.516   4.054   8.019 -1.2841  0.4864  0.0594
  147SAPE  C31716259   2.429   3.913   8.151  0.1895 -0.4963 -0.4986
  147SAPE  H17X16260   2.489   3.820   8.157  1.8970  0.5803 -0.0679
  147SAPE  H17Y16261   2.323   3.891   8.177  0.1754  0.5728  0.4714
  147SAPE  C31816262   2.478   4.010   8.263  0.0626 -0.4779 -0.4667
  147SAPE  H18X16263   2.578   4.047   8.233 -0.9897  3.0812 -0.0280
  147SAPE  H18Y16264   2.478   3.961   8.362 -0.3278  0.8708  0.2301
  147SAPE  H18Z16265   2.410   4.098   8.269 -0.8606 -1.1165 -1.1077
  148SAPE     N16266   0.323   5.739   6.286  0.1682 -0.1462  0.6298
  148SAPE   HN116267   0.235   5.778   6.246  0.6054  0.0744 -0.1531
  148SAPE   HN216268   0.393   5.802   6.241  0.1026 -0.3030  0.2994
  148SAPE   HN316269   0.358   5.651   6.243  0.0648 -0.7487  1.7417
  148SAPE   C1216270   0.333   5.742   6.436 -0.6037 -0.6086 -0.5417
  148SAPE  H12A16271   0.299   5.644   6.476 -0.2493 -0.1960  0.8237
  148SAPE  H12B16272   0.268   5.825   6.472 -1.3455 -1.2080 -0.4608
  148SAPE   C1116273   0.479   5.759   6.482  0.4948 -0.6279 -0.9587
  148SAPE  H11A16274   0.483   5.735   6.591 -1.6923 -0.0462 -0.7049
  148SAPE  H11B16275   0.505   5.866   6.479  0.4894 -0.6333 -1.2066
  148SAPE     P16276   0.685   5.596   6.477 -0.1860  0.2983  0.1584
  148SAPE   O1316277   0.629   5.460   6.490 -0.1497 -0.2287  0.0568
  148SAPE   O1416278   0.815   5.614   6.406 -1.0616  0.0819 -0.1631
  148SAPE   O1216279   0.579   5.689   6.403 -0.4281 -0.1895  0.3952
  148SAPE   O1116280   0.709   5.667   6.615  0.4751 -0.7692 -0.2034
  148SAPE    C116281   0.770   5.798   6.633 -0.1558  0.0347 -0.1742
  148SAPE    HA16282   0.762   5.862   6.542  1.1710  0.5406  0.0402
  148SAPE    HB16283   0.708   5.852   6.708  0.6768 -1.4072  1.6201
  148SAPE    C216284   0.918   5.771   6.670  0.2785 -0.7664  0.2367
  148SAPE    HS16285   0.976   5.720   6.590  0.7754 -1.2641  0.9001
  148SAPE   O2116286   0.934   5.688   6.786  0.3039 -0.0129 -0.1052
  148SAPE   C2116287   1.053   5.645   6.809 -0.2314 -0.2246 -0.2119
  148SAPE   O2216288   1.153   5.660   6.740  0.6729 -0.4453 -0.1647
  148SAPE   C2216289   1.060   5.557   6.937  0.3157  0.0443  0.3634
  148SAPE   H2R16290   0.965   5.512   6.974 -1.3483  1.3111 -2.0931
  148SAPE   H2S16291   1.130   5.473   6.916 -0.9874 -0.9663 -0.0512
  148SAPE    C316292   0.997   5.904   6.683  0.2212 -0.8449  0.1901
  148SAPE    HX16293   0.985   5.967   6.592  1.1360  1.3636  1.5113
  148SAPE    HY16294   1.107   5.891   6.687  0.3516 -1.1449 -2.5640
  148SAPE   O3116295   0.947   5.988   6.794 -0.2685  0.0382  0.1282
  148SAPE   C3116296   1.017   6.106   6.812 -0.1913  0.7592  0.2606
  148SAPE   O3216297   1.124   6.131   6.762 -0.1764 -0.1522 -0.0870
  148SAPE   C3216298   0.953   6.183   6.920  0.1852  0.0195 -0.7829
  148SAPE   H2X16299   0.844   6.187   6.897 -0.4884 -1.4627  1.7157
  148SAPE   H2Y16300   0.990   6.287   6.914  0.8388 -0.1255  0.3462
  148SAPE   C2316301   1.122   5.626   7.066  0.0726  0.1057  0.0973
  148SAPE   H3R16302   1.225   5.653   7.035  0.8306 -1.7560  0.8829
  148SAPE   H3S16303   1.131   5.552   7.148  1.0590 -1.5913 -1.4634
  148SAPE   C2416304   1.036   5.744   7.119 -0.1380  0.3961 -0.3574
  148SAPE   H4R16305   1.020   5.821   7.040 -1.1730  0.9194  0.3370
  148SAPE   H4S16306   1.096   5.785   7.203 -0.2449 -1.4112  0.6561
  148SAPE   C2516307   0.896   5.708   7.164 -0.1335 -0.4550 -0.4673
  148SAPE   H5R16308   0.820   5.688   7.087 -0.2462 -2.4049  0.0969
  148SAPE   C2616309   0.844   5.713   7.287  0.0530 -0.4172  0.7463
  148SAPE   H6R16310   0.738   5.687   7.304  0.1261 -1.3142 -0.0729
  148SAPE   C2716311   0.913   5.762   7.409  0.7998 -0.1813  0.3893
  148SAPE   H7R16312   0.842   5.812   7.478  0.7009  2.4495 -1.4546
  148SAPE   H7S16313   0.977   5.846   7.373  0.0243  0.3105  0.1336
  148SAPE   C2816314   1.005   5.663   7.475  0.0513 -0.5248  0.3418
  148SAPE   H8R16315   1.063   5.600   7.406  0.2563 -1.6387  1.4982
  148SAPE   C2916316   1.017   5.648   7.609  0.1873  0.2683  0.4799
  148SAPE   H9R16317   1.090   5.576   7.646  0.0331 -0.5190 -0.7006
  148SAPE  C21016318   0.943   5.729   7.715  0.0450 -0.3579 -0.4342
  148SAPE  H10R16319   0.947   5.837   7.693  3.4127 -0.0840  0.9650
  148SAPE  H10S16320   1.012   5.722   7.801  0.0079  1.0005 -0.2799
  148SAPE  C21116321   0.806   5.682   7.749 -0.7663 -0.1791 -0.4567
  148SAPE  H11R16322   0.733   5.675   7.667  0.5677 -0.1126 -1.6871
  148SAPE  C21216323   0.775   5.641   7.871  0.0655  0.3137 -0.5080
  148SAPE  H12R16324   0.674   5.599   7.878  0.3098 -0.1076  0.7399
  148SAPE  C21316325   0.859   5.632   7.995  0.1828 -0.0970  0.3380
  148SAPE  H13R16326   0.950   5.695   7.992  0.3908 -0.3125  1.5627
  148SAPE  H13S16327   0.910   5.534   7.996  0.1654 -0.1111  1.1824
  148SAPE  C21416328   0.770   5.665   8.113  0.3080  0.2132 -0.4950
  148SAPE  H14R16329   0.762   5.774   8.127  1.5359  0.3383 -0.7256
  148SAPE  C21516330   0.708   5.571   8.192  0.3928 -0.3579  0.2550
  148SAPE  H15R16331   0.653   5.612   8.278  2.6094 -0.1196  1.6409
  148SAPE  C21616332   0.713   5.428   8.172 -1.0218 -0.0732 -0.4098
  148SAPE  H16R16333   0.758   5.392   8.077 -0.0484 -1.7262  0.6315
  148SAPE  H16S16334   0.610   5.389   8.177 -1.9357  2.3230  1.5616
  148SAPE  C21716335   0.809   5.366   8.280 -0.1948 -0.2135 -0.5391
  148SAPE  H17R16336   0.797   5.256   8.275 -1.5806 -0.3362  2.9585
  148SAPE  H17S16337   0.791   5.390   8.387 -1.7757 -0.4115 -0.7383
  148SAPE  C21816338   0.958   5.381   8.241 -0.9546  0.4090 -0.1340
  148SAPE  H18R16339   0.995   5.479   8.279 -1.3126  0.2198  0.7310
  148SAPE  H18S16340   0.978   5.378   8.132 -1.1708  0.5752 -0.1788
  148SAPE  C21916341   1.043   5.263   8.292  0.5580  0.9181  0.3926
  148SAPE  H19R16342   1.143   5.275   8.246  1.2051 -2.8634  0.5024
  148SAPE  H19S16343   1.001   5.165   8.261 -1.9064  0.6820  3.8711
  148SAPE  C22016344   1.050   5.263   8.444 -0.5714 -0.3358 -0.3817
  148SAPE  H20R16345   1.058   5.365   8.488  2.4861 -0.8627  0.5313
  148SAPE  H20S16346   1.141   5.202   8.465  0.4414  1.1865 -0.1836
  148SAPE  H20T16347   0.961   5.212   8.486 -2.1162  3.6973  1.7972
  148SAPE   C3316348   0.966   6.111   7.064  0.3303  0.3555 -0.2209
  148SAPE   H3X16349   1.074   6.112   7.088  0.0148  0.0624  1.2766
  148SAPE   H3Y16350   0.931   6.006   7.070  0.7596  0.1413 -1.2648
  148SAPE   C3416351   0.905   6.188   7.181 -0.3543  0.1027 -0.6920
  148SAPE   H4X16352   0.795   6.198   7.168 -0.5504 -0.6131  0.2881
  148SAPE   H4Y16353   0.950   6.289   7.176  1.0728 -0.5454 -1.9394
  148SAPE   C3516354   0.948   6.115   7.311  0.8952 -0.6834 -0.1687
  148SAPE   H5X16355   1.055   6.088   7.298  0.7072 -0.9371 -1.3032
  148SAPE   H5Y16356   0.879   6.029   7.326  0.9441 -0.4193  1.9341
  148SAPE   C3616357   0.928   6.189   7.443 -0.2577 -0.5195 -0.3530
  148SAPE   H6X16358   0.825   6.231   7.449  0.4412  1.0210  1.5145
  148SAPE   H6Y16359   0.997   6.275   7.439  0.3725 -1.0375 -3.3671
  148SAPE   C3716360   0.955   6.096   7.561  0.3881 -0.6028  0.8137
  148SAPE   H7X16361   1.052   6.045   7.544 -0.4684 -1.3720 -2.6174
  148SAPE   H7Y16362   0.872   6.023   7.573 -0.4179  0.4055  1.5669
  148SAPE   C3816363   0.945   6.176   7.693 -0.0741  0.1410 -0.7630
  148SAPE   H8X16364   0.865   6.252   7.706  0.7789  1.0984 -0.9341
  148SAPE   H8Y16365   1.034   6.242   7.680  0.2063 -0.3449 -1.3795
  148SAPE   C3916366   0.961   6.091   7.817 -0.4543 -0.2795 -0.8868
  148SAPE   H9X16367   1.059   6.039   7.811 -0.9349 -2.0265  3.3400
  148SAPE   H9Y16368   0.873   6.030   7.843 -0.5131  0.7792  1.6507
  148SAPE  C31016369   0.963   6.181   7.944 -0.2042  0.0647  0.0687
  148SAPE  H10X16370   0.873   6.247   7.941  0.0440  0.4555  0.8391
  148SAPE  H10Y16371   1.047   6.253   7.957  0.0964 -0.4225  0.8908
  148SAPE  C31116372   0.962   6.094   8.074  0.5238 -0.5554 -0.4029
  148SAPE  H11X16373   1.061   6.045   8.061  0.9901  0.5082 -0.9283
  148SAPE  H11Y16374   0.884   6.015   8.079  2.2979 -2.2925  2.5146
  148SAPE  C31216375   0.941   6.180   8.200  0.7140  0.0711 -0.0417
  148SAPE  H12X16376   0.841   6.228   8.198  0.5928 -0.1114  0.9661
  148SAPE  H12Y16377   1.019   6.259   8.204  2.0263 -1.2164  1.7233
  148SAPE  C31316378   0.945   6.095   8.323 -0.1215 -0.5680 -0.0788
  148SAPE  H13X16379   1.035   6.030   8.332 -0.4505 -1.0044  0.1077
  148SAPE  H13Y16380   0.864   6.019   8.321 -1.1562  0.3706  2.1546
  148SAPE  C31416381   0.922   6.173   8.455  0.3636 -0.0355 -0.1907
  148SAPE  H14X16382   0.837   6.245   8.446 -0.0019 -0.5525 -1.0313
  148SAPE  H14Y16383   1.012   6.237   8.470  0.6103 -0.7284  1.4613
  148SAPE  C31516384   0.896   6.094   8.588 -0.1898  0.1709 -0.4072
  148SAPE  H15X16385   0.973   6.015   8.605 -0.3994  0.1308  0.3505
  148SAPE  H15Y16386   0.797   6.043   8.585  0.4549 -1.1214 -2.3711
  148SAPE  C31616387   0.914   6.179   8.712  0.3386  0.0967  0.3447
  148SAPE  H16X16388   0.847   6.268   8.708 -0.0678 -0.2580 -2.4509
  148SAPE  H16Y16389   1.016   6.219   8.694  0.4028 -0.2562 -0.0836
  148SAPE  C31716390   0.911   6.112   8.848 -0.8657 -0.1327 -0.4034
  148SAPE  H17X16391   0.804   6.095   8.874 -0.8766  2.1001  1.2071
  148SAPE  H17Y16392   0.961   6.186   8.913 -1.3233  0.2734 -0.5092
  148SAPE  C31816393   1.001   5.983   8.861  0.1995 -0.3341 -0.5636
  148SAPE  H18X16394   1.009   5.964   8.970  0.9360 -0.5382 -0.6495
  148SAPE  H18Y16395   1.102   6.000   8.819  0.7620  2.3088  1.5550
  148SAPE  H18Z16396   0.951   5.895   8.815 -2.6774  0.5282  0.6954
  149SAPE     N16397   5.874   6.178   6.577 -0.0268  0.5851 -0.2361
  149SAPE   HN116398   5.794   6.214   6.634  0.7056  1.3119  0.3603
  149SAPE   HN216399   5.849   6.087   6.533 -0.3192  1.5722 -2.2143
  149SAPE   HN316400   5.951   6.153   6.642 -0.1176 -3.7773 -1.4774
  149SAPE   C1216401   5.916   6.262   6.464 -0.5862 -0.3697  0.0135
  149SAPE  H12A16402   5.915   6.365   6.503 -0.4480 -0.3674  0.0117
  149SAPE  H12B16403   5.835   6.245   6.389 -0.5608  0.9467 -0.3326
  149SAPE   C1116404   6.058   6.245   6.421  0.0349 -0.1802  0.9028
  149SAPE  H11A16405   6.066   6.301   6.325  2.7272  0.7897  1.5869
  149SAPE  H11B16406   6.078   6.138   6.399  1.3716  0.1230  0.5434
  149SAPE     P16407   6.297   6.314   6.474 -0.0566 -0.1115 -0.0634
  149SAPE   O1316408   6.367   6.190   6.435  0.2707 -0.4454 -0.0737
  149SAPE   O1416409   6.307   6.424   6.378  0.4076  0.0988  0.9339
  149SAPE   O1216410   6.150   6.295   6.519 -0.3216  0.5021 -0.2651
  149SAPE   O1116411   6.374   6.368   6.600  0.4733 -0.2501 -0.1896
  149SAPE    C116412   6.330   6.335   6.731  0.2691  0.5418  0.3305
  149SAPE    HA16413   6.276   6.238   6.738  0.2031  0.5225 -0.3824
  149SAPE    HB16414   6.417   6.310   6.796 -0.7321  0.5190  1.7330
  149SAPE    C216415   6.252   6.441   6.804 -0.0888  0.1928 -0.0335
  149SAPE    HS16416   6.178   6.478   6.729 -1.8292  0.6227  1.7950
  149SAPE   O2116417   6.339   6.536   6.857 -1.0089 -0.3634  0.2212
  149SAPE   C2116418   6.342   6.652   6.791 -1.0130  0.3060 -0.5210
  149SAPE   O2216419   6.275   6.678   6.694 -0.4609  0.3880  0.3944
  149SAPE   C2216420   6.420   6.750   6.873 -0.5727 -0.6732 -0.8264
  149SAPE   H2R16421   6.373   6.760   6.973 -0.2237  0.0399 -0.7259
  149SAPE   H2S16422   6.518   6.702   6.894 -0.2756 -0.0940 -0.8723
  149SAPE    C316423   6.166   6.380   6.916 -0.2780 -0.0585  0.5799
  149SAPE    HX16424   6.221   6.300   6.970  0.9671  0.3380 -0.0596
  149SAPE    HY16425   6.073   6.333   6.878 -1.8873  1.9640  1.7853
  149SAPE   O3116426   6.137   6.477   7.018  0.1084 -0.3949  0.0163
  149SAPE   C3116427   6.055   6.584   6.990 -0.7943 -0.2808 -0.1732
  149SAPE   O3216428   5.998   6.594   6.886 -0.0753 -0.0214 -0.0086
  149SAPE   C3216429   6.032   6.677   7.113  0.6164  0.4917 -0.3857
  149SAPE   H2X16430   6.013   6.606   7.196  0.1982  0.2301 -0.6995
  149SAPE   H2Y16431   5.946   6.746   7.099 -0.3043 -0.8044 -1.4516
  149SAPE   C2316432   6.451   6.898   6.819 -0.4982 -0.5330 -0.1222
  149SAPE   H3R16433   6.357   6.957   6.826  1.5372  2.8480  0.9312
  149SAPE   H3S16434   6.479   6.905   6.712  1.3924 -1.6731  0.2496
  149SAPE   C2416435   6.555   6.962   6.905  0.0951  0.0245  0.3936
  149SAPE   H4R16436   6.656   6.924   6.881 -0.2988 -0.8479  0.0620
  149SAPE   H4S16437   6.537   6.937   7.012  0.1065  3.7579  1.3875
  149SAPE   C2516438   6.561   7.109   6.884  0.5656 -1.2912  0.0069
  149SAPE   H5R16439   6.556   7.151   6.782  3.4134  2.3781  1.1612
  149SAPE   C2616440   6.564   7.209   6.973  0.8906 -0.0924 -0.3988
  149SAPE   H6R16441   6.571   7.312   6.935  1.7167 -0.0680 -0.2050
  149SAPE   C2716442   6.567   7.202   7.126  0.0433 -0.3498 -0.1263
  149SAPE   H7R16443   6.534   7.104   7.165 -0.7074  0.4528  1.3510
  149SAPE   H7S16444   6.496   7.278   7.166 -0.7587  0.4602 -2.8803
  149SAPE   C2816445   6.703   7.244   7.192 -0.1903  0.0643 -0.4585
  149SAPE   H8R16446   6.754   7.320   7.131 -1.6652  0.6285 -1.0475
  149SAPE   C2916447   6.750   7.205   7.312  0.4935  0.8041  1.1031
  149SAPE   H9R16448   6.849   7.242   7.343 -0.4028  3.0964  1.3683
  149SAPE  C21016449   6.684   7.108   7.409 -0.0630 -0.1468 -0.1712
  149SAPE  H10R16450   6.737   7.013   7.428  0.1688  0.4724  2.7948
  149SAPE  H10S16451   6.578   7.085   7.383  0.2292 -1.1468 -0.5083
  149SAPE  C21116452   6.693   7.169   7.545  0.1267  0.8165  0.6482
  149SAPE  H11R16453   6.753   7.261   7.558  3.6197 -1.4084  1.6513
  149SAPE  C21216454   6.623   7.133   7.658 -0.3590  0.2188  0.2110
  149SAPE  H12R16455   6.645   7.193   7.748  0.7363  0.4219 -0.1666
  149SAPE  C21316456   6.528   7.013   7.680 -0.0476  0.0917  0.8740
  149SAPE  H13R16457   6.469   7.010   7.586 -0.8304  1.4586  1.2823
  149SAPE  H13S16458   6.456   7.030   7.763 -1.7715 -3.2978  0.2048
  149SAPE  C21416459   6.602   6.885   7.713 -0.8006  0.3199  1.1426
  149SAPE  H14R16460   6.705   6.886   7.673 -1.6208  2.4479 -1.1909
  149SAPE  C21516461   6.551   6.782   7.785  0.3625 -0.1127  0.0220
  149SAPE  H15R16462   6.609   6.689   7.790 -1.2860 -1.3506 -2.0953
  149SAPE  C21616463   6.409   6.772   7.847 -0.7255  0.5982  0.6601
  149SAPE  H16R16464   6.362   6.673   7.828 -2.1488  1.3110  0.2567
  149SAPE  H16S16465   6.337   6.841   7.797  1.0994  1.8575 -0.3389
  149SAPE  C21716466   6.430   6.787   8.004 -0.0476  0.1801  0.1145
  149SAPE  H17R16467   6.503   6.704   8.017 -1.8507 -1.2485  1.8916
  149SAPE  H17S16468   6.331   6.752   8.040 -0.4175 -1.3659 -2.2156
  149SAPE  C21816469   6.475   6.921   8.060  0.2222  0.0773  0.1645
  149SAPE  H18R16470   6.533   6.980   7.987  1.4365 -0.0661  0.9784
  149SAPE  H18S16471   6.544   6.905   8.146 -1.9298 -1.2682  1.7637
  149SAPE  C21916472   6.358   6.995   8.119  0.6311 -0.0311 -0.7478
  149SAPE  H19R16473   6.302   6.930   8.188 -1.7241  1.1029 -1.5056
  149SAPE  H19S16474   6.284   7.025   8.042  0.3514  0.5263 -0.2680
  149SAPE  C22016475   6.417   7.117   8.195  0.7387  0.9328  0.8598
  149SAPE  H20R16476   6.447   7.197   8.125  0.0654  1.5163  1.2340
  149SAPE  H20S16477   6.506   7.083   8.254 -0.2236 -1.0523  1.2796
  149SAPE  H20T16478   6.340   7.149   8.269  0.5167  2.0395  0.1537
  149SAPE   C3316479   6.152   6.772   7.150  0.1394 -0.5493  0.5384
  149SAPE   H3X16480   6.160   6.844   7.066 -0.4032  0.5864  1.4332
  149SAPE   H3Y16481   6.246   6.712   7.158  0.2494 -0.1262  3.3747
  149SAPE   C3416482   6.118   6.855   7.268 -0.4247  0.2591 -0.2104
  149SAPE   H4X16483   6.027   6.918   7.264  1.0917  2.5603 -0.7286
  149SAPE   H4Y16484   6.201   6.929   7.279 -1.8331  1.5369  2.9355
  149SAPE   C3516485   6.110   6.770   7.397  0.7974  0.4035  0.5010
  149SAPE   H5X16486   6.207   6.720   7.419  0.8197  0.5674  0.7754
  149SAPE   H5Y16487   6.037   6.686   7.393 -0.4911  1.3909  1.9994
  149SAPE   C3616488   6.068   6.864   7.510 -0.3673 -0.0425  0.6791
  149SAPE   H6X16489   5.967   6.908   7.502 -0.5224  0.0992  2.8466
  149SAPE   H6Y16490   6.146   6.943   7.503 -0.9297  0.6822  2.1330
  149SAPE   C3716491   6.076   6.806   7.653 -0.3570  0.7759  0.2093
  149SAPE   H7X16492   6.182   6.796   7.685 -0.9009  0.7709  2.1442
  149SAPE   H7Y16493   6.024   6.709   7.665 -0.7835  1.1504  1.5191
  149SAPE   C3816494   6.024   6.896   7.762  0.1261 -0.1067 -0.6385
  149SAPE   H8X16495   5.917   6.916   7.743 -0.1477 -0.4765  0.4406
  149SAPE   H8Y16496   6.075   6.995   7.762  0.0787 -0.0160  2.0872
  149SAPE   C3916497   6.039   6.823   7.897  0.2590  0.6334 -0.2835
  149SAPE   H9X16498   6.142   6.853   7.924  0.6252 -0.9476  0.2291
  149SAPE   H9Y16499   6.056   6.713   7.888 -0.7248  0.5080 -0.7878
  149SAPE  C31016500   5.941   6.874   8.004  0.8305 -0.5156  0.2804
  149SAPE  H10X16501   5.840   6.838   7.975  0.2472  1.3267 -0.0631
  149SAPE  H10Y16502   5.957   6.983   7.993 -1.4812 -0.3453 -3.5043
  149SAPE  C31116503   5.968   6.825   8.146 -0.3128 -0.3473  0.0001
  149SAPE  H11X16504   6.078   6.817   8.163 -0.4844 -3.7568  0.1416
  149SAPE  H11Y16505   5.920   6.727   8.164 -0.1262 -0.3354  0.5926
  149SAPE  C31216506   5.921   6.932   8.255  0.0039 -0.0004 -0.1133
  149SAPE  H12X16507   5.811   6.946   8.257 -0.0358 -0.3445  1.2112
  149SAPE  H12Y16508   5.972   7.027   8.228  0.2889 -0.4736 -1.3143
  149SAPE  C31316509   5.974   6.887   8.397 -0.0305  0.0141 -0.0367
  149SAPE  H13X16510   5.979   6.977   8.461  0.5547  0.3204 -0.5111
  149SAPE  H13Y16511   6.077   6.850   8.381 -0.2431 -0.0451 -1.3696
  149SAPE  C31416512   5.889   6.781   8.469 -0.5839  0.1790 -0.2913
  149SAPE  H14X16513   5.843   6.704   8.403  0.0183  1.3657 -2.1715
  149SAPE  H14Y16514   5.798   6.826   8.514  0.2684 -0.2274  1.9852
  149SAPE  C31516515   5.971   6.727   8.584  0.1105  0.5581  0.5809
  149SAPE  H15X16516   6.040   6.802   8.629  0.3040  0.6673  0.1168
  149SAPE  H15Y16517   6.026   6.637   8.550  0.7680  0.5751  1.5530
  149SAPE  C31616518   5.889   6.688   8.712  0.1858 -0.1947  0.1025
  149SAPE  H16X16519   5.827   6.778   8.733 -0.8584 -0.6712 -0.8149
  149SAPE  H16Y16520   5.965   6.672   8.791  0.5942 -1.9117 -0.5941
  149SAPE  C31716521   5.816   6.546   8.709  0.9723 -0.2030  0.0883
  149SAPE  H17X16522   5.777   6.510   8.807  0.5935 -0.6516 -0.2235
  149SAPE  H17Y16523   5.879   6.467   8.662 -2.8702 -1.9306 -2.6641
  149SAPE  C31816524   5.694   6.554   8.629  0.5173 -0.5643 -0.4737
  149SAPE  H18X16525   5.655   6.451   8.612 -0.3184  0.3009 -5.3151
  149SAPE  H18Y16526   5.718   6.570   8.522 -0.9998 -1.2030 -0.9363
  149SAPE  H18Z16527   5.613   6.623   8.661  1.4013 -0.2690  1.2616
  150SAPE     N16528   1.714   2.235   6.357 -0.4475 -0.2555 -0.2734
  150SAPE   HN116529   1.786   2.247   6.431  0.6331 -0.4584 -1.2416
  150SAPE   HN216530   1.718   2.138   6.319  1.5265 -0.4630  0.3552
  150SAPE   HN316531   1.753   2.303   6.289  0.7880  1.7428  2.2887
  150SAPE   C1216532   1.573   2.275   6.385 -0.2717  0.3675  0.0616
  150SAPE  H12A16533   1.533   2.188   6.442 -1.5385  1.2847  0.6010
  150SAPE  H12B16534   1.527   2.287   6.284 -0.4323  1.9102  0.2935
  150SAPE   C1116535   1.569   2.397   6.483 -0.7393 -0.0337  0.3203
  150SAPE  H11A16536   1.658   2.399   6.548 -1.2797 -1.5694  1.1563
  150SAPE  H11B16537   1.480   2.390   6.549 -0.7787 -0.7750  0.1970
  150SAPE     P16538   1.697   2.595   6.345  0.0353 -0.0744  0.1702
  150SAPE   O1316539   1.807   2.491   6.348  0.0431 -0.8125  0.0511
  150SAPE   O1416540   1.669   2.669   6.217  0.0250 -0.4504  0.1604
  150SAPE   O1216541   1.567   2.522   6.403  0.3168  0.3259  0.3629
  150SAPE   O1116542   1.734   2.699   6.457 -0.1742  0.0596 -0.1364
  150SAPE    C116543   1.659   2.810   6.501  0.3652  0.4484  0.1215
  150SAPE    HA16544   1.686   2.900   6.442  2.1905  0.2755  0.6127
  150SAPE    HB16545   1.550   2.791   6.491  0.7018 -3.4256  1.6710
  150SAPE    C216546   1.668   2.833   6.657  0.2923 -0.9719 -0.4749
  150SAPE    HS16547   1.591   2.913   6.666  0.9204 -0.3607 -0.4360
  150SAPE   O2116548   1.802   2.877   6.694  0.3177 -0.2026 -0.2737
  150SAPE   C2116549   1.827   3.000   6.659 -0.2458  0.4965  0.7036
  150SAPE   O2216550   1.744   3.078   6.613  0.4377 -0.7931 -0.6102
  150SAPE   C2216551   1.968   3.045   6.709  0.9379 -0.3207  0.3090
  150SAPE   H2R16552   2.046   3.019   6.634  1.8429  1.4966  0.5633
  150SAPE   H2S16553   1.952   3.155   6.700 -3.4811 -0.7372  0.7856
  150SAPE    C316554   1.631   2.704   6.740 -0.2553  0.4075  0.7243
  150SAPE    HX16555   1.692   2.619   6.703  0.3595  1.5705 -1.0899
  150SAPE    HY16556   1.526   2.684   6.711  0.2873 -2.1395  0.3330
  150SAPE   O3116557   1.657   2.724   6.883  0.0057  0.3516 -0.4739
  150SAPE   C3116558   1.579   2.813   6.942  1.2525 -0.0049 -0.1450
  150SAPE   O3216559   1.484   2.865   6.890  0.2947  0.1640 -0.2980
  150SAPE   C3216560   1.633   2.837   7.085 -0.2444 -0.6181  0.3166
  150SAPE   H2X16561   1.563   2.905   7.137 -0.7263  0.7426 -1.9680
  150SAPE   H2Y16562   1.728   2.894   7.077 -0.1101 -0.6747  1.3674
  150SAPE   C2316563   1.986   3.007   6.854 -0.2157  0.6229  0.6620
  150SAPE   H3R16564   2.027   2.905   6.867 -3.0172 -0.9357 -1.6778
  150SAPE   H3S16565   1.884   3.024   6.894 -1.1602  2.1004 -2.1180
  150SAPE   C2416566   2.073   3.098   6.935  0.0132 -0.1650 -0.4393
  150SAPE   H4R16567   2.044   3.073   7.039  1.1219  2.3922  0.5380
  150SAPE   H4S16568   2.047   3.204   6.915  1.6325  0.5277  0.9918
  150SAPE   C2516569   2.221   3.079   6.920 -0.0653  0.4578  0.3708
  150SAPE   H5R16570   2.248   3.091   6.814 -1.7020 -2.2484 -0.4565
  150SAPE   C2616571   2.309   3.049   7.018 -0.3101  0.1313 -0.2657
  150SAPE   H6R16572   2.412   3.045   6.980 -0.3502  2.2248 -0.7333
  150SAPE   C2716573   2.283   3.019   7.167 -0.2376 -0.1210  0.1442
  150SAPE   H7R16574   2.354   2.941   7.200  1.1603  0.2137 -1.8720
  150SAPE   H7S16575   2.183   2.978   7.193  0.7604 -2.1919  0.9233
  150SAPE   C2816576   2.319   3.142   7.254  0.0443 -0.4134  0.2063
  150SAPE   H8R16577   2.352   3.234   7.203 -0.9324 -1.0224 -1.5823
  150SAPE   C2916578   2.301   3.151   7.385  0.4256  0.1668 -0.4142
  150SAPE   H9R16579   2.331   3.245   7.435 -1.6130 -0.2115  1.6965
  150SAPE  C21016580   2.244   3.042   7.479  0.5873  0.1408 -0.4863
  150SAPE  H10R16581   2.283   2.945   7.441  0.3499  0.1206 -0.6743
  150SAPE  H10S16582   2.134   3.033   7.475  0.5502 -0.7766  1.3768
  150SAPE  C21116583   2.285   3.069   7.625  0.4147 -0.4192 -0.0689
  150SAPE  H11R16584   2.392   3.090   7.634  0.0835  1.4456 -0.0663
  150SAPE  C21216585   2.212   3.076   7.740  0.3681 -0.2960 -0.2031
  150SAPE  H12R16586   2.269   3.105   7.830 -0.8536  0.8037  0.2432
  150SAPE  C21316587   2.064   3.057   7.764  0.1697 -0.5411 -0.4664
  150SAPE  H13R16588   2.006   3.108   7.684 -0.6454 -0.5841  0.0899
  150SAPE  H13S16589   2.033   3.118   7.852 -0.6193  1.5736 -2.1098
  150SAPE  C21416590   2.019   2.912   7.768 -0.4824 -0.2606  0.1892
  150SAPE  H14R16591   2.010   2.858   7.672 -2.5995  2.6823 -1.4053
  150SAPE  C21516592   2.002   2.836   7.881 -0.5371 -0.0488 -0.3809
  150SAPE  H15R16593   1.950   2.739   7.881  0.5694 -0.7329  2.5124
  150SAPE  C21616594   2.027   2.876   8.022  0.3363 -0.0769  0.2103
  150SAPE  H16R16595   2.117   2.940   8.032  1.2452 -1.0562 -1.2990
  150SAPE  H16S16596   2.061   2.781   8.067  1.2900  1.0729  2.0443
  150SAPE  C21716597   1.911   2.933   8.100 -0.0932 -0.1827 -0.9323
  150SAPE  H17R16598   1.830   2.856   8.094  0.0287 -1.0689  4.1426
  150SAPE  H17S16599   1.876   3.020   8.040  1.2403  1.5159  0.6659
  150SAPE  C21816600   1.929   2.975   8.246 -0.6319  0.1284  0.3244
  150SAPE  H18R16601   2.033   3.010   8.256 -0.1366 -0.4260 -2.2681
  150SAPE  H18S16602   1.913   2.878   8.299  1.4363 -0.1285  0.5619
  150SAPE  C21916603   1.837   3.080   8.302 -0.2172  0.5092  0.4335
  150SAPE  H19R16604   1.846   3.096   8.412 -0.4427  0.9162  0.3963
  150SAPE  H19S16605   1.731   3.048   8.298 -0.1807  0.0910  2.1425
  150SAPE  C22016606   1.837   3.223   8.248  0.1370  0.4715 -0.4684
  150SAPE  H20R16607   1.745   3.236   8.188  0.1326 -0.4140 -0.6558
  150SAPE  H20S16608   1.919   3.241   8.175 -0.2147  0.4904 -0.8632
  150SAPE  H20T16609   1.827   3.295   8.332  3.1572 -0.5315  0.9060
  150SAPE   C3316610   1.660   2.708   7.161  0.2877 -0.3264 -0.2014
  150SAPE   H3X16611   1.763   2.673   7.138  0.8868 -0.6344  2.6393
  150SAPE   H3Y16612   1.590   2.624   7.141 -0.8661 -0.0326  2.2247
  150SAPE   C3416613   1.630   2.737   7.305  0.6505 -0.4818  0.0131
  150SAPE   H4X16614   1.647   2.637   7.349  1.6540 -0.7587 -0.9399
  150SAPE   H4Y16615   1.523   2.756   7.326  0.4463 -1.9659  0.4422
  150SAPE   C3516616   1.716   2.842   7.375  0.1211  0.4610  0.7354
  150SAPE   H5X16617   1.703   2.933   7.313  0.7218  1.8963  2.6174
  150SAPE   H5Y16618   1.822   2.813   7.381 -0.4848 -1.8263  1.1585
  150SAPE   C3616619   1.659   2.861   7.515  0.2107  0.3619 -0.3542
  150SAPE   H6X16620   1.553   2.895   7.514 -0.2357 -0.9476 -2.0229
  150SAPE   H6Y16621   1.724   2.938   7.560  2.5433 -0.6183 -1.8704
  150SAPE   C3716622   1.685   2.735   7.598  0.0443 -0.2067 -0.4457
  150SAPE   H7X16623   1.794   2.711   7.596  0.2872  0.3056  2.2238
  150SAPE   H7Y16624   1.624   2.652   7.557 -1.0797 -1.0123  2.6015
  150SAPE   C3816625   1.636   2.743   7.743 -0.6663 -0.6586 -0.6920
  150SAPE   H8X16626   1.534   2.787   7.752 -0.2259  0.4943 -1.1906
  150SAPE   H8Y16627   1.705   2.810   7.798 -0.8032 -0.5092 -0.7026
  150SAPE   C3916628   1.638   2.599   7.817 -0.3603 -0.1076  0.2705
  150SAPE   H9X16629   1.744   2.569   7.805 -0.6747 -1.6425  1.1414
  150SAPE   H9Y16630   1.581   2.524   7.759 -0.5675 -2.6153  3.4765
  150SAPE  C31016631   1.621   2.608   7.966 -0.3487  0.8156 -0.3228
  150SAPE  H10X16632   1.532   2.665   8.000 -1.1717  0.0985 -1.2282
  150SAPE  H10Y16633   1.713   2.657   8.006  0.3862 -0.8416  0.1091
  150SAPE  C31116634   1.605   2.469   8.032  0.5410  0.5334  0.4239
  150SAPE  H11X16635   1.671   2.391   7.987 -1.3602 -0.9738  0.1213
  150SAPE  H11Y16636   1.499   2.435   8.027  1.0380 -0.8805 -2.0942
  150SAPE  C31216637   1.655   2.454   8.176  0.7231 -0.6985  0.3137
  150SAPE  H12X16638   1.761   2.488   8.180  0.2109  1.0582 -0.0867
  150SAPE  H12Y16639   1.646   2.346   8.200  1.5451 -0.7937  0.2098
  150SAPE  C31316640   1.569   2.551   8.261 -0.3057  1.0421  0.2911
  150SAPE  H13X16641   1.465   2.514   8.247  0.4258 -1.4341  0.9564
  150SAPE  H13Y16642   1.564   2.653   8.217  0.1963  1.6472  1.5661
  150SAPE  C31416643   1.605   2.558   8.410 -0.1766 -0.2557 -0.2415
  150SAPE  H14X16644   1.709   2.523   8.423 -0.1721 -0.2797 -0.3379
  150SAPE  H14Y16645   1.534   2.485   8.452 -2.3461  2.5917  1.4227
  150SAPE  C31516646   1.592   2.705   8.466 -0.1583  0.3969  0.4670
  150SAPE  H15X16647   1.647   2.778   8.403  1.8791  0.3157  2.0582
  150SAPE  H15Y16648   1.633   2.705   8.569  0.9724  0.4188  0.0220
  150SAPE  C31616649   1.459   2.764   8.461 -0.0685  0.0798 -0.1028
  150SAPE  H16X16650   1.402   2.710   8.539 -1.3127 -0.8239 -1.5765
  150SAPE  H16Y16651   1.406   2.748   8.365  0.5302  2.1437 -0.8338
  150SAPE  C31716652   1.462   2.916   8.508 -0.1203 -0.2501 -0.1872
  150SAPE  H17X16653   1.527   2.978   8.443  0.3877 -0.5755  0.0042
  150SAPE  H17Y16654   1.520   2.913   8.603 -1.1979  0.8863  0.5451
  150SAPE  C31816655   1.318   2.976   8.525 -0.9099  0.6424 -0.2004
  150SAPE  H18X16656   1.269   2.937   8.617 -2.6186  3.4141  0.1791
  150SAPE  H18Y16657   1.253   2.958   8.437 -1.0115 -1.4618  0.2483
  150SAPE  H18Z16658   1.321   3.084   8.550 -1.3932  1.2132 -2.4508
  151SAPE     N16659   0.035   3.046   6.058 -0.8445  0.4940  0.6031
  151SAPE   HN116660   0.033   2.943   6.073  2.6692 -0.1101 -1.9021
  151SAPE   HN216661  -0.022   3.086   6.136  1.8897  2.0438  1.9769
  151SAPE   HN316662  -0.009   3.054   5.965 -0.6128 -1.7223  0.2537
  151SAPE   C1216663   0.188   3.076   6.056  0.2304  0.1238 -0.1374
  151SAPE  H12A16664   0.192   3.185   6.032 -0.1104 -0.2938 -2.2957
  151SAPE  H12B16665   0.224   3.017   5.970 -1.0888  3.0498 -2.9198
  151SAPE   C1116666   0.251   3.055   6.197 -0.4070 -0.2788  0.2699
  151SAPE  H11A16667   0.356   3.087   6.208 -0.2693 -0.6790  0.1317
  151SAPE  H11B16668   0.262   2.945   6.207  1.1602 -0.3092 -1.3020
  151SAPE     P16669   0.198   3.242   6.371  0.0549  0.2897  0.0636
  151SAPE   O1316670   0.304   3.327   6.308 -0.2484  0.8545  0.0120
  151SAPE   O1416671   0.067   3.317   6.392  0.7277  0.5272  0.3439
  151SAPE   O1216672   0.159   3.110   6.297  0.2045  0.1658 -0.3439
  151SAPE   O1116673   0.259   3.193   6.510  0.1800  0.1027 -0.3538
  151SAPE    C116674   0.199   3.079   6.580 -0.5520 -0.2871  0.5852
  151SAPE    HA16675   0.090   3.063   6.565 -0.3762 -1.8700  0.8746
  151SAPE    HB16676   0.242   2.988   6.533  2.5219  1.9030 -1.2080
  151SAPE    C216677   0.252   3.069   6.723 -0.1207 -1.1247 -0.6199
  151SAPE    HS16678   0.233   2.968   6.765  1.2857 -1.4143 -0.6240
  151SAPE   O2116679   0.191   3.169   6.803  0.6285  0.1866 -0.4285
  151SAPE   C2116680   0.069   3.131   6.834  0.8257 -0.1330  0.4793
  151SAPE   O2216681   0.014   3.031   6.798  0.4979  0.7127  0.3008
  151SAPE   C2216682   0.006   3.229   6.939  0.7198 -0.5345 -0.0334
  151SAPE   H2R16683  -0.087   3.185   6.981  0.1023  0.4738 -0.3157
  151SAPE   H2S16684   0.079   3.247   7.021 -0.7897  2.2199  0.8154
  151SAPE    C316685   0.401   3.109   6.723  0.1776  0.6634 -0.3415
  151SAPE    HX16686   0.408   3.215   6.690 -0.0286  0.8925  0.3303
  151SAPE    HY16687   0.459   3.054   6.645 -1.3479 -0.2197 -0.9048
  151SAPE   O3116688   0.460   3.084   6.859  0.0647 -0.1254  0.4181
  151SAPE   C3116689   0.591   3.093   6.875 -0.0282  0.2087 -0.3072
  151SAPE   O3216690   0.673   3.117   6.786 -0.1129 -0.1037 -0.4987
  151SAPE   C3216691   0.625   3.069   7.022 -0.0039 -0.0738 -0.8103
  151SAPE   H2X16692   0.537   3.097   7.083  0.7410  3.6035 -1.1825
  151SAPE   H2Y16693   0.711   3.127   7.063  0.8280 -2.7658  1.5858
  151SAPE   C2316694  -0.023   3.362   6.874 -0.6876 -0.7198  0.3677
  151SAPE   H3R16695  -0.094   3.342   6.791  0.0669  1.5841 -0.9260
  151SAPE   H3S16696   0.068   3.401   6.823  0.3578 -1.8833  1.2916
  151SAPE   C2416697  -0.068   3.476   6.974  0.0044  0.0206 -0.0045
  151SAPE   H4R16698  -0.067   3.570   6.915 -1.8364 -0.8548 -1.5693
  151SAPE   H4S16699   0.007   3.493   7.053  0.1044  0.4887 -0.1992
  151SAPE   C2516700  -0.208   3.450   7.021  0.5883  0.8029  0.2902
  151SAPE   H5R16701  -0.282   3.469   6.943  0.4579  1.4014  0.5528
  151SAPE   C2616702  -0.251   3.419   7.140  0.4191 -0.5206  0.2016
  151SAPE   H6R16703  -0.358   3.395   7.150  0.5921 -0.9261  1.1249
  151SAPE   C2716704  -0.176   3.389   7.274 -0.2302  0.3136  0.4040
  151SAPE   H7R16705  -0.225   3.447   7.355  0.9559 -1.7355  2.7338
  151SAPE   H7S16706  -0.082   3.446   7.274 -1.0827  1.7787  1.2238
  151SAPE   C2816707  -0.182   3.248   7.323 -0.0112 -0.2405  0.2667
  151SAPE   H8R16708  -0.209   3.176   7.244  2.7116 -0.5068 -0.4965
  151SAPE   C2916709  -0.155   3.214   7.449  0.5002  0.4350  0.4319
  151SAPE   H9R16710  -0.171   3.112   7.487  3.4486  0.2089  1.2614
  151SAPE  C21016711  -0.099   3.300   7.559  0.7274 -0.1982 -0.1379
  151SAPE  H10R16712  -0.177   3.323   7.634  2.4409  1.1201  1.3521
  151SAPE  H10S16713  -0.068   3.398   7.515 -1.0376 -0.8760 -3.1430
  151SAPE  C21116714   0.014   3.223   7.621 -0.2848 -0.6491  0.4109
  151SAPE  H11R16715   0.086   3.182   7.548  0.5623  1.7625 -0.1870
  151SAPE  C21216716   0.040   3.207   7.754  1.2894  0.4038 -0.3555
  151SAPE  H12R16717   0.119   3.139   7.791 -1.3362 -1.6709  1.9110
  151SAPE  C21316718  -0.043   3.266   7.873  0.5808 -0.1886  0.4815
  151SAPE  H13R16719  -0.107   3.350   7.840  1.5201  0.4912  0.3379
  151SAPE  H13S16720   0.023   3.306   7.953 -0.8559  0.1898  1.5052
  151SAPE  C21416721  -0.131   3.156   7.923  0.3291  0.4724  0.3628
  151SAPE  H14R16722  -0.190   3.097   7.852  0.2558  0.7387  0.2000
  151SAPE  C21516723  -0.146   3.127   8.053  0.2366 -0.1521 -0.2640
  151SAPE  H15R16724  -0.229   3.061   8.081 -0.2083  0.0155 -1.1487
  151SAPE  C21616725  -0.080   3.204   8.170  0.4261  0.0233 -0.0001
  151SAPE  H16R16726  -0.144   3.205   8.260  0.7103  0.7058  0.1998
  151SAPE  H16S16727  -0.073   3.311   8.142 -0.0979 -0.0142 -0.2913
  151SAPE  C21716728   0.060   3.148   8.207  0.5953 -0.7600  0.3885
  151SAPE  H17R16729   0.120   3.134   8.114 -0.4576 -2.0838 -0.1184
  151SAPE  H17S16730   0.056   3.049   8.256 -1.8174 -0.0352  1.7807
  151SAPE  C21816731   0.147   3.237   8.299  0.6185 -0.6006 -0.3404
  151SAPE  H18R16732   0.158   3.342   8.263  1.0450 -0.5983 -0.2155
  151SAPE  H18S16733   0.249   3.194   8.289  1.3983  1.0452  0.0766
  151SAPE  C21916734   0.111   3.226   8.451  0.3187  0.0925  0.7126
  151SAPE  H19R16735   0.104   3.120   8.483 -2.0434  0.3354  1.2271
  151SAPE  H19S16736   0.008   3.268   8.463 -0.9039 -2.6545  0.5538
  151SAPE  C22016737   0.210   3.296   8.554 -0.6721  0.3795 -0.1540
  151SAPE  H20R16738   0.185   3.403   8.545  0.0952  0.4200 -2.2849
  151SAPE  H20S16739   0.188   3.241   8.649 -1.0505  1.2517  0.2719
  151SAPE  H20T16740   0.315   3.278   8.522 -0.9370  0.8329 -1.3119
  151SAPE   C3316741   0.671   2.927   7.060  0.6875  0.8277 -0.1650
  151SAPE   H3X16742   0.781   2.912   7.057  0.4410 -1.2348 -0.0929
  151SAPE   H3Y16743   0.628   2.857   6.986  3.0712 -0.3982 -0.4861
  151SAPE   C3416744   0.633   2.892   7.208  0.0681 -0.6356 -0.2537
  151SAPE   H4X16745   0.628   2.781   7.211  0.0801 -0.6343 -0.1942
  151SAPE   H4Y16746   0.531   2.926   7.234  0.4258  0.5935 -0.3933
  151SAPE   C3516747   0.734   2.945   7.314 -0.0390  0.8968  0.9426
  151SAPE   H5X16748   0.732   3.056   7.319 -0.3534  1.1016 -1.9235
  151SAPE   H5Y16749   0.834   2.902   7.294 -0.2102  0.5392  0.8403
  151SAPE   C3616750   0.711   2.887   7.452  0.1508 -0.0192 -0.5496
  151SAPE   H6X16751   0.761   2.956   7.524 -2.6403  1.4727  0.0908
  151SAPE   H6Y16752   0.745   2.783   7.468 -1.8887 -0.6086  0.2231
  151SAPE   C3716753   0.563   2.863   7.505  0.5632 -0.5834 -0.4907
  151SAPE   H7X16754   0.503   2.806   7.431 -0.2146  1.9506 -1.9483
  151SAPE   H7Y16755   0.505   2.958   7.510 -1.7495 -1.9641  0.1093
  151SAPE   C3816756   0.552   2.798   7.642 -1.2017  0.0861 -0.2805
  151SAPE   H8X16757   0.624   2.837   7.717  0.6083 -2.3032 -0.6399
  151SAPE   H8Y16758   0.576   2.690   7.626  0.4297  0.1739  1.2566
  151SAPE   C3916759   0.413   2.810   7.696  1.0101  0.8275  0.3857
  151SAPE   H9X16760   0.347   2.734   7.648 -0.4418  2.7865 -0.8283
  151SAPE   H9Y16761   0.365   2.909   7.683  0.3281  0.3541 -0.8014
  151SAPE  C31016762   0.417   2.775   7.842 -0.5488  0.5641 -0.0658
  151SAPE  H10X16763   0.495   2.825   7.904 -1.1658  0.6102  0.6859
  151SAPE  H10Y16764   0.456   2.671   7.844  1.6739  1.3522  1.0903
  151SAPE  C31116765   0.286   2.788   7.917 -0.5627  0.2436 -0.3390
  151SAPE  H11X16766   0.195   2.765   7.859  0.1127 -0.8432 -1.0088
  151SAPE  H11Y16767   0.271   2.893   7.951  3.0310  0.8353 -0.1848
  151SAPE  C31216768   0.288   2.703   8.049 -0.4911  0.5160 -0.3522
  151SAPE  H12X16769   0.190   2.712   8.101 -1.8410 -0.5167 -2.5355
  151SAPE  H12Y16770   0.367   2.740   8.117 -0.1133 -3.6055  1.7814
  151SAPE  C31316771   0.282   2.554   8.043  0.0764 -0.0390  0.6494
  151SAPE  H13X16772   0.376   2.518   7.997  1.2483  0.1869  2.7355
  151SAPE  H13Y16773   0.200   2.527   7.973 -0.2589  3.0046 -0.3044
  151SAPE  C31416774   0.255   2.488   8.178 -1.0073  0.5608  0.4504
  151SAPE  H14X16775   0.244   2.379   8.163 -0.2660  0.5475 -0.0760
  151SAPE  H14Y16776   0.165   2.525   8.231 -1.2465  1.9693 -0.8521
  151SAPE  C31516777   0.376   2.497   8.277 -1.0492  0.9894 -0.6147
  151SAPE  H15X16778   0.339   2.455   8.373  1.0513  1.1579  0.3321
  151SAPE  H15Y16779   0.378   2.607   8.294 -3.4424  1.0379 -0.3167
  151SAPE  C31616780   0.512   2.450   8.213 -0.0754  0.3196 -0.3937
  151SAPE  H16X16781   0.541   2.526   8.138 -0.4284  1.8478  0.9678
  151SAPE  H16Y16782   0.486   2.356   8.159 -0.3943 -1.2126  2.2276
  151SAPE  C31716783   0.616   2.419   8.323 -0.5211 -0.0133 -0.8092
  151SAPE  H17X16784   0.566   2.360   8.402  0.8017  0.0791  0.1235
  151SAPE  H17Y16785   0.654   2.516   8.361  3.5032 -1.4601 -0.6448
  151SAPE  C31816786   0.742   2.350   8.277  0.3859  0.2327 -0.4692
  151SAPE  H18X16787   0.815   2.433   8.263  0.0305  0.6102 -0.1105
  151SAPE  H18Y16788   0.724   2.286   8.188  0.4686 -0.0702 -0.2712
  151SAPE  H18Z16789   0.785   2.294   8.363 -5.3743 -2.0198  1.4433
  152SAPE     N16790   4.052   3.932   6.308 -0.0971 -0.0051  0.1221
  152SAPE   HN116791   4.104   3.963   6.223 -0.3014 -2.4209 -0.9560
  152SAPE   HN216792   4.024   4.021   6.354  0.5043  1.0322 -1.4257
  152SAPE   HN316793   4.119   3.877   6.366 -0.1964 -0.3782 -0.1148
  152SAPE   C1216794   3.929   3.848   6.269  0.1498 -0.5102 -0.4550
  152SAPE  H12A16795   3.891   3.884   6.171 -0.0732  0.2098 -0.1177
  152SAPE  H12B16796   3.845   3.866   6.340  1.6041 -0.6968  1.3966
  152SAPE   C1116797   3.961   3.692   6.260  0.3317  0.2484 -0.3726
  152SAPE  H11A16798   3.869   3.646   6.218  1.0635  0.6134 -2.5144
  152SAPE  H11B16799   3.978   3.644   6.358 -0.5052 -0.7731 -0.7167
  152SAPE     P16800   4.156   3.557   6.135  0.5411  0.2262  0.1647
  152SAPE   O1316801   4.088   3.478   6.027  0.3531 -0.9908 -0.3730
  152SAPE   O1416802   4.288   3.614   6.110  0.0312 -0.5910  0.0786
  152SAPE   O1216803   4.063   3.678   6.169 -0.3645  0.0223  0.4011
  152SAPE   O1116804   4.154   3.463   6.255 -0.4743 -0.0599 -0.2281
  152SAPE    C116805   4.208   3.504   6.381 -0.3654 -0.4989  0.7452
  152SAPE    HA16806   4.319   3.506   6.376 -0.2339  2.5374  2.7021
  152SAPE    HB16807   4.168   3.605   6.403  0.3705  0.7683 -2.9698
  152SAPE    C216808   4.167   3.397   6.486  0.4706  0.2018 -0.1223
  152SAPE    HS16809   4.173   3.303   6.428  0.3253 -0.0649  0.2912
  152SAPE   O2116810   4.031   3.419   6.541  0.4975  0.7469  0.0268
  152SAPE   C2116811   3.981   3.309   6.604  0.9059  0.0064  0.0232
  152SAPE   O2216812   4.024   3.195   6.602  0.0382  0.4828  0.0409
  152SAPE   C2216813   3.853   3.344   6.684 -0.2237 -0.0971  0.3362
  152SAPE   H2R16814   3.863   3.434   6.748  1.0590  0.0975 -0.1131
  152SAPE   H2S16815   3.777   3.384   6.613  0.7106  1.5576  0.2289
  152SAPE    C316816   4.271   3.396   6.607  0.5114 -0.4811 -0.6687
  152SAPE    HX16817   4.377   3.387   6.574  0.2388  0.3211 -1.7963
  152SAPE    HY16818   4.261   3.300   6.664  1.8084 -0.5398 -0.4946
  152SAPE   O3116819   4.250   3.515   6.683  0.0972  0.3858  0.3054
  152SAPE   C3116820   4.209   3.495   6.814  0.0488 -0.2839  0.2419
  152SAPE   O3216821   4.197   3.387   6.872 -0.1439  0.2307 -0.4191
  152SAPE   C3216822   4.184   3.624   6.884 -0.2786 -0.3525 -0.6357
  152SAPE   H2X16823   4.110   3.683   6.825 -2.0139 -0.1479  1.5860
  152SAPE   H2Y16824   4.272   3.691   6.895 -1.2723  1.0641 -0.9726
  152SAPE   C2316825   3.773   3.234   6.762 -0.1471  0.5394  0.2229
  152SAPE   H3R16826   3.760   3.150   6.691 -0.9352  0.0305  0.9528
  152SAPE   H3S16827   3.676   3.278   6.792  0.2421  0.6061  1.4559
  152SAPE   C2416828   3.842   3.186   6.893  0.5578 -0.4935 -0.6033
  152SAPE   H4R16829   3.873   3.270   6.959  2.1298 -1.4125 -0.1253
  152SAPE   H4S16830   3.942   3.154   6.857  0.5823  0.4703 -1.4412
  152SAPE   C2516831   3.770   3.074   6.972 -1.0418 -0.0043  0.2134
  152SAPE   H5R16832   3.726   2.998   6.905 -0.6497  0.7572 -0.9330
  152SAPE   C2616833   3.737   3.078   7.102 -0.1752  0.2310 -0.4108
  152SAPE   H6R16834   3.674   2.993   7.134  0.5864 -1.5833 -3.3756
  152SAPE   C2716835   3.760   3.180   7.210  0.3635  0.4278 -0.4233
  152SAPE   H7R16836   3.824   3.266   7.179 -0.6094  1.2473 -0.1974
  152SAPE   H7S16837   3.806   3.131   7.299  0.8354  0.5844 -0.5768
  152SAPE   C2816838   3.630   3.246   7.254  0.0240 -0.3056  0.2524
  152SAPE   H8R16839   3.571   3.301   7.179  0.0739  1.3025  1.3627
  152SAPE   C2916840   3.589   3.265   7.383 -0.5515 -0.0823 -0.3785
  152SAPE   H9R16841   3.502   3.325   7.414 -0.3848 -0.2109  0.3654
  152SAPE  C21016842   3.663   3.224   7.511  0.1372 -0.0455 -0.6711
  152SAPE  H10R16843   3.716   3.126   7.512  0.8335  0.3240 -0.5120
  152SAPE  H10S16844   3.586   3.217   7.591  0.8944  1.1329  0.1958
  152SAPE  C21116845   3.764   3.326   7.546 -0.1263  0.3944  0.0684
  152SAPE  H11R16846   3.820   3.361   7.458  1.7646 -0.6220  0.8305
  152SAPE  C21216847   3.779   3.380   7.669  0.2718 -0.1172  0.3010
  152SAPE  H12R16848   3.860   3.452   7.686 -0.5314  1.0021 -0.4547
  152SAPE  C21316849   3.700   3.345   7.794 -0.6484  0.4568  0.1104
  152SAPE  H13R16850   3.592   3.356   7.773 -0.1015  5.4113 -1.4204
  152SAPE  H13S16851   3.717   3.430   7.863 -2.6402  1.5636 -0.6797
  152SAPE  C21416852   3.737   3.211   7.853 -0.0331 -0.7869 -0.3962
  152SAPE  H14R16853   3.834   3.168   7.826 -0.2498 -0.1604 -2.3424
  152SAPE  C21516854   3.659   3.146   7.941  0.4518 -0.1647 -0.7177
  152SAPE  H15R16855   3.701   3.055   7.987 -0.7153 -0.7475 -0.7592
  152SAPE  C21616856   3.531   3.203   7.992 -0.1643  0.2024  0.0567
  152SAPE  H16R16857   3.452   3.167   7.922 -1.1601  2.2007  0.0873
  152SAPE  H16S16858   3.518   3.313   7.986  1.7794  0.5338  1.0982
  152SAPE  C21716859   3.493   3.163   8.141  0.4676  0.0587  0.3843
  152SAPE  H17R16860   3.383   3.178   8.144  0.1489 -1.2873 -2.0370
  152SAPE  H17S16861   3.540   3.233   8.214  0.8191 -1.9092  2.1377
  152SAPE  C21816862   3.518   3.022   8.204  0.2208 -0.5059  0.8932
  152SAPE  H18R16863   3.622   2.989   8.181 -1.1137 -2.8509 -2.5689
  152SAPE  H18S16864   3.447   2.948   8.160 -0.2065  0.1513  0.4569
  152SAPE  C21916865   3.506   3.029   8.352  0.4717 -0.3064 -0.1682
  152SAPE  H19R16866   3.421   3.092   8.385 -0.5821 -1.0872 -1.3314
  152SAPE  H19S16867   3.599   3.076   8.391 -0.2601  0.6418  0.4668
  152SAPE  C22016868   3.483   2.895   8.421  0.0538  0.1448  0.1952
  152SAPE  H20R16869   3.414   2.837   8.356 -0.0127  0.5606 -0.1108
  152SAPE  H20S16870   3.428   2.912   8.516 -1.3151 -0.7162 -0.3979
  152SAPE  H20T16871   3.582   2.846   8.421  0.4798  0.9683 -0.7495
  152SAPE   C3316872   4.122   3.606   7.029  0.2389 -1.2527  0.0692
  152SAPE   H3X16873   4.196   3.555   7.095 -0.4572 -0.0762  1.8326
  152SAPE   H3Y16874   4.034   3.540   7.046 -0.0064 -0.4906  1.9122
  152SAPE   C3416875   4.100   3.746   7.095 -0.2629 -0.5326  0.2385
  152SAPE   H4X16876   4.044   3.816   7.029 -1.1715 -1.6403 -0.1856
  152SAPE   H4Y16877   4.207   3.774   7.109  0.0978 -0.9986 -1.3453
  152SAPE   C3516878   4.034   3.734   7.232  0.4555 -0.2203  0.3792
  152SAPE   H5X16879   3.937   3.683   7.216 -0.2829  0.7812  1.6042
  152SAPE   H5Y16880   4.022   3.836   7.273  2.4416 -0.4447  1.6686
  152SAPE   C3616881   4.118   3.650   7.339 -0.0143  0.5235  0.5312
  152SAPE   H6X16882   4.219   3.684   7.308 -0.4600  3.5986  2.0640
  152SAPE   H6Y16883   4.116   3.539   7.334  0.4086  0.5808 -1.6347
  152SAPE   C3716884   4.079   3.694   7.480 -0.3506  0.2307 -0.4833
  152SAPE   H7X16885   3.995   3.627   7.508  1.8114 -2.2730  0.4619
  152SAPE   H7Y16886   4.038   3.797   7.479 -0.2924  0.2524 -0.7561
  152SAPE   C3816887   4.175   3.677   7.590  0.8488  0.1263  0.2790
  152SAPE   H8X16888   4.279   3.708   7.569  0.3190  1.8023 -0.0509
  152SAPE   H8Y16889   4.201   3.571   7.610  1.9492  0.5963  1.4579
  152SAPE   C3916890   4.124   3.742   7.724  0.8617  0.9096  0.1611
  152SAPE   H9X16891   4.014   3.731   7.737  0.9104  0.4992  0.2327
  152SAPE   H9Y16892   4.140   3.851   7.712  3.2075  0.5081 -0.7444
  152SAPE  C31016893   4.196   3.689   7.850 -0.1585 -0.7033  0.1782
  152SAPE  H10X16894   4.299   3.732   7.850 -0.2957 -0.3535  0.9037
  152SAPE  H10Y16895   4.210   3.582   7.825  1.0952 -0.5521  0.1667
  152SAPE  C31116896   4.109   3.715   7.978 -0.4589 -0.2501  0.0169
  152SAPE  H11X16897   4.079   3.821   7.993  0.0463 -0.0394 -0.3924
  152SAPE  H11Y16898   4.171   3.684   8.065 -0.0860  0.6012  0.0646
  152SAPE  C31216899   3.980   3.635   7.979  0.1365 -0.8258 -0.0655
  152SAPE  H12X16900   3.996   3.526   7.960 -0.6315 -0.7378 -1.3073
  152SAPE  H12Y16901   3.918   3.677   7.897  0.7953 -2.6816 -1.6035
  152SAPE  C31316902   3.905   3.639   8.115 -0.2255 -0.0617  0.2063
  152SAPE  H13X16903   3.912   3.735   8.170  3.0886  1.0654 -1.8918
  152SAPE  H13Y16904   3.955   3.561   8.176  1.4113 -0.7590 -1.8739
  152SAPE  C31416905   3.756   3.605   8.099 -0.3562  0.0702 -0.0593
  152SAPE  H14X16906   3.744   3.501   8.060  1.9378 -0.0932 -0.4863
  152SAPE  H14Y16907   3.713   3.665   8.015 -1.0069 -2.0609 -1.3425
  152SAPE  C31516908   3.679   3.616   8.228 -0.1715 -0.1288 -0.6972
  152SAPE  H15X16909   3.571   3.610   8.205 -0.2261  1.5182 -0.9917
  152SAPE  H15Y16910   3.686   3.717   8.273 -2.0811  0.1292 -0.9321
  152SAPE  C31616911   3.710   3.498   8.323 -0.2598  0.7083  0.1094
  152SAPE  H16X16912   3.819   3.489   8.342  0.0977  1.1653 -1.5927
  152SAPE  H16Y16913   3.668   3.400   8.289  2.3038  0.3503 -2.3114
  152SAPE  C31716914   3.632   3.521   8.457  0.0270  0.2133 -0.3662
  152SAPE  H17X16915   3.522   3.525   8.442  0.0734  0.3835 -0.6748
  152SAPE  H17Y16916   3.665   3.618   8.499 -0.0912 -0.8436  2.3283
  152SAPE  C31816917   3.658   3.413   8.565 -0.6230  0.1664  0.2494
  152SAPE  H18X16918   3.593   3.327   8.540 -1.9795  1.9003 -2.5742
  152SAPE  H18Y16919   3.628   3.442   8.668  0.1147 -0.0985  0.5524
  152SAPE  H18Z16920   3.762   3.375   8.550 -1.2084 -0.6505 -2.1730
  153SAPE     N16921   2.150   3.611   6.054  0.1923 -0.3294  0.2738
  153SAPE   HN116922   2.074   3.658   6.002  0.5923 -0.2040 -0.2103
  153SAPE   HN216923   2.240   3.642   6.011  0.0656 -0.2463  0.0674
  153SAPE   HN316924   2.142   3.507   6.058 -1.0006 -0.2045  2.4705
  153SAPE   C1216925   2.149   3.667   6.196  0.0759  0.1517  0.4273
  153SAPE  H12A16926   2.145   3.777   6.191  0.8647  0.2352  1.4446
  153SAPE  H12B16927   2.241   3.627   6.243 -0.8086 -1.0986  1.1613
  153SAPE   C1116928   2.025   3.618   6.270  0.2870 -0.1630 -0.1167
  153SAPE  H11A16929   2.011   3.661   6.372 -1.7015 -1.3154  0.1637
  153SAPE  H11B16930   2.019   3.508   6.288  1.4895 -0.1331  0.5808
  153SAPE     P16931   1.820   3.769   6.201  0.1344 -0.3531 -0.0396
  153SAPE   O1316932   1.904   3.887   6.202  0.0858 -0.5708  0.0840
  153SAPE   O1416933   1.721   3.759   6.090  0.1611  0.9130  0.0672
  153SAPE   O1216934   1.908   3.642   6.201 -0.0739  0.3596 -0.2886
  153SAPE   O1116935   1.750   3.742   6.343  0.4503  0.2942 -0.2126
  153SAPE    C116936   1.749   3.838   6.444  0.2516  0.6081 -0.8211
  153SAPE    HA16937   1.855   3.869   6.460 -0.1489  1.0746  1.2760
  153SAPE    HB16938   1.688   3.922   6.405 -0.7307 -1.0008 -2.9602
  153SAPE    C216939   1.678   3.795   6.578 -0.5285 -0.2494 -0.1794
  153SAPE    HS16940   1.687   3.881   6.648 -1.1341  2.6489 -3.3520
  153SAPE   O2116941   1.734   3.670   6.634  0.2282  0.5355  0.5264
  153SAPE   C2116942   1.855   3.679   6.681  0.3374 -0.5346  0.5272
  153SAPE   O2216943   1.922   3.783   6.687  0.8777 -0.0989  0.2139
  153SAPE   C2216944   1.908   3.549   6.738  0.4192  0.3239 -0.1863
  153SAPE   H2R16945   1.889   3.458   6.677  1.1111  0.1877 -0.2100
  153SAPE   H2S16946   2.018   3.560   6.729  0.5337 -0.0660  0.6590
  153SAPE    C316947   1.529   3.781   6.559 -0.3461  0.5113 -0.2756
  153SAPE    HX16948   1.506   3.706   6.481  0.6590 -1.4911  1.2800
  153SAPE    HY16949   1.494   3.882   6.529 -1.2652  0.3373  0.1945
  153SAPE   O3116950   1.463   3.749   6.677 -0.4654 -0.0967 -0.4550
  153SAPE   C3116951   1.337   3.748   6.675  0.0785  0.0242 -0.5900
  153SAPE   O3216952   1.268   3.765   6.577 -0.5742 -0.6475  0.0278
  153SAPE   C3216953   1.284   3.727   6.818  0.0002 -0.5464  0.0772
  153SAPE   H2X16954   1.268   3.618   6.825 -1.8884 -0.2816  0.1836
  153SAPE   H2Y16955   1.197   3.794   6.835 -0.8659 -1.0339 -2.0752
  153SAPE   C2316956   1.872   3.522   6.887  0.3301  0.2534  0.0388
  153SAPE   H3R16957   1.887   3.420   6.928 -1.4159 -0.3220 -0.6564
  153SAPE   H3S16958   1.764   3.547   6.882  0.7205  1.8570 -1.2490
  153SAPE   C2416959   1.941   3.615   6.996  0.2801 -0.5385 -0.4551
  153SAPE   H4R16960   1.949   3.718   6.955  0.2504  0.7769  2.5755
  153SAPE   H4S16961   2.043   3.575   7.012  2.3548  3.5180 -2.1661
  153SAPE   C2516962   1.871   3.634   7.128 -0.9385 -0.9710  0.0899
  153SAPE   H5R16963   1.788   3.706   7.123 -0.0592 -0.0048 -2.1963
  153SAPE   C2616964   1.883   3.550   7.239 -0.7360  0.0025  0.3881
  153SAPE   H6R16965   1.833   3.565   7.336  0.8123 -0.2878  1.2499
  153SAPE   C2716966   1.982   3.435   7.236 -0.3373  0.4543 -0.2949
  153SAPE   H7R16967   1.988   3.380   7.139 -0.7475 -1.1082  0.5331
  153SAPE   H7S16968   1.941   3.357   7.303 -0.6467  1.0631  0.2314
  153SAPE   C2816969   2.120   3.470   7.286 -0.0826 -0.2233  0.3051
  153SAPE   H8R16970   2.193   3.484   7.205 -1.4120  0.0709 -0.8722
  153SAPE   C2916971   2.163   3.461   7.413 -0.6480 -0.6554  1.2795
  153SAPE   H9R16972   2.264   3.497   7.435 -0.6828 -1.0974  2.2341
  153SAPE  C21016973   2.080   3.418   7.529 -0.2303 -0.0889  0.4721
  153SAPE  H10R16974   2.141   3.352   7.594  1.1414  0.1597 -0.5254
  153SAPE  H10S16975   1.994   3.353   7.501  1.4627 -3.0397  1.6529
  153SAPE  C21116976   2.035   3.540   7.608  0.3946  0.1313  0.7337
  153SAPE  H11R16977   2.001   3.626   7.548 -1.2682 -1.0842 -0.1478
  153SAPE  C21216978   2.035   3.556   7.741 -0.0582  0.3003  0.6703
  153SAPE  H12R16979   2.017   3.650   7.794  1.0860  0.3059  1.0694
  153SAPE  C21316980   2.077   3.451   7.852 -0.3201 -0.8980  0.5003
  153SAPE  H13R16981   2.113   3.352   7.818 -1.4905 -2.4347  3.3704
  153SAPE  H13S16982   1.983   3.426   7.906 -0.5914  2.3659  1.7957
  153SAPE  C21416983   2.185   3.512   7.933 -0.5916 -0.4490 -0.0647
  153SAPE  H14R16984   2.265   3.559   7.874 -2.6414  0.4014 -2.3000
  153SAPE  C21516985   2.198   3.520   8.067 -0.4011  0.1071  0.2949
  153SAPE  H15R16986   2.292   3.561   8.107 -0.9355  0.5898  1.0756
  153SAPE  C21616987   2.094   3.474   8.172  0.0873  0.1521 -0.1388
  153SAPE  H16R16988   2.123   3.368   8.191 -2.6556 -0.9253 -1.3045
  153SAPE  H16S16989   1.992   3.472   8.127  0.5541  0.8250 -1.2724
  153SAPE  C21716990   2.073   3.559   8.298  0.2583 -1.0215 -0.6950
  153SAPE  H17R16991   1.990   3.508   8.352  0.3974  1.9651  2.6662
  153SAPE  H17S16992   2.035   3.658   8.266  2.4725  0.8379  1.9985
  153SAPE  C21816993   2.201   3.574   8.393  0.0389 -0.1279 -0.2086
  153SAPE  H18R16994   2.290   3.581   8.326  0.0866  1.2654 -0.0412
  153SAPE  H18S16995   2.200   3.480   8.452 -2.1666  0.4000  0.7109
  153SAPE  C21916996   2.190   3.702   8.477 -0.8389  0.6508  0.3008
  153SAPE  H19R16997   2.105   3.695   8.548  0.2598 -0.6002  1.5498
  153SAPE  H19S16998   2.180   3.779   8.398  0.9957  0.4255 -0.1946
  153SAPE  C22016999   2.303   3.730   8.569 -0.6877 -1.7623 -0.7440
  153SAPE  H20R17000   2.378   3.793   8.517  0.5030 -2.0049  0.6297
  153SAPE  H20S17001   2.353   3.641   8.612  0.3545 -0.5274  0.6688
  153SAPE  H20T17002   2.267   3.796   8.651 -0.4357 -2.5546  0.0183
  153SAPE   C3317003   1.382   3.756   6.933 -0.1152  0.3993 -0.1065
  153SAPE   H3X17004   1.472   3.692   6.921 -0.9399 -0.7066 -0.5359
  153SAPE   H3Y17005   1.332   3.706   7.018 -0.2294 -2.1685 -1.6012
  153SAPE   C3417006   1.408   3.907   6.939  0.5161  0.2477  0.5097
  153SAPE   H4X17007   1.312   3.959   6.922  1.3333  1.5500 -0.3684
  153SAPE   H4Y17008   1.474   3.931   6.853  1.6606 -0.3696  1.1794
  153SAPE   C3517009   1.490   3.958   7.055  0.1623  0.4859  0.6072
  153SAPE   H5X17010   1.490   4.068   7.044 -1.4526  0.4463  0.0178
  153SAPE   H5Y17011   1.598   3.931   7.055  0.8574  2.7720 -2.9215
  153SAPE   C3617012   1.440   3.950   7.199  0.4160  0.5643  0.5783
  153SAPE   H6X17013   1.342   3.995   7.226  0.6538  0.5899  1.4340
  153SAPE   H6Y17014   1.509   4.015   7.256  0.9325  0.0287  0.5712
  153SAPE   C3717015   1.471   3.813   7.263 -0.0014  0.2655 -0.2813
  153SAPE   H7X17016   1.569   3.774   7.228  0.6560  1.1250  0.5206
  153SAPE   H7Y17017   1.379   3.757   7.237 -0.4386  1.6860 -2.0348
  153SAPE   C3817018   1.469   3.841   7.416 -0.1884  0.3782  0.0228
  153SAPE   H8X17019   1.368   3.883   7.438 -0.6749 -0.2730 -0.8718
  153SAPE   H8Y17020   1.538   3.923   7.446 -1.0661  1.1536 -0.0174
  153SAPE   C3917021   1.495   3.720   7.504 -0.0513  0.1929 -0.7420
  153SAPE   H9X17022   1.600   3.687   7.487  0.1224  1.4353 -2.3650
  153SAPE   H9Y17023   1.434   3.629   7.494  1.1776 -0.7686  0.1641
  153SAPE  C31017024   1.470   3.765   7.650  0.6025 -0.4689 -0.3286
  153SAPE  H10X17025   1.362   3.769   7.676  0.6264 -0.7944 -0.1755
  153SAPE  H10Y17026   1.508   3.869   7.658 -1.2898  0.2737 -0.5508
  153SAPE  C31117027   1.539   3.675   7.756  0.8370  0.3665  0.4255
  153SAPE  H11X17028   1.638   3.643   7.717  0.9734 -0.3186  1.2939
  153SAPE  H11Y17029   1.473   3.586   7.755 -1.1065  1.7368  0.6612
  153SAPE  C31217030   1.545   3.744   7.893  0.1121 -0.0956 -0.2944
  153SAPE  H12X17031   1.447   3.788   7.921  1.6631  3.5213  0.0090
  153SAPE  H12Y17032   1.614   3.832   7.898 -0.7154  0.7239 -2.1280
  153SAPE  C31317033   1.592   3.652   8.012  0.0956  0.2005  0.0038
  153SAPE  H13X17034   1.628   3.708   8.101  0.0682  0.6817 -0.2879
  153SAPE  H13Y17035   1.680   3.602   7.966  0.7921  1.0766  0.3678
  153SAPE  C31417036   1.478   3.557   8.055  0.0364  0.4519  0.2935
  153SAPE  H14X17037   1.467   3.499   7.961 -1.9688  1.9309 -0.4468
  153SAPE  H14Y17038   1.386   3.618   8.065 -0.5292 -0.4172  0.5836
  153SAPE  C31517039   1.505   3.475   8.177  0.2736  0.0185 -0.7188
  153SAPE  H15X17040   1.539   3.538   8.262  1.4846  0.1264 -1.2540
  153SAPE  H15Y17041   1.590   3.405   8.157 -1.4135 -2.4207  0.1483
  153SAPE  C31617042   1.385   3.387   8.211 -0.1191  0.0306 -0.2603
  153SAPE  H16X17043   1.359   3.304   8.143 -3.1332 -0.4591  1.3038
  153SAPE  H16Y17044   1.301   3.459   8.197 -0.9289 -0.6965  0.6502
  153SAPE  C31717045   1.372   3.345   8.353 -0.1610  0.5854 -0.0702
  153SAPE  H17X17046   1.395   3.435   8.413  0.0295  1.7296 -1.7790
  153SAPE  H17Y17047   1.440   3.260   8.370 -1.0192  0.1090  1.1251
  153SAPE  C31817048   1.237   3.302   8.394  1.3271 -0.6052  0.0472
  153SAPE  H18X17049   1.237   3.280   8.503 -0.8040 -1.5147 -0.0858
  153SAPE  H18Y17050   1.207   3.216   8.331  0.4022 -0.7493  0.6597
  153SAPE  H18Z17051   1.163   3.384   8.380  3.1249  0.7538 -2.1469
  154SAPE     N17052   1.990   1.882   5.900 -0.0743  0.0446  0.2433
  154SAPE   HN117053   1.974   1.784   5.869  1.6439  0.3058 -1.7217
  154SAPE   HN217054   2.090   1.907   5.894  0.6081 -1.5964  3.1002
  154SAPE   HN317055   1.965   1.890   6.000  1.0823  0.5710  0.5014
  154SAPE   C1217056   1.907   1.983   5.827 -0.1749 -0.2705  0.7586
  154SAPE  H12A17057   1.816   1.934   5.786 -0.2818  0.2092  0.4223
  154SAPE  H12B17058   1.958   2.030   5.741 -1.0543 -3.1355 -1.5141
  154SAPE   C1117059   1.863   2.098   5.925  0.1660  0.1332 -0.4489
  154SAPE  H11A17060   1.778   2.059   5.985 -0.2746 -0.8725 -1.6766
  154SAPE  H11B17061   1.815   2.174   5.859 -3.9700 -1.9580 -0.2023
  154SAPE     P17062   1.971   2.268   6.100 -0.4027 -0.0714  0.4336
  154SAPE   O1317063   2.080   2.359   6.046 -0.3557 -0.3067  0.0077
  154SAPE   O1417064   1.833   2.312   6.092 -0.2343  0.4922 -0.7530
  154SAPE   O1217065   1.978   2.124   6.014  0.4186  0.3741  0.1706
  154SAPE   O1117066   2.007   2.233   6.250  0.1138 -0.3919 -0.4197
  154SAPE    C117067   2.107   2.138   6.283  0.1479  0.8607  0.5101
  154SAPE    HA17068   2.088   2.042   6.231 -0.7928  1.4892 -0.3307
  154SAPE    HB17069   2.207   2.175   6.252  0.3861 -0.7755 -0.8263
  154SAPE    C217070   2.119   2.104   6.441 -0.3362  0.2209  0.2754
  154SAPE    HS17071   2.024   2.057   6.473  0.1061  0.0164  1.3532
  154SAPE   O2117072   2.138   2.233   6.510  0.4452 -0.1138 -0.0085
  154SAPE   C2117073   2.027   2.311   6.536 -0.8106  0.8149  1.0207
  154SAPE   O2217074   1.915   2.263   6.524 -0.1436  0.0164  0.2123
  154SAPE   C2217075   2.060   2.446   6.585 -0.7294  0.4957  0.4256
  154SAPE   H2R17076   2.167   2.455   6.612 -0.4931  1.7834 -0.8325
  154SAPE   H2S17077   2.035   2.527   6.513  0.9749  0.5405 -0.1456
  154SAPE    C317078   2.237   2.013   6.479 -0.3030  0.3715 -0.1821
  154SAPE    HX17079   2.330   2.063   6.441 -0.0876  0.4267  0.4078
  154SAPE    HY17080   2.233   1.923   6.414  2.3034  0.2149 -0.2534
  154SAPE   O3117081   2.256   1.977   6.616  0.8592 -0.2636  0.1524
  154SAPE   C3117082   2.160   1.890   6.653  0.5481  0.2638 -0.0532
  154SAPE   O3217083   2.080   1.832   6.579  0.7490 -0.1302  0.3739
  154SAPE   C3217084   2.166   1.867   6.809 -0.2557  0.6934 -0.3495
  154SAPE   H2X17085   2.188   1.967   6.854 -0.7415  0.2579  0.8903
  154SAPE   H2Y17086   2.252   1.797   6.820 -2.8946 -2.9125 -0.8884
  154SAPE   C2317087   1.982   2.472   6.715  0.0014  0.2246  0.1251
  154SAPE   H3R17088   2.001   2.400   6.798 -0.5618  0.1941  0.2325
  154SAPE   H3S17089   1.876   2.455   6.686 -0.3712  1.8100  0.5037
  154SAPE   C2417090   1.992   2.611   6.770 -0.7103  0.2775  0.6305
  154SAPE   H4R17091   1.914   2.627   6.848 -1.0524  1.3041  0.0950
  154SAPE   H4S17092   1.959   2.684   6.693  2.7236  1.4467  0.1199
  154SAPE   C2517093   2.133   2.655   6.817  0.7633  0.1665  0.5651
  154SAPE   H5R17094   2.206   2.689   6.743 -0.0607  2.2232  0.6090
  154SAPE   C2617095   2.178   2.650   6.942 -0.2635 -1.0771 -0.7636
  154SAPE   H6R17096   2.280   2.688   6.954 -0.4641 -0.1326 -1.8387
  154SAPE   C2717097   2.094   2.609   7.064  0.0220  0.0959 -0.1978
  154SAPE   H7R17098   2.138   2.519   7.112 -1.4533 -0.9438 -0.7043
  154SAPE   H7S17099   2.003   2.555   7.028  1.1051 -1.8937 -0.0916
  154SAPE   C2817100   2.064   2.725   7.155 -0.1445 -0.3049  0.0306
  154SAPE   H8R17101   1.989   2.800   7.123  0.3745  2.1747  3.8662
  154SAPE   C2917102   2.109   2.736   7.284 -0.1959  0.7243  0.0223
  154SAPE   H9R17103   2.102   2.820   7.354  1.1219 -2.1674  4.0046
  154SAPE  C21017104   2.203   2.641   7.358 -0.3469  0.5479 -0.2474
  154SAPE  H10R17105   2.302   2.686   7.379  0.3326 -1.0096  0.0387
  154SAPE  H10S17106   2.233   2.555   7.295  2.4098  1.9049 -0.9275
  154SAPE  C21117107   2.133   2.591   7.485  0.1759  0.4346 -0.2946
  154SAPE  H11R17108   2.064   2.505   7.483  0.6362  0.0185  0.7378
  154SAPE  C21217109   2.164   2.624   7.610 -0.5562  0.5417 -0.4140
  154SAPE  H12R17110   2.113   2.570   7.692 -1.9290  2.6707  0.2238
  154SAPE  C21317111   2.274   2.717   7.656  0.5145  0.6605 -0.2112
  154SAPE  H13R17112   2.231   2.771   7.743 -1.3131  0.3286 -0.8733
  154SAPE  H13S17113   2.307   2.793   7.581  2.4380  0.8201  0.7252
  154SAPE  C21417114   2.394   2.632   7.699  0.0547  0.4977 -0.8716
  154SAPE  H14R17115   2.401   2.540   7.639 -2.1760  0.3508 -1.0227
  154SAPE  C21517116   2.474   2.659   7.806  0.9141  0.0731 -0.5265
  154SAPE  H15R17117   2.559   2.591   7.820 -1.1004 -2.0363  2.9739
  154SAPE  C21617118   2.461   2.777   7.898  0.2670 -0.1883 -0.1665
  154SAPE  H16R17119   2.412   2.861   7.844  0.8025  0.8396  0.8667
  154SAPE  H16S17120   2.565   2.818   7.907 -0.0970  1.0250 -1.1736
  154SAPE  C21717121   2.385   2.764   8.027  0.2888  0.1042  0.4611
  154SAPE  H17R17122   2.427   2.673   8.076  1.3980 -0.9184 -2.2018
  154SAPE  H17S17123   2.275   2.757   8.008  0.3062 -1.2740  0.7762
  154SAPE  C21817124   2.403   2.899   8.110  0.5256 -0.5015  0.1558
  154SAPE  H18R17125   2.334   2.881   8.195 -1.4802 -1.7361 -1.6189
  154SAPE  H18S17126   2.377   2.986   8.047  1.8582  0.6552  1.1565
  154SAPE  C21917127   2.542   2.920   8.168  0.4356 -1.3116 -0.5023
  154SAPE  H19R17128   2.537   3.016   8.222  0.1604 -0.0268 -2.6916
  154SAPE  H19S17129   2.617   2.922   8.086  0.3244 -0.9073 -0.5946
  154SAPE  C22017130   2.585   2.810   8.256  0.2559  0.4562  0.0829
  154SAPE  H20R17131   2.506   2.801   8.334 -0.8880 -0.7352 -1.1473
  154SAPE  H20S17132   2.684   2.829   8.302  0.4590  1.2754 -0.6814
  154SAPE  H20T17133   2.592   2.709   8.210  0.5532 -0.2200  1.5357
  154SAPE   C3317134   2.048   1.797   6.876  0.3801  0.2591  0.3806
  154SAPE   H3X17135   2.019   1.711   6.812 -0.7619  0.2067  0.9463
  154SAPE   H3Y17136   1.952   1.851   6.865 -0.4518 -1.5779 -2.8339
  154SAPE   C3417137   2.077   1.728   7.009 -0.0360 -0.3028  0.0555
  154SAPE   H4X17138   2.161   1.656   6.995  1.7560  2.0246 -2.2426
  154SAPE   H4Y17139   1.980   1.691   7.048 -0.6727 -0.4787 -1.6442
  154SAPE   C3517140   2.141   1.821   7.116  0.4342 -0.3124 -1.0605
  154SAPE   H5X17141   2.115   1.929   7.111  2.6498  0.1965 -2.9789
  154SAPE   H5Y17142   2.249   1.831   7.092  1.0979  1.4432  2.0733
  154SAPE   C3617143   2.119   1.769   7.259  0.7132  0.5333  0.3554
  154SAPE   H6X17144   2.154   1.664   7.264  1.5558  0.7784 -0.1214
  154SAPE   H6Y17145   2.012   1.766   7.287  1.5663 -0.5099  4.0035
  154SAPE   C3717146   2.192   1.852   7.361  0.1697 -0.2191 -0.2932
  154SAPE   H7X17147   2.158   1.956   7.344 -2.3737 -1.2566 -2.3140
  154SAPE   H7Y17148   2.301   1.849   7.340  0.0375 -0.3338 -0.9787
  154SAPE   C3817149   2.147   1.810   7.501  0.3873 -0.2244  0.6733
  154SAPE   H8X17150   2.146   1.700   7.514  1.5540 -0.2254  0.8345
  154SAPE   H8Y17151   2.039   1.834   7.512 -0.3244 -3.0242  0.4941
  154SAPE   C3917152   2.219   1.876   7.615 -0.2166  0.7713 -0.0522
  154SAPE   H9X17153   2.214   1.986   7.601  1.6006  0.7078 -1.7683
  154SAPE   H9Y17154   2.324   1.838   7.610 -0.9874 -1.6046  0.3069
  154SAPE  C31017155   2.155   1.838   7.747  0.1226 -0.2381  0.8739
  154SAPE  H10X17156   2.158   1.730   7.771 -0.7918 -0.2889  0.8146
  154SAPE  H10Y17157   2.047   1.861   7.737  0.5284  1.8715  0.8772
  154SAPE  C31117158   2.189   1.917   7.869 -1.3171 -0.0592  0.0673
  154SAPE  H11X17159   2.212   2.020   7.835 -1.6545  0.6424  1.8193
  154SAPE  H11Y17160   2.281   1.872   7.912 -1.6973  0.5924  1.6304
  154SAPE  C31217161   2.075   1.922   7.973 -0.2318  0.1778 -0.5946
  154SAPE  H12X17162   2.038   1.820   7.996 -0.2001  0.3816  0.3896
  154SAPE  H12Y17163   1.989   1.970   7.922 -2.6801  0.3447  3.2930
  154SAPE  C31317164   2.118   1.990   8.107  0.2825 -0.8531  0.0622
  154SAPE  H13X17165   2.173   2.081   8.075  2.1546 -1.1855  2.1140
  154SAPE  H13Y17166   2.189   1.938   8.174 -1.2476 -0.8318  1.7691
  154SAPE  C31417167   2.005   2.053   8.188 -0.1572  0.1485 -0.7504
  154SAPE  H14X17168   1.942   1.973   8.233  0.3146  0.3976  0.3782
  154SAPE  H14Y17169   1.945   2.108   8.112 -0.6818  0.1532 -0.3390
  154SAPE  C31517170   2.060   2.150   8.298 -0.0198  0.3378 -0.9462
  154SAPE  H15X17171   2.137   2.216   8.253  2.9589 -2.2774 -0.1100
  154SAPE  H15Y17172   2.104   2.083   8.375 -1.5045 -1.6778 -1.7567
  154SAPE  C31617173   1.956   2.241   8.366 -0.6405 -0.3249  0.3681
  154SAPE  H16X17174   1.892   2.279   8.283  1.7569 -0.8101 -1.8200
  154SAPE  H16Y17175   1.999   2.337   8.399 -1.0519  0.1334 -0.3913
  154SAPE  C31717176   1.879   2.168   8.473  0.1697 -0.2720  0.8235
  154SAPE  H17X17177   1.949   2.142   8.555  1.1882 -0.7923 -0.1767
  154SAPE  H17Y17178   1.845   2.072   8.428 -1.7507  1.6423 -2.1768
  154SAPE  C31817179   1.758   2.236   8.525  0.2002  0.1913 -0.5180
  154SAPE  H18X17180   1.796   2.326   8.576  0.1955 -0.6922  1.1068
  154SAPE  H18Y17181   1.709   2.185   8.611 -0.9337  2.4453  0.2545
  154SAPE  H18Z17182   1.688   2.263   8.442  0.0462  2.7031  0.3778
  155SAPE     N17183   4.391   3.856   6.063  0.1176  0.2730  0.4789
  155SAPE   HN117184   4.328   3.938   6.068 -0.4642 -0.2211  1.5465
  155SAPE   HN217185   4.423   3.855   5.964  0.4979 -1.1662  0.5919
  155SAPE   HN317186   4.337   3.769   6.084  1.3798 -0.4799  0.7560
  155SAPE   C1217187   4.507   3.867   6.162 -0.5469  0.3534  0.7147
  155SAPE  H12A17188   4.556   3.966   6.153 -1.0773  0.4805 -1.0141
  155SAPE  H12B17189   4.575   3.785   6.131 -0.9945  0.5005 -0.7238
  155SAPE   C1117190   4.457   3.840   6.310 -0.1186 -0.2310  0.1386
  155SAPE  H11A17191   4.546   3.844   6.376  0.6569 -0.4634 -0.8727
  155SAPE  H11B17192   4.412   3.738   6.311 -0.9218  0.0986 -1.0475
  155SAPE     P17193   4.406   4.088   6.379 -0.0495  0.0614  0.1010
  155SAPE   O1317194   4.540   4.113   6.330 -0.3077 -0.1047 -0.0907
  155SAPE   O1417195   4.302   4.190   6.342  0.5221 -0.5261 -0.8527
  155SAPE   O1217196   4.358   3.938   6.343 -0.6806  0.0378  0.8127
  155SAPE   O1117197   4.405   4.075   6.535  0.2005  0.3199  0.5749
  155SAPE    C117198   4.529   4.082   6.606 -0.0035 -0.0406  0.4129
  155SAPE    HA17199   4.604   4.011   6.566 -0.7804 -0.7817  0.2270
  155SAPE    HB17200   4.572   4.185   6.604 -1.4047  0.5731 -1.2832
  155SAPE    C217201   4.513   4.040   6.759  0.5863 -0.2941 -0.2799
  155SAPE    HS17202   4.479   3.935   6.757 -0.4497 -0.0252  1.2103
  155SAPE   O2117203   4.419   4.124   6.824 -0.7214 -0.0532 -0.3083
  155SAPE   C2117204   4.359   4.078   6.932 -0.5173  0.6339 -0.3497
  155SAPE   O2217205   4.355   3.959   6.956  0.7513 -0.0338 -0.0028
  155SAPE   C2217206   4.294   4.187   7.011 -0.4557  0.5477 -1.1397
  155SAPE   H2R17207   4.370   4.264   7.037 -0.3613  0.5822 -1.5018
  155SAPE   H2S17208   4.210   4.231   6.952 -1.5691  0.5856  0.4134
  155SAPE    C317209   4.647   4.047   6.833 -0.0128  0.3285  0.6562
  155SAPE    HX17210   4.683   4.148   6.804 -0.3690  0.6231  1.2140
  155SAPE    HY17211   4.711   3.965   6.794  0.5408  0.9691  0.2041
  155SAPE   O3117212   4.639   4.037   6.981  0.1728 -0.0472  0.0060
  155SAPE   C3117213   4.764   4.010   7.034  0.0401 -0.4617  0.2478
  155SAPE   O3217214   4.864   4.002   6.969 -0.1007  0.0820  0.3264
  155SAPE   C3217215   4.743   4.002   7.187 -0.6145  0.2277  0.1489
  155SAPE   H2X17216   4.684   3.913   7.215 -1.2600 -0.1739 -2.2415
  155SAPE   H2Y17217   4.678   4.090   7.208 -0.1928  0.8402 -1.0258
  155SAPE   C2317218   4.216   4.129   7.134  0.5412 -0.5676 -0.2320
  155SAPE   H3R17219   4.151   4.048   7.096  0.7629 -0.5192 -0.7162
  155SAPE   H3S17220   4.144   4.207   7.168  1.0513 -0.7017  1.2496
  155SAPE   C2417221   4.301   4.081   7.248 -0.8071 -0.2485 -0.2788
  155SAPE   H4R17222   4.366   4.169   7.265 -1.0992 -0.1384  0.3153
  155SAPE   H4S17223   4.360   3.995   7.212 -1.3076 -0.6381 -0.1871
  155SAPE   C2517224   4.231   4.040   7.372  0.0531 -0.4900 -0.5702
  155SAPE   H5R17225   4.121   4.036   7.368  0.0519 -0.9938 -0.1479
  155SAPE   C2617226   4.284   4.018   7.492  0.1834 -0.1330 -0.3794
  155SAPE   H6R17227   4.213   4.003   7.575  1.2795 -0.8133  0.4596
  155SAPE   C2717228   4.432   4.017   7.518  0.1435  0.9161  0.9827
  155SAPE   H7R17229   4.500   4.005   7.431 -0.1324  0.3945  0.8401
  155SAPE   H7S17230   4.460   3.936   7.589  0.6446  1.7720  1.7879
  155SAPE   C2817231   4.456   4.142   7.585  0.0858 -0.9441 -0.0719
  155SAPE   H8R17232   4.448   4.230   7.519  0.9159  0.0071  1.0410
  155SAPE   C2917233   4.478   4.165   7.718 -0.3109  0.5839  0.1365
  155SAPE   H9R17234   4.491   4.271   7.746  0.7950  0.2960  0.7720
  155SAPE  C21017235   4.500   4.068   7.832  0.1055  0.2158  0.0278
  155SAPE  H10R17236   4.606   4.034   7.825 -0.1326 -1.3431  2.7620
  155SAPE  H10S17237   4.438   3.976   7.822 -1.1206  0.8172  1.6696
  155SAPE  C21117238   4.482   4.131   7.964 -0.3825 -0.1888 -0.2199
  155SAPE  H11R17239   4.518   4.235   7.974  1.2075 -0.8349  1.3436
  155SAPE  C21217240   4.450   4.064   8.076 -0.2637  0.6119  0.3746
  155SAPE  H12R17241   4.438   4.118   8.170 -0.1266  0.3336  0.5556
  155SAPE  C21317242   4.425   3.917   8.083 -0.9727  0.3231  0.3882
  155SAPE  H13R17243   4.518   3.869   8.044  0.4750  2.7677  0.5614
  155SAPE  H13S17244   4.338   3.889   8.020 -0.5018  1.1376 -0.6676
  155SAPE  C21417245   4.402   3.864   8.221 -0.3174 -0.1195 -0.3391
  155SAPE  H14R17246   4.298   3.872   8.256 -0.4604 -0.6914 -0.6301
  155SAPE  C21517247   4.490   3.831   8.318  0.1881 -0.4150  0.3820
  155SAPE  H15R17248   4.440   3.787   8.406 -1.0941 -0.9086 -0.5452
  155SAPE  C21617249   4.644   3.833   8.318  0.5161  0.7027 -0.2078
  155SAPE  H16R17250   4.677   3.872   8.220  2.3669  0.3856  0.2400
  155SAPE  H16S17251   4.682   3.734   8.352 -0.3956  0.9744  1.7589
  155SAPE  C21717252   4.696   3.927   8.430 -0.0303 -0.6845 -0.0819
  155SAPE  H17R17253   4.655   4.030   8.427  0.1021 -0.3780  3.7989
  155SAPE  H17S17254   4.804   3.941   8.407 -0.0723  1.9024  1.0032
  155SAPE  C21817255   4.680   3.888   8.576  0.0667 -0.3313  0.4871
  155SAPE  H18R17256   4.698   3.779   8.579 -2.8760 -0.8923  2.1800
  155SAPE  H18S17257   4.578   3.912   8.616 -0.1101 -0.0615 -0.1098
  155SAPE  C21917258   4.786   3.952   8.663  0.5099 -0.2825  0.9831
  155SAPE  H19R17259   4.745   4.054   8.684 -1.0393 -0.2418 -1.7538
  155SAPE  H19S17260   4.881   3.962   8.607  0.5263  0.6501  1.1590
  155SAPE  C22017261   4.803   3.871   8.789 -0.3712 -0.1117  0.5850
  155SAPE  H20R17262   4.885   3.916   8.849 -1.5278  1.6653  0.9266
  155SAPE  H20S17263   4.823   3.764   8.767  0.1766 -0.3089  1.9445
  155SAPE  H20T17264   4.715   3.871   8.857 -0.8045  1.9628  0.0872
  155SAPE   C3317265   4.873   4.005   7.269 -0.2908  1.0377 -0.6532
  155SAPE   H3X17266   4.937   4.091   7.241 -0.3975  1.4390  0.3205
  155SAPE   H3Y17267   4.926   3.908   7.254 -1.2265  0.3234  0.4655
  155SAPE   C3417268   4.838   4.014   7.423  1.1355 -0.5116  0.1834
  155SAPE   H4X17269   4.775   3.923   7.435 -0.5013  0.3666 -1.1779
  155SAPE   H4Y17270   4.775   4.099   7.455  1.3672 -0.1967 -0.1937
  155SAPE   C3517271   4.952   4.014   7.520 -0.1458  0.6326 -0.7519
  155SAPE   H5X17272   5.013   4.106   7.506  0.3430  0.5499  0.7462
  155SAPE   H5Y17273   5.019   3.931   7.491 -0.2266  0.4902 -0.5288
  155SAPE   C3617274   4.910   4.012   7.665 -0.2040 -0.0662 -0.1578
  155SAPE   H6X17275   4.842   3.926   7.681  1.0400 -0.9125  0.8312
  155SAPE   H6Y17276   4.852   4.102   7.694  1.1441  0.1593  2.0761
  155SAPE   C3717277   5.026   3.987   7.765  0.3765 -0.1163  0.3370
  155SAPE   H7X17278   5.115   4.051   7.749  0.6744 -0.2560  1.4142
  155SAPE   H7Y17279   5.058   3.884   7.741  0.5899  0.5789 -2.7764
  155SAPE   C3817280   4.980   4.000   7.908 -0.4501 -0.2582  0.1483
  155SAPE   H8X17281   5.075   3.985   7.963 -0.1275  0.0401 -0.3228
  155SAPE   H8Y17282   4.906   3.920   7.928 -1.2823 -0.6697 -3.8045
  155SAPE   C3917283   4.922   4.135   7.954 -0.1632 -0.1008  0.9008
  155SAPE   H9X17284   4.820   4.144   7.911  0.2319  0.2545  0.0273
  155SAPE   H9Y17285   4.981   4.220   7.914  0.3697 -1.5475 -1.5999
  155SAPE  C31017286   4.902   4.149   8.104  0.4186 -0.1615 -0.0358
  155SAPE  H10X17287   5.001   4.165   8.151  0.2094  2.7509 -0.4202
  155SAPE  H10Y17288   4.845   4.067   8.152  1.2727 -0.0114  1.2857
  155SAPE  C31117289   4.829   4.288   8.133  0.2161  0.3292  0.0807
  155SAPE  H11X17290   4.734   4.298   8.075 -0.1534 -2.8369 -0.0423
  155SAPE  H11Y17291   4.900   4.370   8.107 -0.6469  0.6419 -1.4596
  155SAPE  C31217292   4.790   4.314   8.280 -0.4301  0.4409  0.9031
  155SAPE  H12X17293   4.729   4.228   8.316  1.1534  0.4707  4.0036
  155SAPE  H12Y17294   4.747   4.415   8.295  0.1776  0.4408  2.9606
  155SAPE  C31317295   4.907   4.310   8.387  0.6369 -0.3211  0.5121
  155SAPE  H13X17296   4.987   4.380   8.353 -1.2657  1.4602 -0.5004
  155SAPE  H13Y17297   4.947   4.206   8.388  0.6730 -0.3100  1.6058
  155SAPE  C31417298   4.861   4.345   8.531 -0.1092 -0.0456  0.3665
  155SAPE  H14X17299   4.775   4.280   8.559 -1.2684  0.7880 -1.1152
  155SAPE  H14Y17300   4.819   4.447   8.527 -0.8017 -0.3288  0.2436
  155SAPE  C31517301   4.975   4.330   8.629  0.7636  0.0064 -0.2787
  155SAPE  H15X17302   5.059   4.380   8.578 -0.9186  2.2191 -1.0673
  155SAPE  H15Y17303   4.989   4.224   8.657 -0.3041  0.6342  3.0934
  155SAPE  C31617304   4.955   4.403   8.759 -0.2233 -0.2221 -0.4825
  155SAPE  H16X17305   5.039   4.374   8.825  0.5246  4.3257  0.8719
  155SAPE  H16Y17306   4.857   4.382   8.808 -0.3468 -0.4229 -0.8153
  155SAPE  C31717307   4.965   4.555   8.760  0.6027 -0.2827 -0.3052
  155SAPE  H17X17308   4.869   4.595   8.722  0.8429  0.7928  0.1833
  155SAPE  H17Y17309   5.042   4.589   8.688  0.9585 -2.4543 -1.0164
  155SAPE  C31817310   4.994   4.622   8.896 -0.4998 -0.1892  0.3778
  155SAPE  H18X17311   5.088   4.574   8.929 -0.8584 -1.3158 -0.1807
  155SAPE  H18Y17312   4.914   4.601   8.970 -0.6012 -1.5123 -0.0851
  155SAPE  H18Z17313   5.004   4.730   8.873 -3.5998 -0.1273 -1.2892
  156SAPE     N17314   4.541   4.870   6.584  0.0975 -0.3851 -0.0769
  156SAPE   HN117315   4.464   4.882   6.515  0.9237 -0.3381 -1.0232
  156SAPE   HN217316   4.522   4.792   6.650  0.6656 -0.8808 -0.4862
  156SAPE   HN317317   4.553   4.962   6.632  1.3979 -0.1757 -0.7369
  156SAPE   C1217318   4.663   4.857   6.503 -0.4531  0.2190  0.7577
  156SAPE  H12A17319   4.689   4.753   6.476  1.4153  0.5980  0.9312
  156SAPE  H12B17320   4.741   4.909   6.563  0.6430 -0.0993 -0.3367
  156SAPE   C1117321   4.654   4.928   6.358  0.2603  0.8347  0.8820
  156SAPE  H11A17322   4.751   4.915   6.306 -0.8731  1.2917 -1.5293
  156SAPE  H11B17323   4.637   5.034   6.387  2.3692  1.3808  0.2457
  156SAPE     P17324   4.536   4.747   6.222 -0.2667  0.2163 -0.1760
  156SAPE   O1317325   4.421   4.745   6.131  0.3939 -0.1217  0.1103
  156SAPE   O1417326   4.663   4.700   6.175 -0.0424  0.6172  0.5418
  156SAPE   O1217327   4.552   4.889   6.271 -0.6173  0.1929 -0.1902
  156SAPE   O1117328   4.497   4.680   6.366 -0.4442 -0.3897 -0.0055
  156SAPE    C117329   4.459   4.545   6.364  0.0347  0.2611  0.8921
  156SAPE    HA17330   4.381   4.534   6.287 -1.1079  1.9142  1.7526
  156SAPE    HB17331   4.548   4.483   6.340  0.0498  0.7812 -0.4882
  156SAPE    C217332   4.404   4.496   6.502 -0.6571  0.4335 -0.5475
  156SAPE    HS17333   4.355   4.396   6.495  1.7008 -0.8291  0.1262
  156SAPE   O2117334   4.317   4.598   6.548 -0.4099 -0.6686  0.0297
  156SAPE   C2117335   4.211   4.551   6.626 -0.5851  0.2882  0.3551
  156SAPE   O2217336   4.205   4.436   6.663 -0.8507  0.2849  0.1469
  156SAPE   C2217337   4.117   4.664   6.655  0.1205  0.4064  0.0202
  156SAPE   H2R17338   4.163   4.764   6.664 -0.4632  0.5406  2.1336
  156SAPE   H2S17339   4.047   4.669   6.570 -1.4685  1.3198  1.3238
  156SAPE    C317340   4.529   4.486   6.593 -0.9003  0.0022 -0.1174
  156SAPE    HX17341   4.588   4.579   6.575 -2.5046  0.6781 -2.3525
  156SAPE    HY17342   4.596   4.403   6.561 -1.4214  0.0797 -1.4895
  156SAPE   O3117343   4.497   4.464   6.729 -0.3333 -0.7507  0.1756
  156SAPE   C3117344   4.493   4.568   6.806  0.3161 -0.1496  0.0629
  156SAPE   O3217345   4.507   4.687   6.775  0.2627  0.4159  0.7231
  156SAPE   C3217346   4.474   4.509   6.944  0.6122  0.6908 -0.3934
  156SAPE   H2X17347   4.567   4.452   6.962  1.6654  2.5217  0.2432
  156SAPE   H2Y17348   4.382   4.446   6.941 -0.0449  1.4870  1.2882
  156SAPE   C2317349   4.029   4.630   6.781  0.2059 -0.0633 -0.3690
  156SAPE   H3R17350   4.015   4.520   6.786 -1.0534 -0.0601 -2.4543
  156SAPE   H3S17351   3.931   4.681   6.767 -1.7640 -3.0892  1.3048
  156SAPE   C2417352   4.104   4.678   6.904  0.6609 -0.5508 -0.1462
  156SAPE   H4R17353   4.107   4.788   6.893 -2.4476 -0.4175 -0.3773
  156SAPE   H4S17354   4.207   4.634   6.904  1.2299  0.6033  2.2639
  156SAPE   C2517355   4.034   4.641   7.035 -0.0261 -0.1655  0.2044
  156SAPE   H5R17356   3.987   4.541   7.035 -0.0699 -0.1567  1.2745
  156SAPE   C2617357   4.015   4.720   7.138 -0.6206 -0.7567 -0.1405
  156SAPE   H6R17358   3.951   4.684   7.220  0.8481 -0.5207  1.1592
  156SAPE   C2717359   4.082   4.859   7.155  0.9080 -0.3176 -0.0280
  156SAPE   H7R17360   4.165   4.863   7.081  1.7215 -1.5525  0.7708
  156SAPE   H7S17361   4.129   4.867   7.255 -1.8587 -1.1342  1.4519
  156SAPE   C2817362   3.984   4.975   7.125 -0.8539 -0.4140 -0.7412
  156SAPE   H8R17363   3.931   4.975   7.029  0.0808  0.8332 -1.2719
  156SAPE   C2917364   3.959   5.078   7.209 -0.3082 -0.0881 -0.5752
  156SAPE   H9R17365   3.885   5.155   7.182  0.7676  1.8224  1.4797
  156SAPE  C21017366   4.014   5.098   7.346  0.0491  0.4745 -0.1801
  156SAPE  H10R17367   4.044   5.001   7.391 -1.0377  0.5806  0.8395
  156SAPE  H10S17368   3.936   5.130   7.419  2.3985 -0.2504  2.8949
  156SAPE  C21117369   4.128   5.193   7.366 -0.4777 -0.6365 -0.4916
  156SAPE  H11R17370   4.188   5.200   7.274  0.0626 -0.6299 -0.1432
  156SAPE  C21217371   4.144   5.287   7.470  0.7603 -0.0446  0.5495
  156SAPE  H12R17372   4.234   5.351   7.462  1.9736 -1.7972 -0.5955
  156SAPE  C21317373   4.065   5.311   7.593  0.4820 -0.4462 -0.8059
  156SAPE  H13R17374   3.958   5.335   7.572  0.5070  1.3319  0.7942
  156SAPE  H13S17375   4.101   5.405   7.639 -0.6528 -0.3428 -0.0968
  156SAPE  C21417376   4.065   5.202   7.692 -0.4096 -0.4243 -0.4279
  156SAPE  H14R17377   4.115   5.108   7.664  1.3518  0.3417  0.0057
  156SAPE  C21517378   4.007   5.215   7.813  0.3943  0.3317 -1.0153
  156SAPE  H15R17379   4.025   5.139   7.890  0.4734  1.0366 -0.3170
  156SAPE  C21617380   3.935   5.336   7.874  0.8757 -0.4816  0.5736
  156SAPE  H16R17381   3.932   5.426   7.810 -0.0295 -0.5325  0.5209
  156SAPE  H16S17382   4.007   5.369   7.951  0.7696 -1.8045  1.2754
  156SAPE  C21717383   3.795   5.326   7.933 -0.4507  0.1290  0.1707
  156SAPE  H17R17384   3.738   5.268   7.858 -0.0242  0.9387 -0.8017
  156SAPE  H17S17385   3.747   5.426   7.931 -1.7088 -0.4471 -2.3839
  156SAPE  C21817386   3.788   5.260   8.071  0.8673  0.8471  0.0277
  156SAPE  H18R17387   3.863   5.180   8.085  2.2280  2.0703 -0.0774
  156SAPE  H18S17388   3.691   5.209   8.094  2.4053 -1.2388  2.5119
  156SAPE  C21917389   3.805   5.365   8.177 -0.0235 -0.3432  0.0648
  156SAPE  H19R17390   3.715   5.429   8.169  0.0854 -0.2269 -0.2795
  156SAPE  H19S17391   3.896   5.416   8.136 -1.0778  1.1958 -0.4586
  156SAPE  C22017392   3.825   5.320   8.320 -0.0950 -0.1383 -0.6611
  156SAPE  H20R17393   3.834   5.410   8.384 -0.2873  0.3037 -1.2462
  156SAPE  H20S17394   3.915   5.256   8.331  0.6235  1.2474  2.3561
  156SAPE  H20T17395   3.738   5.262   8.359  0.6686 -2.1720 -1.8134
  156SAPE   C3317396   4.466   4.616   7.047 -0.6226  0.5387  0.0512
  156SAPE   H3X17397   4.372   4.672   7.064 -2.2917 -2.2974  0.8534
  156SAPE   H3Y17398   4.555   4.679   7.027  0.5459 -0.9677  0.3261
  156SAPE   C3417399   4.469   4.555   7.195 -0.5937 -0.4464 -0.3725
  156SAPE   H4X17400   4.518   4.623   7.268  1.3299 -0.3627 -1.6874
  156SAPE   H4Y17401   4.524   4.458   7.198 -0.9360 -0.6729 -1.2018
  156SAPE   C3517402   4.328   4.537   7.246  0.1115  0.2224  0.2066
  156SAPE   H5X17403   4.272   4.463   7.185  2.0202 -4.1628  3.2354
  156SAPE   H5Y17404   4.280   4.637   7.246  1.8978  1.1349  1.3706
  156SAPE   C3617405   4.336   4.480   7.388 -0.2664 -0.1217 -0.5104
  156SAPE   H6X17406   4.374   4.564   7.450 -2.4280 -0.1203  0.8805
  156SAPE   H6Y17407   4.412   4.399   7.381  1.1422  1.1629 -0.6529
  156SAPE   C3717408   4.211   4.426   7.447 -0.0005  0.2923 -0.2000
  156SAPE   H7X17409   4.212   4.407   7.557 -0.2618 -2.2167 -0.5691
  156SAPE   H7Y17410   4.182   4.332   7.395 -0.9141 -1.1056  2.6121
  156SAPE   C3817411   4.081   4.511   7.440 -0.0870 -0.2542  0.2970
  156SAPE   H8X17412   3.997   4.462   7.492 -0.9195  1.4203  0.5825
  156SAPE   H8Y17413   4.038   4.523   7.338  0.0668 -2.3244 -0.0722
  156SAPE   C3917414   4.092   4.655   7.494  0.3940 -0.8234 -0.4528
  156SAPE   H9X17415   3.993   4.705   7.490 -0.4005 -2.4174 -2.6415
  156SAPE   H9Y17416   4.157   4.717   7.429 -2.5488  1.0763 -1.8179
  156SAPE  C31017417   4.137   4.668   7.642 -0.4485  0.6973 -0.1284
  156SAPE  H10X17418   4.242   4.639   7.661 -0.5062  1.3678  1.3009
  156SAPE  H10Y17419   4.071   4.600   7.700 -0.5009 -0.7935 -1.8491
  156SAPE  C31117420   4.121   4.817   7.680  0.8020 -0.1372 -0.4454
  156SAPE  H11X17421   4.027   4.861   7.643  1.9959  1.1034 -2.1536
  156SAPE  H11Y17422   4.212   4.864   7.636  0.9119  0.3720  0.2982
  156SAPE  C31217423   4.133   4.839   7.836  0.3045  0.5945 -0.2829
  156SAPE  H12X17424   4.128   4.948   7.857 -1.7095  0.6609 -0.8605
  156SAPE  H12Y17425   4.231   4.804   7.874 -0.0674  0.8159  0.9193
  156SAPE  C31317426   4.022   4.767   7.916 -0.1111 -0.3121  0.0577
  156SAPE  H13X17427   4.032   4.658   7.900 -0.7782 -0.3650 -0.0095
  156SAPE  H13Y17428   3.925   4.792   7.867  0.7064  2.6180 -0.3011
  156SAPE  C31417429   4.014   4.794   8.068 -0.3516  0.8756  0.1679
  156SAPE  H14X17430   3.968   4.894   8.084 -3.1809 -0.6597  2.8786
  156SAPE  H14Y17431   4.118   4.785   8.107 -0.5066  0.6630  0.5365
  156SAPE  C31517432   3.924   4.694   8.133  0.0401  0.3734  0.0384
  156SAPE  H15X17433   3.960   4.589   8.122  0.3613  0.3376  1.2437
  156SAPE  H15Y17434   3.833   4.707   8.072  0.3884 -0.3863 -0.6612
  156SAPE  C31617435   3.903   4.718   8.282  0.6489 -1.0189 -0.0575
  156SAPE  H16X17436   3.845   4.632   8.324 -2.4953  0.9648 -0.0077
  156SAPE  H16Y17437   3.841   4.808   8.300 -1.5567 -2.4550 -0.0602
  156SAPE  C31717438   4.035   4.722   8.357  0.0984  0.7202 -0.2220
  156SAPE  H17X17439   4.085   4.816   8.326 -1.1660  0.5128 -3.1122
  156SAPE  H17Y17440   4.097   4.630   8.350  1.6298  1.3437  3.1914
  156SAPE  C31817441   3.993   4.751   8.501 -0.3724 -0.1358  0.6308
  156SAPE  H18X17442   3.951   4.661   8.550 -0.7844 -1.2642 -1.6713
  156SAPE  H18Y17443   3.917   4.833   8.509  0.4797  0.6244  1.1336
  156SAPE  H18Z17444   4.084   4.777   8.558 -0.0255  2.3473 -0.9110
  157SAPE     N17445   2.926   5.418   6.328 -0.3508  0.1556 -0.5631
  157SAPE   HN117446   2.896   5.358   6.408 -0.2780  1.0030  0.1095
  157SAPE   HN217447   3.014   5.469   6.348 -0.8481  1.0702 -0.6923
  157SAPE   HN317448   2.846   5.481   6.309 -1.6905 -0.7325  1.6431
  157SAPE   C1217449   2.937   5.331   6.208  0.2381  0.0789 -0.1813
  157SAPE  H12A17450   2.948   5.399   6.121  1.7485 -1.6480 -1.4162
  157SAPE  H12B17451   2.838   5.281   6.201  0.8320 -1.3919  1.1996
  157SAPE   C1117452   3.048   5.234   6.214 -0.7359  0.6994 -0.0541
  157SAPE  H11A17453   3.140   5.281   6.256 -1.6525 -0.0175  2.9868
  157SAPE  H11B17454   3.080   5.204   6.112 -1.8311 -0.8220  0.0068
  157SAPE     P17455   2.974   4.988   6.235 -0.2349 -0.0123 -0.1971
  157SAPE   O1317456   2.862   5.014   6.147 -0.6763  0.1851 -0.0830
  157SAPE   O1417457   3.092   4.921   6.174 -1.0000 -0.1391  0.5499
  157SAPE   O1217458   3.018   5.122   6.297  0.0636  0.2974  0.2384
  157SAPE   O1117459   2.911   4.905   6.348 -0.1637 -0.0818 -0.1660
  157SAPE    C117460   2.886   4.966   6.475 -0.9649  0.2702 -0.1972
  157SAPE    HA17461   2.894   4.888   6.553  1.1051 -0.9715 -1.5409
  157SAPE    HB17462   2.966   5.040   6.498 -0.1830 -0.0256 -1.8164
  157SAPE    C217463   2.735   5.024   6.480  0.1595  0.0208  0.5142
  157SAPE    HS17464   2.714   5.087   6.391 -0.6770 -0.6939  0.1933
  157SAPE   O2117465   2.710   5.086   6.608 -0.5093 -0.3592  0.0078
  157SAPE   C2117466   2.779   5.195   6.627 -0.3233  0.6708 -0.1296
  157SAPE   O2217467   2.843   5.264   6.550 -0.0256 -0.3598 -0.6099
  157SAPE   C2217468   2.766   5.240   6.773  0.2516 -0.4541  0.5238
  157SAPE   H2R17469   2.662   5.221   6.807 -0.9894  2.1698 -1.4347
  157SAPE   H2S17470   2.831   5.174   6.835  1.6603  1.1624  0.8328
  157SAPE    C317471   2.635   4.902   6.467 -0.6145 -0.0494 -1.0823
  157SAPE    HX17472   2.671   4.823   6.535  0.8213 -0.7903 -2.6537
  157SAPE    HY17473   2.644   4.864   6.363  1.8513  0.8700 -1.2600
  157SAPE   O3117474   2.504   4.948   6.499 -0.2385  0.0190  0.5681
  157SAPE   C3117475   2.453   4.906   6.620 -0.4772 -0.0508  0.2771
  157SAPE   O3217476   2.510   4.833   6.697  0.5235  0.3002  0.2820
  157SAPE   C3217477   2.322   4.981   6.638  1.2196 -0.0077  0.1248
  157SAPE   H2X17478   2.248   4.931   6.572  2.4810 -2.6161  0.5768
  157SAPE   H2Y17479   2.335   5.084   6.597  1.1485 -0.6782 -1.6810
  157SAPE   C2317480   2.823   5.383   6.797  0.0212 -0.2472 -0.4549
  157SAPE   H3R17481   2.748   5.460   6.769 -1.7128 -1.2331  1.2675
  157SAPE   H3S17482   2.914   5.411   6.740  0.6069  2.3628  1.5945
  157SAPE   C2417483   2.847   5.411   6.944 -0.0574 -0.4550  0.5859
  157SAPE   H4R17484   2.770   5.349   6.994 -0.9663  0.3208  0.1869
  157SAPE   H4S17485   2.822   5.517   6.967  3.0034  0.7735 -1.1746
  157SAPE   C2517486   2.984   5.382   6.989 -0.5007 -0.1772 -0.1288
  157SAPE   H5R17487   3.063   5.411   6.918 -0.0025  0.5447  0.7002
  157SAPE   C2617488   3.025   5.317   7.099  0.0900  0.0972 -0.6853
  157SAPE   H6R17489   3.130   5.283   7.102 -0.2248 -0.8160  0.8510
  157SAPE   C2717490   2.947   5.247   7.210 -0.4030  0.0073 -0.5815
  157SAPE   H7R17491   2.985   5.143   7.214  1.6166  0.7340 -0.1665
  157SAPE   H7S17492   2.842   5.239   7.174 -1.2901  2.5288  1.1233
  157SAPE   C2817493   2.949   5.309   7.343 -0.1753  0.6403 -0.0609
  157SAPE   H8R17494   2.919   5.415   7.352 -0.7616  0.4072  0.8367
  157SAPE   C2917495   2.985   5.263   7.469 -0.4873  0.2608  0.6510
  157SAPE   H9R17496   2.988   5.336   7.552  3.0705 -1.0032  1.8073
  157SAPE  C21017497   3.042   5.130   7.498 -0.6150  0.4122  0.1945
  157SAPE  H10R17498   3.086   5.094   7.402  0.0565  2.0149 -0.1249
  157SAPE  H10S17499   2.958   5.060   7.515  0.7181 -1.0228  1.0707
  157SAPE  C21117500   3.152   5.121   7.601 -0.6678 -0.1155 -0.1688
  157SAPE  H11R17501   3.254   5.102   7.566 -0.0021  2.0196  0.4601
  157SAPE  C21217502   3.142   5.125   7.736 -0.7054 -0.0314 -0.7021
  157SAPE  H12R17503   3.234   5.113   7.795 -0.1891 -1.6332 -1.7729
  157SAPE  C21317504   3.016   5.122   7.823 -0.0921 -0.1500 -0.0124
  157SAPE  H13R17505   3.037   5.068   7.918  2.3094  0.4892 -0.1142
  157SAPE  H13S17506   2.942   5.065   7.763  1.7638 -1.4662 -1.1497
  157SAPE  C21417507   2.958   5.260   7.856  0.0533  0.1687 -0.5044
  157SAPE  H14R17508   2.916   5.315   7.770  1.5031  1.8850 -0.1833
  157SAPE  C21517509   2.951   5.324   7.980  0.1965  0.3342  0.2145
  157SAPE  H15R17510   2.911   5.425   7.994  0.2690  0.1994  1.6079
  157SAPE  C21617511   3.008   5.251   8.102 -0.0531  0.3056  0.7399
  157SAPE  H16R17512   3.056   5.331   8.163 -1.6438  2.3867 -0.5815
  157SAPE  H16S17513   3.082   5.170   8.087  0.9986  1.5166 -0.9579
  157SAPE  C21717514   2.891   5.206   8.190  0.0427  0.3818 -0.4004
  157SAPE  H17R17515   2.928   5.156   8.282 -4.1670 -0.2878  1.1494
  157SAPE  H17S17516   2.827   5.137   8.130  0.6046 -0.2205 -0.3192
  157SAPE  C21817517   2.798   5.324   8.249  0.2050  0.3288  0.5008
  157SAPE  H18R17518   2.692   5.295   8.269  0.0946 -0.7874 -1.4303
  157SAPE  H18S17519   2.789   5.403   8.171  1.8878  0.9789  0.9130
  157SAPE  C21917520   2.846   5.390   8.379 -0.1661  0.3584  0.6292
  157SAPE  H19R17521   2.935   5.451   8.353 -0.1179 -0.3994 -1.0806
  157SAPE  H19S17522   2.876   5.303   8.441 -2.1002 -0.7920  0.0537
  157SAPE  C22017523   2.748   5.482   8.463  0.0293  0.2210 -0.1394
  157SAPE  H20R17524   2.794   5.509   8.560 -1.3874 -0.4365  0.7372
  157SAPE  H20S17525   2.650   5.434   8.483  0.4316 -0.4224  0.3188
  157SAPE  H20T17526   2.747   5.579   8.408  1.2715  0.3586  0.0347
  157SAPE   C3317527   2.280   4.997   6.786 -0.4526  0.4063 -0.5944
  157SAPE   H3X17528   2.195   5.068   6.785 -1.0909 -0.3191  0.4647
  157SAPE   H3Y17529   2.366   5.021   6.853 -0.5981 -1.2942  0.2508
  157SAPE   C3417530   2.209   4.868   6.847  0.2100  1.3974  0.4879
  157SAPE   H4X17531   2.281   4.783   6.838 -0.3486  1.1713 -3.7118
  157SAPE   H4Y17532   2.115   4.833   6.801  0.3485  0.2213  1.0410
  157SAPE   C3517533   2.172   4.884   7.000 -0.3780 -0.2398 -0.0732
  157SAPE   H5X17534   2.090   4.959   7.003 -0.2191  0.0901 -2.2396
  157SAPE   H5Y17535   2.261   4.915   7.058 -0.0501 -2.0959  0.5045
  157SAPE   C3617536   2.120   4.756   7.055 -0.5041  0.2146 -0.0459
  157SAPE   H6X17537   2.175   4.679   6.997  1.4468  0.9202  0.8127
  157SAPE   H6Y17538   2.012   4.742   7.030 -0.2856  0.0395 -0.9308
  157SAPE   C3717539   2.151   4.727   7.200 -0.1838 -0.3914  0.3017
  157SAPE   H7X17540   2.258   4.740   7.228  0.2032  2.1356 -1.9738
  157SAPE   H7Y17541   2.120   4.622   7.217  1.8517 -1.8325 -3.6250
  157SAPE   C3817542   2.073   4.828   7.292 -0.2927  0.7404  0.0361
  157SAPE   H8X17543   1.969   4.820   7.254 -0.4047 -2.7001  0.6673
  157SAPE   H8Y17544   2.113   4.931   7.285 -0.6710  0.8372 -0.7599
  157SAPE   C3917545   2.081   4.784   7.440  0.0983  0.0729  0.3488
  157SAPE   H9X17546   2.187   4.795   7.472  0.7758 -2.7656 -0.5490
  157SAPE   H9Y17547   2.048   4.678   7.431  1.4621 -0.1870 -3.3739
  157SAPE  C31017548   1.997   4.874   7.537 -0.8993 -0.2025 -0.0799
  157SAPE  H10X17549   1.894   4.879   7.497  0.2539 -2.1847 -3.8017
  157SAPE  H10Y17550   2.035   4.978   7.525  0.1225 -0.2973  1.9269
  157SAPE  C31117551   1.999   4.840   7.686  0.4085  0.1810 -0.2095
  157SAPE  H11X17552   2.105   4.813   7.707 -0.0681 -1.6318 -0.0484
  157SAPE  H11Y17553   1.936   4.750   7.698  0.6443 -0.4630 -3.0765
  157SAPE  C31217554   1.959   4.951   7.793  0.0520 -0.2074  0.2436
  157SAPE  H12X17555   1.848   4.956   7.795  0.0108 -0.2888 -1.0807
  157SAPE  H12Y17556   1.986   5.054   7.761  2.2053 -0.6394  0.5244
  157SAPE  C31317557   2.019   4.923   7.937  0.9038 -0.3787 -0.3470
  157SAPE  H13X17558   2.000   5.009   8.005 -0.4701 -0.8830 -0.0808
  157SAPE  H13Y17559   2.130   4.911   7.930  0.9855  0.6207 -1.1972
  157SAPE  C31417560   1.946   4.808   8.008 -0.3953 -0.2320 -0.2643
  157SAPE  H14X17561   1.964   4.712   7.954  1.3495 -0.6909  1.0288
  157SAPE  H14Y17562   1.836   4.815   8.006 -0.3817  0.0716 -1.9597
  157SAPE  C31517563   2.003   4.791   8.156  0.0178  0.2943  0.5477
  157SAPE  H15X17564   2.000   4.886   8.213 -0.9433 -0.5739  1.9982
  157SAPE  H15Y17565   2.104   4.746   8.164 -0.8743 -1.6909  1.0255
  157SAPE  C31617566   1.917   4.694   8.242 -0.3622 -0.3435 -0.1013
  157SAPE  H16X17567   1.816   4.739   8.245 -0.9114 -1.5432 -0.2826
  157SAPE  H16Y17568   1.953   4.690   8.347  2.3669  0.3815 -0.9045
  157SAPE  C31717569   1.907   4.550   8.180 -0.3018  0.1687 -0.0495
  157SAPE  H17X17570   2.008   4.510   8.156  0.8178  2.6068  0.3555
  157SAPE  H17Y17571   1.846   4.561   8.088  0.5352  3.7489 -0.3097
  157SAPE  C31817572   1.836   4.449   8.272  0.0989 -0.1720 -0.1044
  157SAPE  H18X17573   1.806   4.360   8.214  3.0112 -0.1478 -1.7730
  157SAPE  H18Y17574   1.740   4.493   8.310 -0.1172 -1.8185  1.3931
  157SAPE  H18Z17575   1.898   4.421   8.360 -0.6033 -0.6830  0.2398
  158SAPE     N17576   2.742   1.116   6.365 -0.7128 -0.0244  0.1297
  158SAPE   HN117577   2.681   1.056   6.306  1.6455 -1.1480 -1.2715
  158SAPE   HN217578   2.802   1.173   6.302 -1.0748  1.6427  1.2038
  158SAPE   HN317579   2.811   1.057   6.415  1.2100  2.6608  0.9127
  158SAPE   C1217580   2.671   1.205   6.468  0.6748 -0.6713 -0.0302
  158SAPE  H12A17581   2.722   1.304   6.478  0.4509 -0.7006  1.7961
  158SAPE  H12B17582   2.673   1.160   6.569 -0.9029  1.0738  0.8452
  158SAPE   C1117583   2.523   1.238   6.432  0.8025  1.1553 -0.3395
  158SAPE  H11A17584   2.472   1.287   6.517 -1.1279 -0.7129 -0.3356
  158SAPE  H11B17585   2.472   1.140   6.417  0.2753  1.4097 -0.2346
  158SAPE     P17586   2.525   1.472   6.301 -0.3835  0.1205 -0.0850
  158SAPE   O1317587   2.654   1.507   6.249  0.0925  0.0601  0.9831
  158SAPE   O1417588   2.402   1.524   6.236 -0.2377 -0.3002 -0.1864
  158SAPE   O1217589   2.514   1.310   6.310 -0.0536 -0.7294 -0.1050
  158SAPE   O1117590   2.523   1.519   6.455  0.0907 -0.2653  0.5639
  158SAPE    C117591   2.569   1.652   6.487 -0.0626  0.4933 -0.2437
  158SAPE    HA17592   2.556   1.731   6.410  2.2820 -0.0402 -1.2637
  158SAPE    HB17593   2.505   1.681   6.573 -0.8698  0.5278 -0.8358
  158SAPE    C217594   2.720   1.642   6.532  0.9116 -0.2327  0.1551
  158SAPE    HS17595   2.768   1.585   6.450  1.0317  1.8534 -1.2963
  158SAPE   O2117596   2.722   1.569   6.655 -0.4754  0.2509 -0.4125
  158SAPE   C2117597   2.824   1.502   6.687 -0.1197  0.6131  0.3479
  158SAPE   O2217598   2.920   1.475   6.617 -0.3400  0.2395 -0.2451
  158SAPE   C2217599   2.818   1.462   6.840 -0.6228  0.3140  0.2771
  158SAPE   H2R17600   2.841   1.551   6.902 -2.0887  1.7737 -1.1952
  158SAPE   H2S17601   2.712   1.431   6.854 -0.0332 -1.6794  0.7528
  158SAPE    C317602   2.796   1.772   6.537  1.0396  0.1645  0.0399
  158SAPE    HX17603   2.785   1.809   6.433  1.2370 -0.0728 -0.0662
  158SAPE    HY17604   2.905   1.759   6.552  0.8116 -0.9929  0.8733
  158SAPE   O3117605   2.724   1.858   6.625  0.1046 -0.7437  0.6105
  158SAPE   C3117606   2.760   1.864   6.753 -0.0690 -0.3440 -0.2858
  158SAPE   O3217607   2.824   1.778   6.811  0.2680  0.6272 -0.3998
  158SAPE   C3217608   2.691   1.981   6.827 -0.1568 -0.1633  1.0483
  158SAPE   H2X17609   2.593   1.997   6.776  0.7370 -1.0994 -1.0841
  158SAPE   H2Y17610   2.756   2.069   6.810 -3.0170  1.8136 -0.7052
  158SAPE   C2317611   2.919   1.342   6.885  0.4520 -0.0094 -0.0377
  158SAPE   H3R17612   2.985   1.313   6.801  1.6085  0.7889  0.5774
  158SAPE   H3S17613   2.855   1.257   6.918  1.0050 -0.4882 -0.1940
  158SAPE   C2417614   3.011   1.389   6.997 -0.0209  0.2809 -0.5519
  158SAPE   H4R17615   3.047   1.290   7.032 -0.9304  1.0055  2.7331
  158SAPE   H4S17616   2.939   1.424   7.073  0.4251 -0.8225  0.4031
  158SAPE   C2517617   3.124   1.481   6.950 -0.3565  0.0718  0.3007
  158SAPE   H5R17618   3.208   1.436   6.895 -0.1338 -0.0266  0.7237
  158SAPE   C2617619   3.149   1.605   6.992  0.1574  0.4848  0.2062
  158SAPE   H6R17620   3.243   1.653   6.961  0.1143  1.2744  1.2747
  158SAPE   C2717621   3.069   1.676   7.091  0.2259  0.1024  0.6388
  158SAPE   H7R17622   3.018   1.608   7.163  1.0381 -0.2506  0.8878
  158SAPE   H7S17623   2.995   1.733   7.031 -0.1339  1.4636  2.2834
  158SAPE   C2817624   3.151   1.779   7.167  0.3016 -0.4027  0.6308
  158SAPE   H8R17625   3.210   1.851   7.107  1.2249 -0.3306  1.6044
  158SAPE   C2917626   3.145   1.801   7.300 -0.0620  0.1222  0.4964
  158SAPE   H9R17627   3.214   1.875   7.343  0.7349 -1.2663  1.7209
  158SAPE  C21017628   3.063   1.718   7.394 -0.0566 -0.6239 -0.7593
  158SAPE  H10R17629   3.121   1.628   7.425  1.2715 -1.0235 -3.9779
  158SAPE  H10S17630   2.979   1.660   7.350  0.8294 -2.0878 -0.5885
  158SAPE  C21117631   3.021   1.794   7.511  0.4477  0.3781 -0.3841
  158SAPE  H11R17632   2.953   1.877   7.489  0.6570  0.1180 -2.1418
  158SAPE  C21217633   3.069   1.776   7.631 -0.6825 -0.4803  0.2702
  158SAPE  H12R17634   3.027   1.848   7.702  0.0331  0.4770 -0.2543
  158SAPE  C21317635   3.178   1.686   7.688  0.2339 -0.4383  0.0291
  158SAPE  H13R17636   3.278   1.721   7.652  0.1326  1.5482  1.5150
  158SAPE  H13S17637   3.172   1.581   7.654  0.0742 -0.2114 -0.6731
  158SAPE  C21417638   3.177   1.686   7.842 -0.8652  0.0234  0.4142
  158SAPE  H14R17639   3.082   1.729   7.879 -0.6541  2.5935 -1.6723
  158SAPE  C21517640   3.279   1.665   7.928 -0.4678  0.5583  0.8209
  158SAPE  H15R17641   3.253   1.665   8.036 -2.1280 -2.5384  0.5586
  158SAPE  C21617642   3.421   1.624   7.897 -0.3063 -0.2025  0.4696
  158SAPE  H16R17643   3.484   1.716   7.907  0.0986 -0.1651 -1.8584
  158SAPE  H16S17644   3.431   1.598   7.790 -0.9486  1.0558  0.0794
  158SAPE  C21717645   3.465   1.508   7.983  0.1864 -0.0925  0.2787
  158SAPE  H17R17646   3.396   1.424   7.958 -0.2816  0.3818 -0.0404
  158SAPE  H17S17647   3.446   1.549   8.084  0.9944  0.4345  0.2258
  158SAPE  C21817648   3.616   1.477   7.955 -0.8259 -0.1149  0.2392
  158SAPE  H18R17649   3.663   1.570   7.992 -1.9929  0.9131 -0.7712
  158SAPE  H18S17650   3.635   1.485   7.846  0.4353  2.2990  0.5861
  158SAPE  C21917651   3.666   1.352   8.020 -0.4223  1.0252 -0.0841
  158SAPE  H19R17652   3.765   1.336   7.972 -1.0084 -1.1203 -0.7246
  158SAPE  H19S17653   3.599   1.267   7.995 -0.4009  0.6743  1.0180
  158SAPE  C22017654   3.679   1.357   8.171  0.7337  0.7500 -0.6081
  158SAPE  H20R17655   3.583   1.344   8.225  0.2433  1.0932 -1.3748
  158SAPE  H20S17656   3.717   1.451   8.217 -1.1827  0.6660  1.3143
  158SAPE  H20T17657   3.737   1.273   8.214 -2.8002 -1.0504  1.0338
  158SAPE   C3317658   2.663   1.954   6.971 -0.2198  0.2613  0.0394
  158SAPE   H3X17659   2.638   2.048   7.025 -3.1298  0.3275 -1.2360
  158SAPE   H3Y17660   2.753   1.910   7.019 -1.2916 -2.1005 -0.0005
  158SAPE   C3417661   2.554   1.848   7.001  0.6053  0.7460  0.6224
  158SAPE   H4X17662   2.587   1.749   6.961  0.7032  1.1958 -0.4489
  158SAPE   H4Y17663   2.461   1.873   6.945 -0.6854  0.8937  2.7208
  158SAPE   C3517664   2.507   1.835   7.147  0.6795 -0.5061 -0.4685
  158SAPE   H5X17665   2.420   1.766   7.155  0.1018  0.3108  0.6093
  158SAPE   H5Y17666   2.484   1.937   7.186  0.4549 -1.1847  1.2603
  158SAPE   C3617667   2.617   1.790   7.241 -0.5156  0.2759  0.0466
  158SAPE   H6X17668   2.703   1.857   7.260 -0.9139  0.3598  1.7102
  158SAPE   H6Y17669   2.655   1.694   7.201  0.4592  0.6431  0.0692
  158SAPE   C3717670   2.551   1.755   7.373 -0.0345  0.2587 -0.3638
  158SAPE   H7X17671   2.490   1.842   7.406 -0.4218  0.1460 -0.7591
  158SAPE   H7Y17672   2.488   1.666   7.351 -0.3674  0.2220  0.6955
  158SAPE   C3817673   2.657   1.717   7.475 -0.1631 -0.1066 -0.0141
  158SAPE   H8X17674   2.718   1.806   7.501  0.6814 -0.6693 -0.0540
  158SAPE   H8Y17675   2.730   1.647   7.431  0.3458 -0.2723  1.0619
  158SAPE   C3917676   2.585   1.651   7.599  0.0265 -0.0670  0.0686
  158SAPE   H9X17677   2.524   1.565   7.562 -0.4743  0.7219 -0.9976
  158SAPE   H9Y17678   2.519   1.726   7.647 -0.2656 -1.1911  1.4810
  158SAPE  C31017679   2.679   1.604   7.710  0.6131  0.4904  0.5211
  158SAPE  H10X17680   2.738   1.694   7.738  0.0670  0.9533  0.2112
  158SAPE  H10Y17681   2.744   1.517   7.686 -1.0986 -1.0494  1.2234
  158SAPE  C31117682   2.582   1.568   7.825  0.4358 -0.6311 -0.8980
  158SAPE  H11X17683   2.508   1.487   7.805  0.0543 -0.5856  0.2410
  158SAPE  H11Y17684   2.524   1.658   7.853 -0.5423 -1.5707  0.1847
  158SAPE  C31217685   2.671   1.536   7.948 -0.6045  0.4748  0.5147
  158SAPE  H12X17686   2.740   1.619   7.974  1.2008 -0.9474  0.4672
  158SAPE  H12Y17687   2.737   1.449   7.927  1.0333  1.8721 -0.3087
  158SAPE  C31317688   2.587   1.495   8.073  0.8195 -0.7167 -0.1305
  158SAPE  H13X17689   2.500   1.432   8.044  0.3859 -0.2104  0.0399
  158SAPE  H13Y17690   2.548   1.590   8.115  1.3282  0.0562 -1.3656
  158SAPE  C31417691   2.670   1.415   8.169 -0.6746 -0.0267 -0.2265
  158SAPE  H14X17692   2.773   1.451   8.185 -0.1693 -0.6121 -1.9405
  158SAPE  H14Y17693   2.679   1.308   8.140 -1.7191 -0.0091 -0.6697
  158SAPE  C31517694   2.622   1.406   8.316 -0.0545 -0.3693  0.1270
  158SAPE  H15X17695   2.698   1.351   8.376 -0.4032  0.2303  1.1497
  158SAPE  H15Y17696   2.527   1.349   8.324 -1.1447  0.6274 -3.7195
  158SAPE  C31617697   2.595   1.539   8.379  0.1056  0.0800 -0.0724
  158SAPE  H16X17698   2.496   1.575   8.344 -0.2237 -0.0869  0.6672
  158SAPE  H16Y17699   2.672   1.618   8.360  0.6906 -0.5000 -0.1590
  158SAPE  C31717700   2.594   1.547   8.531 -0.2286  0.7059 -0.6111
  158SAPE  H17X17701   2.575   1.654   8.551  0.7487  0.6694  0.6225
  158SAPE  H17Y17702   2.699   1.528   8.563  0.1731 -0.9251 -2.6356
  158SAPE  C31817703   2.499   1.456   8.602  0.4663 -0.7152 -0.1121
  158SAPE  H18X17704   2.516   1.461   8.712 -1.8622 -0.2619  0.2802
  158SAPE  H18Y17705   2.520   1.351   8.574  1.3984 -1.3494  2.6033
  158SAPE  H18Z17706   2.392   1.479   8.578  0.6679 -0.8490 -1.1636
  159SAPE     N17707   6.323   0.007   6.266  0.2786  0.4220  0.1262
  159SAPE   HN117708   6.379  -0.074   6.299  0.1628  1.0557  2.0026
  159SAPE   HN217709   6.238  -0.033   6.223  0.7706 -2.4431  1.6050
  159SAPE   HN317710   6.380   0.039   6.184  1.3603 -1.8133 -0.0832
  159SAPE   C1217711   6.284   0.099   6.372 -0.7182  0.7033  0.3721
  159SAPE  H12A17712   6.292   0.051   6.472 -0.5341 -0.9059 -0.3800
  159SAPE  H12B17713   6.182   0.135   6.348 -0.3329  1.1216 -0.6843
  159SAPE   C1117714   6.380   0.225   6.377  0.6533 -0.3410 -0.4139
  159SAPE  H11A17715   6.471   0.181   6.421  1.4125 -0.3717 -1.9301
  159SAPE  H11B17716   6.329   0.296   6.446  2.4835  1.0273 -0.4076
  159SAPE     P17717   6.550   0.270   6.189  0.6855  0.0288  0.3681
  159SAPE   O1317718   6.574   0.127   6.191  0.6204  0.1345 -0.6137
  159SAPE   O1417719   6.546   0.351   6.065 -0.1102  0.0124 -0.3315
  159SAPE   O1217720   6.403   0.298   6.254 -0.3295  0.1524 -0.8793
  159SAPE   O1117721   6.645   0.329   6.298 -0.1927  0.1414  0.4841
  159SAPE    C117722   6.606   0.442   6.378  0.3388  0.2468 -0.2871
  159SAPE    HA17723   6.577   0.530   6.317  2.6067  0.1460 -1.6519
  159SAPE    HB17724   6.529   0.414   6.452  0.1746  0.5209 -0.3528
  159SAPE    C217725   6.728   0.489   6.466  0.7153 -1.2466 -0.4657
  159SAPE    HS17726   6.802   0.539   6.399 -0.0411 -0.2926 -0.6128
  159SAPE   O2117727   6.798   0.379   6.526  0.0912  0.6040 -0.1427
  159SAPE   C2117728   6.915   0.416   6.572  0.2856  0.4402 -0.3037
  159SAPE   O2217729   6.952   0.531   6.586 -0.1705 -0.2710  0.3641
  159SAPE   C2217730   6.991   0.289   6.626 -0.8462  0.3306  0.6980
  159SAPE   H2R17731   6.910   0.215   6.643 -0.1707 -0.9799 -1.3468
  159SAPE   H2S17732   7.056   0.253   6.543  1.5424  1.8065  1.8086
  159SAPE    C317733   6.675   0.595   6.572  0.7547 -0.5464 -0.6939
  159SAPE    HX17734   6.654   0.685   6.511 -1.9166 -0.1059  0.6778
  159SAPE    HY17735   6.751   0.626   6.646 -0.7014  2.1755 -0.2074
  159SAPE   O3117736   6.553   0.554   6.645 -0.0935  0.5904  0.4526
  159SAPE   C3117737   6.447   0.631   6.642 -0.6956 -0.4143  0.0503
  159SAPE   O3217738   6.454   0.746   6.590  1.0922 -0.0002 -0.6316
  159SAPE   C3217739   6.327   0.559   6.708  0.3237 -0.0162 -0.1621
  159SAPE   H2X17740   6.368   0.490   6.784  1.2582  0.7376  0.0346
  159SAPE   H2Y17741   6.271   0.500   6.632 -0.4989  0.0630  0.3685
  159SAPE   C2317742   7.088   0.317   6.745 -0.1818 -0.9725 -0.1238
  159SAPE   H3R17743   7.174   0.370   6.701 -0.0385  0.9588  2.2948
  159SAPE   H3S17744   7.128   0.219   6.778 -3.1423 -1.9583  0.9256
  159SAPE   C2417745   7.027   0.391   6.870  1.0584 -0.9190 -0.2203
  159SAPE   H4R17746   6.971   0.485   6.855  2.3707 -0.1466 -0.3810
  159SAPE   H4S17747   7.122   0.426   6.914  0.7008  1.3212 -1.1401
  159SAPE   C2517748   6.943   0.307   6.958  0.0628 -0.2652  0.0751
  159SAPE   H5R17749   6.842   0.279   6.924  0.0992  0.6629 -0.8663
  159SAPE   C2617750   6.990   0.243   7.065 -0.4968 -0.0605 -0.5215
  159SAPE   H6R17751   6.915   0.191   7.127  1.1667  0.0023  1.6709
  159SAPE   C2717752   7.123   0.229   7.135  0.4128 -0.1042  0.7930
  159SAPE   H7R17753   7.135   0.306   7.215  1.9396 -0.2134  0.6942
  159SAPE   H7S17754   7.200   0.253   7.059 -3.2663  0.8062 -3.0580
  159SAPE   C2817755   7.138   0.081   7.173 -0.1630 -0.2244 -0.3797
  159SAPE   H8R17756   7.128   0.001   7.098  2.4099 -0.1186 -0.9297
  159SAPE   C2917757   7.176   0.042   7.295 -0.0376  0.3834  0.1582
  159SAPE   H9R17758   7.187  -0.064   7.323 -0.6048  0.6396  1.4316
  159SAPE  C21017759   7.186   0.130   7.417  0.3450  0.0901  0.3527
  159SAPE  H10R17760   7.082   0.161   7.441 -0.9418 -2.7290 -1.0578
  159SAPE  H10S17761   7.234   0.228   7.398 -0.1632  1.1481  3.8287
  159SAPE  C21117762   7.247   0.063   7.535  0.0835  0.0052  0.3885
  159SAPE  H11R17763   7.354   0.088   7.538 -0.3452  2.7977 -2.6045
  159SAPE  C21217764   7.193  -0.010   7.632  0.7376  0.8906  0.4776
  159SAPE  H12R17765   7.250  -0.043   7.720 -2.9159 -1.2802  2.2473
  159SAPE  C21317766   7.043  -0.045   7.636 -0.5119 -0.4924 -0.0819
  159SAPE  H13R17767   7.030  -0.146   7.682  1.9547 -0.7960  0.0880
  159SAPE  H13S17768   6.995  -0.052   7.536 -1.2761 -4.6587  0.3723
  159SAPE  C21417769   6.977   0.063   7.721  0.3159 -0.2042 -0.1564
  159SAPE  H14R17770   6.959   0.153   7.660 -1.0976 -1.5267 -1.7825
  159SAPE  C21517771   6.921   0.049   7.841 -0.1333  0.2512 -0.3701
  159SAPE  H15R17772   6.886   0.142   7.889  0.9636  0.4838  0.0095
  159SAPE  C21617773   6.931  -0.071   7.927  0.6034 -1.4083  0.2713
  159SAPE  H16R17774   7.015  -0.139   7.901  2.8331  1.1656  0.3486
  159SAPE  H16S17775   6.833  -0.121   7.909 -0.4374  1.2677 -2.2164
  159SAPE  C21717776   6.956  -0.034   8.073 -0.3570 -0.4509  0.7538
  159SAPE  H17R17777   6.979  -0.130   8.124  1.4671 -0.1435  0.5645
  159SAPE  H17S17778   6.866   0.013   8.117 -0.1806 -0.5489  1.2293
  159SAPE  C21817779   7.076   0.062   8.097  0.4486 -0.5744 -0.3719
  159SAPE  H18R17780   7.061   0.160   8.047 -0.2007 -0.6236 -0.2891
  159SAPE  H18S17781   7.175   0.021   8.071  0.5426 -1.1591  0.8220
  159SAPE  C21917782   7.096   0.097   8.251 -0.0807 -0.2177 -0.8601
  159SAPE  H19R17783   7.094  -0.001   8.305  5.0811  0.5789  1.3893
  159SAPE  H19S17784   7.020   0.169   8.286  1.5025  1.5711 -0.9469
  159SAPE  C22017785   7.227   0.172   8.278 -0.5981 -0.2339 -0.1110
  159SAPE  H20R17786   7.249   0.193   8.385  1.5871 -0.2315 -0.5257
  159SAPE  H20S17787   7.218   0.265   8.218  2.5123  0.4565  0.2890
  159SAPE  H20T17788   7.315   0.112   8.247 -0.7593 -0.2380 -0.5526
  159SAPE   C3317789   6.231   0.660   6.781 -0.3202  0.4649  0.0387
  159SAPE   H3X17790   6.135   0.604   6.784 -1.3830  2.0287 -1.9138
  159SAPE   H3Y17791   6.224   0.753   6.720  0.7297 -0.6848 -1.9448
  159SAPE   C3417792   6.268   0.690   6.928  0.3733 -0.9928  0.1660
  159SAPE   H4X17793   6.198   0.772   6.955 -0.8150 -1.3019 -1.7989
  159SAPE   H4Y17794   6.373   0.727   6.937 -0.0158  1.0974 -2.5284
  159SAPE   C3517795   6.236   0.582   7.029 -0.4681  0.6792  0.1004
  159SAPE   H5X17796   6.314   0.504   7.017 -0.9243  0.3151 -0.5998
  159SAPE   H5Y17797   6.131   0.544   7.031 -0.7667  1.4106  2.9696
  159SAPE   C3617798   6.261   0.624   7.171  0.2906  0.8641 -0.2040
  159SAPE   H6X17799   6.202   0.718   7.183 -1.3076 -0.0817 -0.3543
  159SAPE   H6Y17800   6.367   0.654   7.183  0.4179  0.3242  0.0524
  159SAPE   C3717801   6.226   0.522   7.284 -0.2845  0.8837  0.1144
  159SAPE   H7X17802   6.278   0.425   7.272 -2.0043  0.0492 -1.0592
  159SAPE   H7Y17803   6.118   0.496   7.273  0.1262 -1.4415  1.1555
  159SAPE   C3817804   6.255   0.581   7.424 -0.1040  0.0843 -0.1810
  159SAPE   H8X17805   6.183   0.665   7.428 -0.1690  0.2336 -2.8813
  159SAPE   H8Y17806   6.355   0.623   7.445 -1.3805  2.9434  0.6880
  159SAPE   C3917807   6.222   0.482   7.530  0.2413 -0.5556  0.0568
  159SAPE   H9X17808   6.288   0.393   7.541 -0.8634 -1.3040  0.8354
  159SAPE   H9Y17809   6.131   0.428   7.497 -0.6565  1.2990 -0.6145
  159SAPE  C31017810   6.210   0.552   7.666 -0.4292 -0.2281 -0.3168
  159SAPE  H10X17811   6.144   0.642   7.664 -1.4208 -0.7827  2.5676
  159SAPE  H10Y17812   6.305   0.602   7.693 -0.1635  0.0282 -1.6426
  159SAPE  C31117813   6.173   0.462   7.793  0.0026  0.6333  0.1845
  159SAPE  H11X17814   6.253   0.386   7.801 -0.8966 -0.1844  2.1083
  159SAPE  H11Y17815   6.084   0.398   7.773  0.7136  0.6608 -4.0670
  159SAPE  C31217816   6.181   0.541   7.919 -0.6301  0.4002 -0.3971
  159SAPE  H12X17817   6.277   0.582   7.958 -0.1658  0.1239 -1.2108
  159SAPE  H12Y17818   6.165   0.463   7.997  0.5815  1.1968  0.7018
  159SAPE  C31317819   6.076   0.645   7.937  0.3211  0.4057  0.0277
  159SAPE  H13X17820   5.983   0.601   7.894 -0.2762  1.8407 -0.2211
  159SAPE  H13Y17821   6.106   0.734   7.877  0.9464  0.4874  0.4532
  159SAPE  C31417822   6.047   0.670   8.086  0.4910 -0.1042 -0.2997
  159SAPE  H14X17823   6.138   0.698   8.143 -1.0092  2.2536  1.1242
  159SAPE  H14Y17824   5.995   0.578   8.121 -2.3446  1.0623 -1.1521
  159SAPE  C31517825   5.943   0.792   8.100 -0.2084 -0.5965  0.0381
  159SAPE  H15X17826   5.840   0.752   8.089  0.1817 -1.8944  0.8955
  159SAPE  H15Y17827   5.958   0.875   8.028 -0.8831  0.1988  0.7937
  159SAPE  C31617828   5.963   0.838   8.245  0.8851 -0.8697 -0.2268
  159SAPE  H16X17829   6.072   0.845   8.265  0.9566  2.6454 -1.3590
  159SAPE  H16Y17830   5.917   0.756   8.305  1.3692 -0.8428  0.1826
  159SAPE  C31717831   5.885   0.967   8.270  0.4490 -0.5376  0.6488
  159SAPE  H17X17832   5.868   0.966   8.380 -0.0055 -0.3109  0.5836
  159SAPE  H17Y17833   5.788   0.981   8.219  0.8513 -1.0646 -0.2650
  159SAPE  C31817834   5.974   1.086   8.246  0.0658  0.0956 -0.7971
  159SAPE  H18X17835   5.929   1.178   8.289 -4.3991 -1.8608 -0.7576
  159SAPE  H18Y17836   5.990   1.101   8.137 -2.4690 -0.1380 -1.2638
  159SAPE  H18Z17837   6.071   1.070   8.298 -0.8860 -1.9968  0.4634
  160SAPE     N17838   4.950   0.121   5.907  0.2058  0.2414 -0.3528
  160SAPE   HN117839   4.929   0.053   5.831  0.4697 -0.2949  0.0478
  160SAPE   HN217840   4.968   0.216   5.868 -1.2744  1.6238  2.1036
  160SAPE   HN317841   5.023   0.082   5.970 -0.7032 -0.8223  0.0784
  160SAPE   C1217842   4.832   0.137   6.001 -0.3390 -0.2874 -0.8496
  160SAPE  H12A17843   4.782   0.040   6.025 -2.7512  1.6258  2.7397
  160SAPE  H12B17844   4.753   0.201   5.956 -2.5641 -0.3837  2.5720
  160SAPE   C1117845   4.867   0.194   6.140  0.3001 -1.1426 -0.0926
  160SAPE  H11A17846   4.783   0.202   6.213 -0.3855 -0.3488 -0.9363
  160SAPE  H11B17847   4.895   0.300   6.120  5.1505 -1.9730  1.1231
  160SAPE     P17848   5.076   0.188   6.309  0.3265  0.2647  0.2590
  160SAPE   O1317849   5.167   0.080   6.347 -0.3241  0.0187  0.1487
  160SAPE   O1417850   5.130   0.318   6.259 -0.2868  0.1523  0.2021
  160SAPE   O1217851   4.987   0.128   6.191  0.0216 -0.1109 -0.1069
  160SAPE   O1117852   4.977   0.226   6.425  0.0387 -1.2727 -0.6906
  160SAPE    C117853   4.941   0.126   6.522 -0.1417  0.5698 -0.0534
  160SAPE    HA17854   4.831   0.115   6.516 -0.2077  0.3818  1.3110
  160SAPE    HB17855   4.984   0.026   6.498 -3.5577 -1.7982  2.7848
  160SAPE    C217856   4.983   0.161   6.662  0.3461  0.8091 -1.0354
  160SAPE    HS17857   4.951   0.072   6.720  1.8933  0.5349 -0.5481
  160SAPE   O2117858   4.915   0.277   6.711  0.5282  0.3132  0.5640
  160SAPE   C2117859   4.790   0.265   6.745  0.7092  0.0851  0.2788
  160SAPE   O2217860   4.719   0.165   6.723 -0.1575  0.2556  0.2643
  160SAPE   C2217861   4.740   0.385   6.834  0.0888 -0.1252  0.3255
  160SAPE   H2R17862   4.821   0.462   6.839 -0.2605  0.4989 -2.3452
  160SAPE   H2S17863   4.660   0.430   6.771 -0.4549 -2.0076 -0.3809
  160SAPE    C317864   5.143   0.183   6.678 -0.2471 -0.3957 -0.2796
  160SAPE    HX17865   5.159   0.278   6.622  1.1278  1.3010  2.7905
  160SAPE    HY17866   5.194   0.103   6.621  1.4733  1.2173 -1.0975
  160SAPE   O3117867   5.180   0.201   6.816 -0.0171 -0.0914  0.3003
  160SAPE   C3117868   5.238   0.091   6.872 -0.1432  0.2209 -0.5018
  160SAPE   O3217869   5.239  -0.018   6.823 -0.4732  0.6540 -0.3084
  160SAPE   C3217870   5.277   0.128   7.012 -0.7079  0.3091  0.0023
  160SAPE   H2X17871   5.186   0.172   7.059 -0.7162 -1.9566  2.3084
  160SAPE   H2Y17872   5.357   0.204   7.003 -1.7469  1.1765 -4.5965
  160SAPE   C2317873   4.697   0.351   6.973  0.6957  0.2779 -0.6317
  160SAPE   H3R17874   4.667   0.244   6.972 -2.1076  0.9804 -1.0039
  160SAPE   H3S17875   4.608   0.416   6.990 -0.9238 -1.2941 -2.6349
  160SAPE   C2417876   4.808   0.379   7.079 -0.2411 -0.2314  0.5557
  160SAPE   H4R17877   4.846   0.484   7.074  1.9996 -0.9943  0.8229
  160SAPE   H4S17878   4.887   0.304   7.060 -0.2363 -0.0265 -0.3134
  160SAPE   C2517879   4.756   0.349   7.217 -0.4334 -0.1680 -0.8074
  160SAPE   H5R17880   4.648   0.370   7.221 -0.3545  0.2178 -0.6749
  160SAPE   C2617881   4.827   0.337   7.330  0.3576  0.5518 -0.4791
  160SAPE   H6R17882   4.773   0.313   7.423 -3.4200  2.2934 -2.0056
  160SAPE   C2717883   4.978   0.352   7.330 -0.8267 -0.2623 -0.0993
  160SAPE   H7R17884   5.015   0.356   7.225 -2.1642 -1.0728 -0.6250
  160SAPE   H7S17885   5.013   0.255   7.371 -1.4473 -0.2131  0.5778
  160SAPE   C2817886   5.028   0.472   7.411 -0.1203 -0.8132 -0.8461
  160SAPE   H8R17887   5.027   0.562   7.349 -0.3428 -1.2548 -1.4899
  160SAPE   C2917888   5.086   0.480   7.532 -0.0918 -0.3905  0.6282
  160SAPE   H9R17889   5.129   0.573   7.571 -1.6376  0.9663 -0.7362
  160SAPE  C21017890   5.113   0.366   7.628 -0.1530  0.0669 -0.4387
  160SAPE  H10R17891   5.220   0.365   7.658 -0.2611  0.0643 -0.0411
  160SAPE  H10S17892   5.093   0.274   7.568  1.5466 -0.2402 -0.5792
  160SAPE  C21117893   5.028   0.363   7.753  0.2890  0.1154 -0.8843
  160SAPE  H11R17894   5.078   0.413   7.837 -1.4135 -0.8404  0.7663
  160SAPE  C21217895   4.910   0.309   7.790  0.0219 -0.1062  0.4208
  160SAPE  H12R17896   4.862   0.341   7.884 -2.1612 -2.5298  0.2599
  160SAPE  C21317897   4.823   0.230   7.699 -0.2855  0.4039  0.0104
  160SAPE  H13R17898   4.826   0.120   7.717  1.1745  0.2949 -0.7533
  160SAPE  H13S17899   4.865   0.236   7.597 -1.2258 -1.2803 -0.5264
  160SAPE  C21417900   4.680   0.281   7.706 -0.4117  0.0051  0.3359
  160SAPE  H14R17901   4.656   0.344   7.618  1.4910 -1.1552 -1.0766
  160SAPE  C21517902   4.591   0.255   7.800 -0.0913  0.2757 -0.6817
  160SAPE  H15R17903   4.487   0.290   7.791  0.0322  1.1879  1.1277
  160SAPE  C21617904   4.603   0.175   7.928 -0.0398  0.7586  0.2845
  160SAPE  H16R17905   4.705   0.133   7.943  0.1148  1.5636  1.5981
  160SAPE  H16S17906   4.530   0.091   7.925  1.7575 -0.8567 -1.4732
  160SAPE  C21717907   4.568   0.258   8.051 -0.2259  0.7825 -0.0038
  160SAPE  H17R17908   4.645   0.338   8.054  1.7583 -1.0285 -0.0239
  160SAPE  H17S17909   4.574   0.199   8.145 -2.1059  0.4687 -0.0490
  160SAPE  C21817910   4.427   0.311   8.048  0.1636 -0.2759  0.4774
  160SAPE  H18R17911   4.353   0.238   8.010 -1.3451  1.4770 -0.0743
  160SAPE  H18S17912   4.428   0.389   7.969 -2.6408 -0.5322  0.0860
  160SAPE  C21917913   4.382   0.350   8.193 -0.3877 -0.4118  0.7768
  160SAPE  H19R17914   4.297   0.422   8.191  0.2695  0.3665  0.0548
  160SAPE  H19S17915   4.464   0.409   8.239 -0.2368  1.6927 -1.9686
  160SAPE  C22017916   4.344   0.234   8.283  0.1623  0.1936  0.4933
  160SAPE  H20R17917   4.271   0.165   8.237 -0.8805  0.2928  1.9173
  160SAPE  H20S17918   4.306   0.292   8.369 -0.1350  2.8523 -1.3311
  160SAPE  H20T17919   4.434   0.173   8.310 -0.1741 -0.7719 -0.4829
  160SAPE   C3317920   5.336   0.006   7.093  0.8646  0.0620  0.2813
  160SAPE   H3X17921   5.379   0.051   7.186  1.0176  0.2789  0.1056
  160SAPE   H3Y17922   5.420  -0.030   7.031 -0.6981 -3.6101  0.0346
  160SAPE   C3417923   5.233  -0.103   7.122  0.5912 -0.3318  0.1498
  160SAPE   H4X17924   5.276  -0.203   7.144  2.2207  0.3741  0.3042
  160SAPE   H4Y17925   5.176  -0.114   7.028  0.2601 -0.6434  0.3854
  160SAPE   C3517926   5.136  -0.061   7.229 -0.0214  0.5215  0.3908
  160SAPE   H5X17927   5.032  -0.092   7.204  0.6831 -1.0767 -0.7192
  160SAPE   H5Y17928   5.144   0.049   7.222 -0.9338  0.4683 -2.5940
  160SAPE   C3617929   5.173  -0.118   7.360 -0.2440  0.2192 -0.0295
  160SAPE   H6X17930   5.278  -0.089   7.383  0.3086 -0.9227 -1.0259
  160SAPE   H6Y17931   5.174  -0.229   7.362 -2.3843  0.1759  0.9172
  160SAPE   C3717932   5.082  -0.080   7.479  0.5445  0.3285  0.0789
  160SAPE   H7X17933   4.979  -0.122   7.478  0.6979 -0.0539 -0.1832
  160SAPE   H7Y17934   5.074   0.029   7.460  0.0913  0.3083  0.1408
  160SAPE   C3817935   5.141  -0.108   7.619  0.1701 -0.6393  0.0743
  160SAPE   H8X17936   5.251  -0.101   7.610  0.2112  0.3210  1.0840
  160SAPE   H8Y17937   5.122  -0.209   7.661  1.3152 -0.5288  0.8892
  160SAPE   C3917938   5.090  -0.014   7.722 -0.0659  0.6391  0.2535
  160SAPE   H9X17939   4.979  -0.019   7.716 -0.0514  0.5530  0.0416
  160SAPE   H9Y17940   5.107   0.093   7.698  2.1702  0.7191  1.9329
  160SAPE  C31017941   5.145  -0.041   7.859  0.4039  0.0117 -0.4362
  160SAPE  H10X17942   5.256  -0.049   7.858  0.3635 -0.6948 -0.0334
  160SAPE  H10Y17943   5.095  -0.138   7.882  1.0283 -0.7840 -2.2842
  160SAPE  C31117944   5.093   0.062   7.951 -0.3120 -0.2080 -0.1700
  160SAPE  H11X17945   4.983   0.073   7.944 -0.4564 -1.4750 -0.1204
  160SAPE  H11Y17946   5.134   0.160   7.918 -0.0215 -0.0949  0.5093
  160SAPE  C31217947   5.137   0.043   8.094  0.8037  0.3210 -0.3234
  160SAPE  H12X17948   5.243   0.009   8.101  0.5802 -0.4139 -0.4622
  160SAPE  H12Y17949   5.066  -0.033   8.134 -0.5271  0.7402 -1.8073
  160SAPE  C31317950   5.132   0.173   8.182 -0.0394 -0.2339 -0.3158
  160SAPE  H13X17951   5.191   0.256   8.139  0.4927 -0.0879  0.6612
  160SAPE  H13Y17952   5.184   0.146   8.277 -0.1297  2.2279  0.5062
  160SAPE  C31417953   4.988   0.221   8.218 -0.4981 -0.2793 -0.2519
  160SAPE  H14X17954   4.933   0.127   8.238  0.5324 -0.6792  0.7732
  160SAPE  H14Y17955   4.937   0.273   8.134 -1.0374  1.8184  1.2968
  160SAPE  C31517956   4.975   0.298   8.348 -0.4467  0.8948 -0.4706
  160SAPE  H15X17957   5.006   0.233   8.433 -0.8374  1.2110 -0.0808
  160SAPE  H15Y17958   4.869   0.322   8.371  0.1277  2.6221  0.5267
  160SAPE  C31617959   5.043   0.433   8.367 -0.2605  0.2226 -0.3594
  160SAPE  H16X17960   5.003   0.506   8.294  0.1127  0.2235 -0.5673
  160SAPE  H16Y17961   5.153   0.426   8.350 -0.0810  2.2160 -0.2584
  160SAPE  C31717962   5.018   0.489   8.507  0.7626 -0.5190  0.0496
  160SAPE  H17X17963   5.066   0.437   8.593 -0.6763 -0.2873  1.0354
  160SAPE  H17Y17964   4.909   0.478   8.529  0.4288  2.7201  0.5273
  160SAPE  C31817965   5.059   0.641   8.524 -0.5922 -0.4795 -0.0277
  160SAPE  H18X17966   5.145   0.662   8.456 -2.0105  0.9906 -1.4421
  160SAPE  H18Y17967   5.077   0.669   8.630 -1.9812  1.4653 -0.2563
  160SAPE  H18Z17968   4.977   0.711   8.497  1.2110  1.7323 -0.0793
  161SOPE     N17969   1.447   5.210  10.507  0.1706 -0.1946 -0.2016
  161SOPE   HN117970   1.466   5.111  10.485  0.7225  0.0083 -0.6513
  161SOPE   HN217971   1.495   5.220  10.599 -0.5082 -0.2136  0.1657
  161SOPE   HN317972   1.346   5.238  10.508  0.0451 -0.3205 -3.0447
  161SOPE   C1217973   1.528   5.285  10.414 -0.4206 -0.3239 -0.0358
  161SOPE  H12A17974   1.497   5.261  10.310 -0.3569  1.2823 -0.4493
  161SOPE  H12B17975   1.632   5.246  10.421 -0.9011 -1.3845  1.6797
  161SOPE   C1117976   1.527   5.438  10.437 -0.3784  0.4036 -0.0599
  161SOPE  H11A17977   1.428   5.472  10.399 -0.4950 -0.3754 -0.4789
  161SOPE  H11B17978   1.608   5.474  10.369  0.7976 -0.4795  0.8433
  161SOPE     P17979   1.505   5.628  10.616 -1.0002 -0.0038 -0.1043
  161SOPE   O1317980   1.581   5.662  10.740 -0.6411  0.0983  0.0913
  161SOPE   O1417981   1.356   5.648  10.618 -0.3589  0.7936 -0.1096
  161SOPE   O1217982   1.554   5.482  10.567  0.2240  0.0131 -0.0943
  161SOPE   O1117983   1.568   5.721  10.508  0.1970  0.1433 -0.6983
  161SOPE    C117984   1.488   5.834  10.465 -0.5002 -0.8884 -0.0493
  161SOPE    HA17985   1.568   5.904  10.431  1.5076 -3.6913 -1.5206
  161SOPE    HB17986   1.427   5.885  10.543 -0.6268 -1.5177  0.2725
  161SOPE    C217987   1.398   5.797  10.347  1.5732 -0.6699  0.5164
  161SOPE    HS17988   1.313   5.734  10.383 -0.5754  1.5587 -0.3725
  161SOPE   O2117989   1.464   5.730  10.232  0.4524  0.6650 -0.2827
  161SOPE   C2117990   1.393   5.643  10.167 -0.2661 -0.3172  0.5052
  161SOPE   O2217991   1.282   5.598  10.192 -0.3801 -0.2271  0.3603
  161SOPE   C2217992   1.477   5.592  10.054  0.8907  0.0040  0.3588
  161SOPE   H2R17993   1.549   5.513  10.083  3.0460  2.1442  1.2033
  161SOPE   H2S17994   1.540   5.677  10.019  1.1122 -0.1872  0.2914
  161SOPE    C317995   1.339   5.932  10.290 -0.5163 -0.1982  0.5576
  161SOPE    HX17996   1.430   5.988  10.260 -0.8948 -0.4217 -1.1294
  161SOPE    HY17997   1.290   5.988  10.372 -4.2188 -1.3188 -0.6444
  161SOPE   O3117998   1.256   5.901  10.171 -0.3728  0.3729  0.2755
  161SOPE   C3117999   1.137   5.852  10.205  0.6645 -0.3367  0.4413
  161SOPE   O3218000   1.105   5.856  10.323  0.4957 -0.8441  0.2662
  161SOPE   C3218001   1.049   5.796  10.090 -0.3301 -0.0986  0.2062
  161SOPE   H2X18002   0.955   5.850  10.114  0.6973  0.6741  2.8488
  161SOPE   H2Y18003   1.039   5.686  10.101 -1.0479 -0.0883 -0.2698
  161SOPE   C2318004   1.390   5.554   9.932 -0.3621  0.3446  0.1029
  161SOPE   H3R18005   1.320   5.636   9.907 -0.0943  0.1682 -1.3261
  161SOPE   H3S18006   1.330   5.466   9.962 -0.1521 -0.0973 -0.7285
  161SOPE   C2418007   1.479   5.534   9.803 -0.8868 -0.2748 -0.3485
  161SOPE   H4R18008   1.566   5.469   9.829 -0.0352  1.0661  0.2606
  161SOPE   H4S18009   1.426   5.483   9.720  0.8204 -0.4260 -1.4089
  161SOPE   C2518010   1.539   5.660   9.735  0.6488  0.2856  0.3437
  161SOPE   H5R18011   1.461   5.738   9.719 -1.1138 -1.7593 -1.7452
  161SOPE   H5S18012   1.608   5.697   9.814 -0.8412 -1.6115  2.7067
  161SOPE   C2618013   1.598   5.624   9.598  0.2922  0.3764  0.6928
  161SOPE   H6R18014   1.531   5.561   9.536  0.8034  0.3001  0.2133
  161SOPE   H6S18015   1.604   5.723   9.547 -0.9134  0.2519  0.2884
  161SOPE   C2718016   1.740   5.583   9.616  0.2432 -0.2882  0.0984
  161SOPE   H7R18017   1.786   5.656   9.686 -0.9633  0.2186  0.4041
  161SOPE   H7S18018   1.745   5.496   9.685 -1.3941 -0.6370 -0.1801
  161SOPE   C2818019   1.823   5.566   9.487 -0.1687 -0.3651 -0.1656
  161SOPE   H8R18020   1.824   5.662   9.430 -1.6551  0.6986  1.4819
  161SOPE   H8S18021   1.927   5.534   9.509 -0.2957 -0.1872  0.7262
  161SOPE   C2918022   1.746   5.454   9.415  0.0170 -0.2453  0.5037
  161SOPE   H9118023   1.732   5.364   9.477 -1.1760  0.6800  1.6398
  161SOPE  C21018024   1.700   5.470   9.287  0.0078 -0.0031  0.2320
  161SOPE  H10118025   1.626   5.401   9.244  0.9318 -0.5180 -0.5699
  161SOPE  C21118026   1.718   5.580   9.192 -0.2028 -0.3933  0.0448
  161SOPE  H11R18027   1.829   5.590   9.187 -0.3212  0.7488 -4.1354
  161SOPE  H11S18028   1.677   5.675   9.231 -0.6192 -0.1726 -0.9034
  161SOPE  C21218029   1.657   5.560   9.051 -0.0529 -0.7647  0.1298
  161SOPE  H12R18030   1.673   5.655   8.997  0.3432 -1.5085 -1.0958
  161SOPE  H12S18031   1.547   5.549   9.060  0.0567 -1.2295  1.0839
  161SOPE  C21318032   1.719   5.436   8.986 -0.5434  0.7556 -0.0363
  161SOPE  H13R18033   1.689   5.343   9.038  1.1036 -0.4623 -1.1722
  161SOPE  H13S18034   1.830   5.444   8.988 -0.5965  1.6956 -0.0628
  161SOPE  C21418035   1.672   5.427   8.840  0.6459 -0.8111 -0.1964
  161SOPE  H14R18036   1.702   5.523   8.792  1.7941 -0.0126  2.0152
  161SOPE  H14S18037   1.561   5.425   8.845  0.6030  1.6204  1.5685
  161SOPE  C21518038   1.735   5.327   8.752 -0.1722  0.1851 -0.1875
  161SOPE  H15R18039   1.770   5.238   8.809 -2.2746 -0.7408 -0.2504
  161SOPE  H15S18040   1.830   5.363   8.707 -1.3857  1.1964 -2.0987
  161SOPE  C21618041   1.639   5.280   8.643 -0.4733  0.3738 -0.0847
  161SOPE  H16R18042   1.617   5.368   8.578 -1.3007  0.0192 -0.3047
  161SOPE  H16S18043   1.545   5.243   8.689 -0.6518 -0.2131 -0.8891
  161SOPE  C21718044   1.705   5.173   8.554 -0.4466 -0.2488 -0.2146
  161SOPE  H17R18045   1.779   5.106   8.602  1.3673 -0.1045 -2.5807
  161SOPE  H17S18046   1.765   5.231   8.479  0.1527 -2.5433 -1.6096
  161SOPE  C21818047   1.604   5.092   8.471  0.2249  0.2689 -0.5071
  161SOPE  H18R18048   1.657   5.011   8.417  1.4137 -0.6631  1.8656
  161SOPE  H18S18049   1.544   5.148   8.397  1.5741 -1.5105 -3.0838
  161SOPE  H18T18050   1.529   5.042   8.537  1.4317 -1.2092 -0.1998
  161SOPE   C3318051   1.103   5.829   9.948 -0.3922 -0.0202  0.2019
  161SOPE   H3X18052   1.052   5.766   9.872 -1.2860 -2.8166  2.9368
  161SOPE   H3Y18053   1.212   5.813   9.931 -0.3079 -0.6037  1.2257
  161SOPE   C3418054   1.088   5.972   9.892 -0.8877 -0.3093  0.7775
  161SOPE   H4X18055   1.139   6.041   9.963 -1.7481  0.3588  0.7694
  161SOPE   H4Y18056   0.983   6.007   9.887 -0.6877  0.3361  0.9556
  161SOPE   C3518057   1.163   6.000   9.761 -0.5431  0.5597 -0.4745
  161SOPE   H5X18058   1.270   5.973   9.768 -0.7635 -0.8397 -1.9214
  161SOPE   H5Y18059   1.153   6.104   9.723 -1.2715 -0.1661 -2.4340
  161SOPE   C3618060   1.111   5.912   9.652 -0.3657  0.7775 -0.2085
  161SOPE   H6X18061   1.001   5.920   9.644 -0.4046 -0.7114 -2.3578
  161SOPE   H6Y18062   1.135   5.804   9.663  0.9388  1.0370 -0.3566
  161SOPE   C3718063   1.174   5.942   9.515  0.2976 -0.3809 -0.2536
  161SOPE   H7X18064   1.284   5.944   9.523  0.2203  0.7288  0.6584
  161SOPE   H7Y18065   1.155   6.044   9.475  1.2384 -0.3862 -0.7244
  161SOPE   C3818066   1.131   5.839   9.409  0.0011  0.1343 -0.1747
  161SOPE   H8X18067   1.020   5.838   9.407 -0.0261  1.5095 -1.0187
  161SOPE   H8Y18068   1.157   5.737   9.443 -2.6461 -0.9819 -1.2146
  161SOPE   C3918069   1.175   5.869   9.268 -0.6834 -0.4963 -0.4881
  161SOPE   H9X18070   1.156   5.979   9.263  1.8156 -0.0440 -1.4781
  161SOPE   H9Y18071   1.111   5.812   9.197 -3.4490 -2.1438  3.0238
  161SOPE  C31018072   1.319   5.838   9.244 -0.3315  0.0381  0.2755
  161SOPE  H10X18073   1.331   5.728   9.248  1.7100  0.2173  0.0320
  161SOPE  H10Y18074   1.392   5.871   9.321  1.5151  1.5321 -1.9497
  161SOPE  C31118075   1.371   5.881   9.107 -0.2394 -0.2960 -0.3717
  161SOPE  H11X18076   1.480   5.863   9.097 -0.2399  0.4330 -2.0786
  161SOPE  H11Y18077   1.362   5.988   9.076  1.7655  0.0370  0.0291
  161SOPE  C31218078   1.307   5.798   8.993 -0.0805  0.1661  0.3881
  161SOPE  H12X18079   1.200   5.821   8.974  0.0256 -0.8794 -1.6685
  161SOPE  H12Y18080   1.310   5.695   9.033 -0.5601 -0.7127 -1.7191
  161SOPE  C31318081   1.382   5.811   8.864 -1.0099  0.3328  0.6572
  161SOPE  H13X18082   1.491   5.804   8.887 -1.2016 -1.4445  1.1015
  161SOPE  H13Y18083   1.370   5.918   8.834 -1.7847 -0.1995 -1.0432
  161SOPE  C31418084   1.338   5.712   8.757  0.0733  0.0923  0.2042
  161SOPE  H14X18085   1.227   5.713   8.750 -0.0528  1.5661  1.7569
  161SOPE  H14Y18086   1.350   5.607   8.794 -1.5905 -1.2251 -2.6714
  161SOPE  C31518087   1.405   5.737   8.623 -0.1660  0.5488  0.0133
  161SOPE  H15X18088   1.502   5.684   8.612 -0.6177 -0.6573  1.4766
  161SOPE  H15Y18089   1.440   5.841   8.609  2.4013 -0.0343  1.2793
  161SOPE  C31618090   1.319   5.696   8.504  0.5904 -0.4644  0.0190
  161SOPE  H16X18091   1.299   5.587   8.511  0.6162 -0.4889 -0.2622
  161SOPE  H16Y18092   1.363   5.707   8.402 -2.4407 -1.1417 -1.5075
  161SOPE  C31718093   1.189   5.783   8.508  0.7533  0.4666  0.1510
  161SOPE  H17X18094   1.219   5.887   8.535  1.6007  0.3610 -0.3602
  161SOPE  H17Y18095   1.129   5.751   8.596  0.2025 -0.0234 -0.3979
  161SOPE  C31818096   1.098   5.777   8.379 -0.9248 -0.0896 -0.4967
  161SOPE  H18X18097   1.061   5.673   8.363 -1.2200 -0.1069  0.2781
  161SOPE  H18Y18098   1.172   5.799   8.299 -0.9431 -1.8229 -1.0290
  161SOPE  H18Z18099   1.011   5.846   8.394 -2.3041 -1.8518 -0.0388
  162SOPE     N18100   5.341   6.781  10.768  0.3257  0.7173  0.1731
  162SOPE   HN118101   5.401   6.866  10.761  0.6306  0.5916  1.1089
  162SOPE   HN218102   5.290   6.759  10.680  1.7581 -1.4348 -0.1987
  162SOPE   HN318103   5.259   6.812  10.823 -3.2528 -2.1387 -2.9868
  162SOPE   C1218104   5.418   6.672  10.840  0.2600  0.4049 -0.1969
  162SOPE  H12A18105   5.353   6.582  10.841  0.4493  0.2682 -0.1616
  162SOPE  H12B18106   5.427   6.706  10.945  0.9509 -1.7123  0.4820
  162SOPE   C1118107   5.550   6.640  10.766  0.5902  0.4278 -0.0859
  162SOPE  H11A18108   5.525   6.592  10.669  0.8822  0.5048 -0.2022
  162SOPE  H11B18109   5.596   6.560  10.827 -2.1410 -1.1811  0.0265
  162SOPE     P18110   5.759   6.770  10.674  0.0093  0.1396 -0.2345
  162SOPE   O1318111   5.856   6.672  10.726  0.1668  0.4259 -0.1812
  162SOPE   O1418112   5.800   6.910  10.674  0.4884  0.6225  0.4433
  162SOPE   O1218113   5.631   6.757  10.753 -0.1566 -0.3342 -0.1725
  162SOPE   O1118114   5.703   6.732  10.530  0.9807  0.1353  0.0521
  162SOPE    C118115   5.617   6.826  10.454  0.1998 -0.1892 -0.1340
  162SOPE    HA18116   5.677   6.914  10.420  0.5164  0.0441  0.9800
  162SOPE    HB18117   5.534   6.868  10.515 -0.0131  0.4574 -0.8552
  162SOPE    C218118   5.556   6.759  10.328 -0.3368  0.2039 -0.0940
  162SOPE    HS18119   5.520   6.659  10.361 -0.6581 -0.1416 -1.4175
  162SOPE   O2118120   5.663   6.755  10.228  0.2184  0.1637  0.0702
  162SOPE   C2118121   5.662   6.644  10.156 -0.2282  0.3764  0.0497
  162SOPE   O2218122   5.596   6.551  10.193  0.1974 -0.0964 -0.1762
  162SOPE   C2218123   5.743   6.654  10.032  0.4853  0.8172 -0.7521
  162SOPE   H2R18124   5.808   6.564  10.035 -0.6968 -0.0891  2.8840
  162SOPE   H2S18125   5.796   6.752  10.025 -0.2475  1.1895 -1.2616
  162SOPE    C318126   5.440   6.841  10.265  0.1720  0.1924 -0.4918
  162SOPE    HX18127   5.488   6.938  10.241 -1.9556  1.6333  0.7370
  162SOPE    HY18128   5.352   6.843  10.333 -0.5320  0.6818 -1.4097
  162SOPE   O3118129   5.401   6.772  10.148 -0.2145  0.7024  0.2660
  162SOPE   C3118130   5.326   6.843  10.067 -0.0578 -0.2120 -0.6962
  162SOPE   O3218131   5.297   6.962  10.090 -0.2329  0.0427 -0.0131
  162SOPE   C3218132   5.287   6.763   9.948 -0.4317 -0.0433 -0.0807
  162SOPE   H2X18133   5.245   6.666   9.981 -1.5539  1.0796  2.0016
  162SOPE   H2Y18134   5.378   6.742   9.889  0.0308  1.1153  0.1948
  162SOPE   C2318135   5.651   6.630   9.904  0.3775 -0.1495 -0.0181
  162SOPE   H3R18136   5.606   6.730   9.888  1.1247  0.0877 -0.7347
  162SOPE   H3S18137   5.585   6.543   9.923  0.8775 -0.6753 -0.6398
  162SOPE   C2418138   5.732   6.599   9.780 -0.5868 -0.7131 -0.1914
  162SOPE   H4R18139   5.798   6.688   9.774 -0.5287 -0.6505  1.1385
  162SOPE   H4S18140   5.795   6.509   9.799 -0.8074 -0.4264  2.3164
  162SOPE   C2518141   5.650   6.594   9.649 -0.2412  0.5154 -0.1551
  162SOPE   H5R18142   5.587   6.503   9.663 -0.7692  0.8179 -0.5585
  162SOPE   H5S18143   5.590   6.683   9.620 -0.9436 -0.0784 -0.5701
  162SOPE   C2618144   5.746   6.576   9.529 -0.3583 -0.0539  0.5196
  162SOPE   H6R18145   5.816   6.661   9.521 -0.2661 -0.2662 -1.6751
  162SOPE   H6S18146   5.799   6.478   9.524 -1.5562 -0.7268  0.5975
  162SOPE   C2718147   5.676   6.588   9.388  0.3516  0.2969  0.2062
  162SOPE   H7R18148   5.614   6.498   9.364 -1.4631  1.8297 -1.1523
  162SOPE   H7S18149   5.604   6.667   9.415 -1.3479 -1.4988  1.2057
  162SOPE   C2818150   5.773   6.631   9.271  0.5564  0.3052  1.0412
  162SOPE   H8R18151   5.837   6.719   9.293  1.6310  0.1767 -1.2717
  162SOPE   H8S18152   5.843   6.546   9.256  0.8522  0.5917  0.7981
  162SOPE   C2918153   5.679   6.644   9.154 -0.1596 -0.5303  0.1560
  162SOPE   H9118154   5.651   6.552   9.101  0.4803 -0.2922 -0.6197
  162SOPE  C21018155   5.635   6.750   9.096 -0.0634  0.1951  0.7696
  162SOPE  H10118156   5.548   6.738   9.030  0.0791  0.4297  0.5380
  162SOPE  C21118157   5.670   6.886   9.150 -0.3302  0.1429 -0.3475
  162SOPE  H11R18158   5.711   6.880   9.253 -1.4066 -0.0209  0.0834
  162SOPE  H11S18159   5.576   6.944   9.160  0.4218  1.2625  0.6208
  162SOPE  C21218160   5.760   6.968   9.069  0.7340 -0.6966  0.1342
  162SOPE  H12R18161   5.845   6.906   9.034 -0.7474 -2.0031 -1.3421
  162SOPE  H12S18162   5.789   7.057   9.129  0.1848  0.2415 -0.9584
  162SOPE  C21318163   5.695   7.022   8.938  0.6474 -0.7554  0.1808
  162SOPE  H13R18164   5.605   7.083   8.963  1.3859  0.3770  0.1674
  162SOPE  H13S18165   5.664   6.937   8.874 -2.4577  1.0305 -0.9245
  162SOPE  C21418166   5.785   7.096   8.836 -0.0123 -0.0115 -0.3251
  162SOPE  H14R18167   5.885   7.046   8.832  0.3105  0.6875 -1.0591
  162SOPE  H14S18168   5.817   7.196   8.871  0.4739 -0.5875  0.9789
  162SOPE  C21518169   5.719   7.111   8.695 -0.0872  1.2804 -0.4733
  162SOPE  H15R18170   5.618   7.153   8.715 -0.9484 -0.8611 -0.0103
  162SOPE  H15S18171   5.706   7.010   8.650  0.1124  0.5952  0.9386
  162SOPE  C21618172   5.793   7.190   8.597  0.7423 -0.0308 -0.0467
  162SOPE  H16R18173   5.900   7.158   8.604  0.9007  0.3956 -0.5198
  162SOPE  H16S18174   5.806   7.296   8.626  0.6907  0.2153 -0.9233
  162SOPE  C21718175   5.728   7.183   8.463  0.3532  0.2938 -0.7098
  162SOPE  H17R18176   5.629   7.234   8.467 -0.9987 -1.9483 -2.5529
  162SOPE  H17S18177   5.706   7.077   8.438 -0.2202  0.0626  0.7022
  162SOPE  C21818178   5.811   7.252   8.355  0.3967 -0.7773 -0.0600
  162SOPE  H18R18179   5.761   7.267   8.257 -1.8238  2.8693  1.4473
  162SOPE  H18S18180   5.902   7.190   8.338 -1.4329 -2.7926 -3.7851
  162SOPE  H18T18181   5.843   7.351   8.394  0.0749 -1.6678  2.6560
  162SOPE   C3318182   5.191   6.835   9.852  0.9288  0.4567  0.7181
  162SOPE   H3X18183   5.216   6.936   9.814 -3.5259  0.6551 -2.5682
  162SOPE   H3Y18184   5.091   6.859   9.894  0.5685 -0.4383  0.4164
  162SOPE   C3418185   5.166   6.755   9.712  0.0542 -0.4433 -0.5348
  162SOPE   H4X18186   5.092   6.816   9.657  0.1726 -0.8107 -1.1108
  162SOPE   H4Y18187   5.110   6.661   9.730  0.8480 -0.8090  0.1350
  162SOPE   C3518188   5.289   6.735   9.635 -0.2273  0.1670  0.7834
  162SOPE   H5X18189   5.359   6.672   9.695  1.2095  1.6180  0.6963
  162SOPE   H5Y18190   5.338   6.832   9.614 -2.3694  1.1149 -0.1947
  162SOPE   C3618191   5.279   6.666   9.502 -0.7491  0.2475  0.0468
  162SOPE   H6X18192   5.232   6.566   9.515 -2.1660  0.9026  0.2145
  162SOPE   H6Y18193   5.377   6.649   9.452  0.5914  1.2799  2.1992
  162SOPE   C3718194   5.210   6.747   9.399  0.0692  0.7724  0.4075
  162SOPE   H7X18195   5.271   6.833   9.364  4.2404 -1.0900  2.3769
  162SOPE   H7Y18196   5.113   6.783   9.440  0.2492 -0.2255  1.7811
  162SOPE   C3818197   5.166   6.667   9.275 -0.5482  0.5945 -0.3221
  162SOPE   H8X18198   5.088   6.728   9.225 -0.7101  0.4280 -0.2732
  162SOPE   H8Y18199   5.125   6.569   9.306  1.2228 -1.1380 -2.9366
  162SOPE   C3918200   5.284   6.654   9.171  0.1556  0.0121 -0.3346
  162SOPE   H9X18201   5.370   6.598   9.213  0.9632  0.4098 -1.4076
  162SOPE   H9Y18202   5.317   6.752   9.131  1.2596 -0.0512  0.3841
  162SOPE  C31018203   5.228   6.582   9.049  0.8778  0.4203  0.3133
  162SOPE  H10X18204   5.138   6.639   9.017  0.0127 -1.2076 -0.2717
  162SOPE  H10Y18205   5.192   6.486   9.092  0.9759  0.8063  1.2888
  162SOPE  C31118206   5.320   6.553   8.931 -0.1228  0.7559  0.9683
  162SOPE  H11X18207   5.419   6.523   8.972 -0.0477  2.6093  2.2496
  162SOPE  H11Y18208   5.332   6.645   8.869 -0.9243 -0.2644 -0.7827
  162SOPE  C31218209   5.273   6.441   8.827  0.1720  0.2181 -0.6667
  162SOPE  H12X18210   5.179   6.484   8.785  0.4674  0.7746 -0.7623
  162SOPE  H12Y18211   5.249   6.345   8.879 -0.0439  0.6414  0.0317
  162SOPE  C31318212   5.361   6.406   8.711 -0.4261 -0.3917 -0.5669
  162SOPE  H13X18213   5.461   6.383   8.754  0.0091 -0.5626 -1.6518
  162SOPE  H13Y18214   5.359   6.491   8.640 -1.9483  0.6730  0.6765
  162SOPE  C31418215   5.309   6.277   8.638  0.5041  0.7180  0.1398
  162SOPE  H14X18216   5.199   6.275   8.627  0.0177 -0.9442  3.6386
  162SOPE  H14Y18217   5.328   6.175   8.679 -1.3260  0.4313  0.3529
  162SOPE  C31518218   5.363   6.270   8.494 -0.6378 -1.0057 -0.3755
  162SOPE  H15X18219   5.473   6.256   8.487 -0.5677 -1.6186  1.4388
  162SOPE  H15Y18220   5.342   6.368   8.447  0.8590 -1.4804 -2.1649
  162SOPE  C31618221   5.303   6.166   8.404  0.8644  0.1916 -0.0407
  162SOPE  H16X18222   5.318   6.065   8.447 -0.9458  1.2481  3.3971
  162SOPE  H16Y18223   5.362   6.165   8.309  0.9432 -0.1486  0.0113
  162SOPE  C31718224   5.148   6.177   8.368 -0.3192  0.1564  0.1017
  162SOPE  H17X18225   5.094   6.137   8.456 -0.2964  0.2459  0.1573
  162SOPE  H17Y18226   5.137   6.107   8.282 -0.2486 -0.8490  0.9008
  162SOPE  C31818227   5.102   6.320   8.328  0.1778 -0.8600 -0.3913
  162SOPE  H18X18228   5.187   6.350   8.264  0.6587 -0.1708  0.5391
  162SOPE  H18Y18229   5.112   6.377   8.423 -1.8817 -1.0464 -0.0159
  162SOPE  H18Z18230   5.002   6.324   8.281  0.1330 -0.6605 -0.2790
  163SOPE     N18231   2.878   4.015  10.700  0.9550 -0.2500 -0.0531
  163SOPE   HN118232   2.960   4.050  10.647  0.6014  0.9250  0.1311
  163SOPE   HN218233   2.900   3.922  10.740  2.1456  0.9052  2.1457
  163SOPE   HN318234   2.786   4.002  10.653  0.1994 -2.2829  1.8292
  163SOPE   C1218235   2.842   4.106  10.816 -0.0485 -0.1256 -0.7767
  163SOPE  H12A18236   2.835   4.208  10.773  2.9991  0.4322 -0.1508
  163SOPE  H12B18237   2.937   4.112  10.873  0.4463  2.0948 -1.7198
  163SOPE   C1118238   2.721   4.055  10.887  0.5220  0.6850  0.8826
  163SOPE  H11A18239   2.690   4.123  10.969  1.5808 -0.8614  2.6565
  163SOPE  H11B18240   2.745   3.961  10.943 -2.2771 -1.3134 -1.0172
  163SOPE     P18241   2.500   4.114  10.761 -0.3547 -0.1702  0.1932
  163SOPE   O1318242   2.547   4.254  10.758 -0.8458 -0.1047 -0.5838
  163SOPE   O1418243   2.379   4.086  10.843 -0.1040 -0.6169  0.1975
  163SOPE   O1218244   2.615   4.016  10.790 -1.0406  0.3916 -0.2212
  163SOPE   O1118245   2.465   4.078  10.615 -0.3830 -0.2261  0.4441
  163SOPE    C118246   2.430   4.167  10.506  0.0213 -0.0603 -0.1084
  163SOPE    HA18247   2.406   4.270  10.540 -0.8495 -0.2120 -0.2645
  163SOPE    HB18248   2.340   4.134  10.451 -1.6175  2.0402  1.1738
  163SOPE    C218249   2.554   4.175  10.415  0.1106 -0.0497  0.3479
  163SOPE    HS18250   2.642   4.179  10.484  0.0836 -1.6570  0.5283
  163SOPE   O2118251   2.555   4.291  10.336  0.1929  0.3348 -0.0719
  163SOPE   C2118252   2.650   4.300  10.241  0.3868 -1.3479  0.5435
  163SOPE   O2218253   2.751   4.228  10.231  0.0125  0.2483  0.3118
  163SOPE   C2218254   2.599   4.401  10.135 -0.2167 -0.2835  0.0977
  163SOPE   H2R18255   2.605   4.494  10.195 -1.0848 -0.0598 -0.1429
  163SOPE   H2S18256   2.491   4.386  10.111 -0.1842  0.7210 -0.7632
  163SOPE    C318257   2.574   4.039  10.341 -0.2110 -0.4987  0.2036
  163SOPE    HX18258   2.567   3.955  10.412 -1.1634 -1.5522 -1.0988
  163SOPE    HY18259   2.676   4.014  10.305 -0.1139 -0.5870  0.5325
  163SOPE   O3118260   2.497   4.033  10.224  0.5747  0.3905  0.5242
  163SOPE   C3118261   2.399   3.938  10.220 -0.3395  0.8741 -0.9701
  163SOPE   O3218262   2.357   3.883  10.322 -0.0985  0.5518  0.3663
  163SOPE   C3218263   2.347   3.931  10.079  0.3308 -0.6436 -0.5163
  163SOPE   H2X18264   2.432   3.917  10.008  1.8321 -1.5835  1.3889
  163SOPE   H2Y18265   2.304   4.032  10.060  2.4414  0.7310  1.4951
  163SOPE   C2318266   2.681   4.402  10.013 -0.2454  0.3404  0.5116
  163SOPE   H3R18267   2.791   4.402  10.031 -0.2235 -1.4584  0.5963
  163SOPE   H3S18268   2.661   4.494   9.954 -1.4064 -0.7281 -0.8340
  163SOPE   C2418269   2.656   4.276   9.926 -0.1197 -1.0590  0.7784
  163SOPE   H4R18270   2.642   4.179   9.979  1.4186 -0.2094  2.8870
  163SOPE   H4S18271   2.561   4.295   9.871  1.2338  2.3520 -0.6637
  163SOPE   C2518272   2.762   4.267   9.812 -0.6325 -0.0638 -0.2352
  163SOPE   H5R18273   2.764   4.365   9.760  0.3714  0.3098  0.4844
  163SOPE   H5S18274   2.861   4.245   9.856 -1.8377 -1.7638  1.8547
  163SOPE   C2618275   2.723   4.162   9.705  0.2967 -0.6454  0.3941
  163SOPE   H6R18276   2.613   4.177   9.701  0.4913  1.3759  1.2790
  163SOPE   H6S18277   2.769   4.186   9.607  0.1438 -0.6017  0.3334
  163SOPE   C2718278   2.742   4.013   9.748 -0.3687 -0.4787  0.0187
  163SOPE   H7R18279   2.850   4.007   9.774 -0.6893  0.6095  1.7522
  163SOPE   H7S18280   2.683   4.012   9.842 -0.3057  1.1273  0.0995
  163SOPE   C2818281   2.709   3.909   9.644 -0.1122 -0.3200 -0.7477
  163SOPE   H8R18282   2.766   3.928   9.550 -0.7090 -1.0338 -1.2649
  163SOPE   H8S18283   2.747   3.811   9.680  2.2670  1.2917  1.5108
  163SOPE   C2918284   2.566   3.906   9.606 -0.4504 -0.4295  0.6449
  163SOPE   H9118285   2.495   3.922   9.688 -0.6128  2.2038  0.0892
  163SOPE  C21018286   2.512   3.913   9.483 -0.0995 -0.5258  0.0202
  163SOPE  H10118287   2.403   3.927   9.473 -0.5599 -3.2038  0.6527
  163SOPE  C21118288   2.584   3.899   9.353  0.6991 -1.0045 -0.2368
  163SOPE  H11R18289   2.569   3.800   9.304 -0.7238 -0.9870  0.1161
  163SOPE  H11S18290   2.693   3.918   9.359  0.5943  1.6776 -3.6259
  163SOPE  C21218291   2.532   4.010   9.258  0.3269  0.4344  0.4967
  163SOPE  H12R18292   2.556   4.112   9.297  0.6260  0.7962 -0.5981
  163SOPE  H12S18293   2.421   4.001   9.265  0.2386  0.5037 -0.6128
  163SOPE  C21318294   2.577   4.006   9.111 -0.4446 -0.1808  0.2146
  163SOPE  H13R18295   2.682   3.974   9.098 -0.1072  0.9801 -0.0563
  163SOPE  H13S18296   2.580   4.108   9.067 -1.3601  0.1452  0.8755
  163SOPE  C21418297   2.484   3.916   9.026  0.0325 -0.4391 -0.0556
  163SOPE  H14R18298   2.380   3.932   9.064 -0.3879  2.3243 -2.0780
  163SOPE  H14S18299   2.507   3.811   9.055 -0.6411 -0.4792  0.3650
  163SOPE  C21518300   2.488   3.928   8.875  0.1341 -0.2869  0.0154
  163SOPE  H15R18301   2.426   3.849   8.827  0.3862 -0.9073  0.6912
  163SOPE  H15S18302   2.594   3.920   8.844  0.9706  0.5573  2.4138
  163SOPE  C21618303   2.434   4.059   8.819  0.5582 -0.2768 -0.3470
  163SOPE  H16R18304   2.499   4.139   8.862 -0.7680  0.7005 -0.0871
  163SOPE  H16S18305   2.331   4.078   8.854 -0.1571 -0.3216 -2.3038
  163SOPE  C21718306   2.439   4.073   8.669 -0.1767  0.3384 -0.0677
  163SOPE  H17R18307   2.364   4.012   8.615  0.1674  0.9032 -1.2200
  163SOPE  H17S18308   2.537   4.034   8.635 -0.1489 -0.9684  1.3964
  163SOPE  C21818309   2.428   4.217   8.621 -0.2153  0.1216 -0.2912
  163SOPE  H18R18310   2.441   4.217   8.511  0.1972 -2.7336 -0.3313
  163SOPE  H18S18311   2.508   4.284   8.658 -1.1499  0.5748  0.9563
  163SOPE  H18T18312   2.327   4.262   8.634  0.3942  1.5095 -0.2438
  163SOPE   C3318313   2.244   3.830  10.069  0.5839  0.0779  0.8423
  163SOPE   H3X18314   2.275   3.747  10.136  0.5496 -0.4569  0.1959
  163SOPE   H3Y18315   2.236   3.789   9.967 -1.4576 -0.5281  1.1991
  163SOPE   C3418316   2.101   3.869  10.097 -0.3597 -0.0128 -0.1539
  163SOPE   H4X18317   2.088   3.964  10.041 -1.6836 -0.6658 -0.9922
  163SOPE   H4Y18318   2.095   3.887  10.206 -0.0453 -2.0711  0.2394
  163SOPE   C3518319   1.992   3.769  10.049  0.5223  0.0948 -0.5137
  163SOPE   H5X18320   1.891   3.813  10.062  0.7048  0.8854 -1.7082
  163SOPE   H5Y18321   2.010   3.672  10.101 -0.6885 -0.4411 -1.0567
  163SOPE   C3618322   1.996   3.711   9.900 -0.1959 -0.1408 -0.3263
  163SOPE   H6X18323   1.910   3.641   9.900  0.4273 -0.9362 -0.0771
  163SOPE   H6Y18324   2.096   3.665   9.883  1.4660  1.9171  2.8408
  163SOPE   C3718325   1.967   3.815   9.793 -0.0391 -0.4746 -0.4075
  163SOPE   H7X18326   2.050   3.888   9.801  0.3999 -0.9493 -0.5976
  163SOPE   H7Y18327   1.870   3.864   9.817  0.5610 -0.0724  1.3344
  163SOPE   C3818328   1.989   3.761   9.650 -0.6018  0.1510 -0.2317
  163SOPE   H8X18329   1.903   3.695   9.627 -1.3182  0.0275  2.5089
  163SOPE   H8Y18330   2.080   3.698   9.647 -1.6916 -1.4660 -0.5227
  163SOPE   C3918331   1.983   3.865   9.537 -0.2273  0.6792 -0.5235
  163SOPE   H9X18332   2.044   3.951   9.573  1.2823 -0.4907 -0.1655
  163SOPE   H9Y18333   1.878   3.898   9.522  0.4372  3.0542 -0.2940
  163SOPE  C31018334   2.040   3.817   9.406 -0.4456 -0.4000  0.4400
  163SOPE  H10X18335   1.969   3.744   9.363 -1.2597  0.4659  0.2870
  163SOPE  H10Y18336   2.134   3.761   9.426 -1.0331 -1.4782  0.2247
  163SOPE  C31118337   2.082   3.923   9.303 -0.1286 -0.8540 -0.8176
  163SOPE  H11X18338   2.185   3.904   9.266 -0.1136 -0.6388 -0.8860
  163SOPE  H11Y18339   2.083   4.017   9.362  0.1816 -2.3153  1.6242
  163SOPE  C31218340   1.981   3.950   9.184 -0.1445  0.4010 -0.2321
  163SOPE  H12X18341   2.017   4.044   9.138 -1.5184  2.0376  1.8641
  163SOPE  H12Y18342   1.885   3.972   9.234  0.6515 -2.5509  3.0354
  163SOPE  C31318343   1.973   3.841   9.079  0.1309  0.1005 -0.2455
  163SOPE  H13X18344   1.904   3.766   9.122 -1.6377  1.9906  0.3909
  163SOPE  H13Y18345   2.069   3.790   9.060  0.1698  0.5045 -1.2295
  163SOPE  C31418346   1.918   3.884   8.949  0.0650 -0.3328  0.9171
  163SOPE  H14X18347   1.813   3.917   8.965 -0.5444 -2.2665  1.1299
  163SOPE  H14Y18348   1.906   3.794   8.886 -2.3180 -0.6479  1.7213
  163SOPE  C31518349   2.015   3.974   8.864  0.1280 -0.6779 -0.3371
  163SOPE  H15X18350   2.114   3.926   8.881  0.2065  0.4360  3.2318
  163SOPE  H15Y18351   2.031   4.071   8.915  1.7937 -0.2143 -1.6546
  163SOPE  C31618352   1.969   4.006   8.720 -0.7097  0.2441 -0.4084
  163SOPE  H16X18353   1.860   4.026   8.718 -1.2441 -2.2777  0.3008
  163SOPE  H16Y18354   1.972   3.908   8.668 -3.0147  0.2789 -0.7211
  163SOPE  C31718355   2.055   4.114   8.649 -0.6589  0.0392  0.0657
  163SOPE  H17X18356   2.162   4.093   8.671 -0.0240  1.0711 -1.8499
  163SOPE  H17Y18357   2.031   4.215   8.690 -3.2729 -0.5638  0.1727
  163SOPE  C31818358   2.024   4.123   8.503  0.1640  0.2099  0.7797
  163SOPE  H18X18359   1.932   4.181   8.477  1.4732  1.7382 -0.7090
  163SOPE  H18Y18360   2.004   4.019   8.469  1.0967  0.5753 -0.9718
  163SOPE  H18Z18361   2.113   4.169   8.455  1.3716 -0.9368  1.8492
  164SOPE     N18362   5.100   2.260  10.832  0.4909  0.3773  0.0060
  164SOPE   HN118363   5.003   2.245  10.799  1.0945  0.3898 -1.8752
  164SOPE   HN218364   5.112   2.222  10.928  1.3783  0.4608 -0.0548
  164SOPE   HN318365   5.113   2.363  10.826 -0.1141  0.4443 -0.1478
  164SOPE   C1218366   5.182   2.178  10.744 -0.0555 -0.8090 -1.1368
  164SOPE  H12A18367   5.285   2.184  10.784 -0.6930 -0.4089  0.5184
  164SOPE  H12B18368   5.170   2.221  10.642  0.2244 -0.3002 -0.9579
  164SOPE   C1118369   5.117   2.030  10.738  0.3198  0.8343  0.1349
  164SOPE  H11A18370   5.154   1.979  10.830 -2.3284  0.0199  0.8505
  164SOPE  H11B18371   5.160   1.977  10.651 -1.0252 -1.5001  0.7997
  164SOPE     P18372   4.896   2.012  10.587  0.0232 -0.3833  0.3342
  164SOPE   O1318373   4.929   2.115  10.492  0.1750 -0.8235  0.0112
  164SOPE   O1418374   4.753   1.991  10.615  0.2300 -0.0267 -0.2621
  164SOPE   O1218375   4.971   2.033  10.727 -0.4243  0.5165 -0.2856
  164SOPE   O1118376   4.953   1.866  10.542 -0.1910  0.0626  0.1024
  164SOPE    C118377   4.876   1.780  10.463 -0.1055  0.1339 -0.7569
  164SOPE    HA18378   4.770   1.812  10.464  0.2480  1.3676 -0.8686
  164SOPE    HB18379   4.885   1.676  10.500 -0.8242 -0.1092 -1.2590
  164SOPE    C218380   4.926   1.793  10.320  0.2064 -0.6855  0.1271
  164SOPE    HS18381   4.923   1.898  10.282  2.0566 -1.8871 -3.8830
  164SOPE   O2118382   4.852   1.702  10.240 -0.3446 -0.2109 -0.3832
  164SOPE   C2118383   4.728   1.744  10.206  1.1713  0.1857 -0.5729
  164SOPE   O2218384   4.671   1.845  10.238 -0.0044  0.2501 -0.2366
  164SOPE   C2218385   4.659   1.638  10.114 -0.5714  0.4696 -0.0920
  164SOPE   H2R18386   4.549   1.640  10.130 -0.6852  0.2783 -0.8424
  164SOPE   H2S18387   4.695   1.536  10.140 -2.7546 -0.9779 -2.3198
  164SOPE    C318388   5.085   1.779  10.305 -0.1281  0.4121 -0.2097
  164SOPE    HX18389   5.115   1.689  10.364  0.9553 -0.3677 -1.8416
  164SOPE    HY18390   5.141   1.862  10.351  1.7062 -0.3248 -0.9989
  164SOPE   O3118391   5.124   1.749  10.168 -0.3096  0.5082  0.3195
  164SOPE   C3118392   5.127   1.854  10.090  0.4573 -0.0904 -0.3377
  164SOPE   O3218393   5.111   1.968  10.122  0.4167 -0.7422 -0.0489
  164SOPE   C3218394   5.171   1.805   9.946  0.0722  0.9602 -0.5300
  164SOPE   H2X18395   5.089   1.737   9.914  0.8162 -0.5452  0.6300
  164SOPE   H2Y18396   5.268   1.754   9.965 -0.7950  0.1395  2.1177
  164SOPE   C2318397   4.687   1.668   9.969 -0.3932  0.1939  0.0683
  164SOPE   H3R18398   4.679   1.776   9.945  1.8315 -0.5134 -5.1996
  164SOPE   H3S18399   4.600   1.615   9.925 -1.4217  0.0084  2.1908
  164SOPE   C2418400   4.832   1.622   9.922 -0.1604  0.7636 -0.8730
  164SOPE   H4R18401   4.901   1.705   9.945  1.5304 -1.1588  1.4729
  164SOPE   H4S18402   4.853   1.543   9.997 -1.5356  1.2210  0.0357
  164SOPE   C2518403   4.830   1.577   9.774  0.2627 -0.2319  0.3808
  164SOPE   H5R18404   4.935   1.544   9.758  0.9318  1.9169  0.0043
  164SOPE   H5S18405   4.757   1.494   9.767  0.7368 -0.5392 -2.9696
  164SOPE   C2618406   4.799   1.685   9.671  0.3809 -0.5177 -0.3076
  164SOPE   H6R18407   4.689   1.695   9.661  0.2635 -1.4116 -0.0098
  164SOPE   H6S18408   4.836   1.782   9.710 -1.2112  0.6974 -1.6622
  164SOPE   C2718409   4.870   1.662   9.532  0.3149  0.2889  0.8497
  164SOPE   H7R18410   4.978   1.670   9.560  0.5573 -1.2295  0.4251
  164SOPE   H7S18411   4.856   1.556   9.502 -1.6691  0.5102  0.9037
  164SOPE   C2818412   4.828   1.758   9.426 -0.4720 -0.0700 -0.5737
  164SOPE   H8R18413   4.717   1.746   9.433 -0.4542 -0.2172 -0.5290
  164SOPE   H8S18414   4.866   1.859   9.452  1.8094 -1.0050 -0.0225
  164SOPE   C2918415   4.891   1.717   9.296 -0.2868  0.1340  0.5349
  164SOPE   H9118416   4.943   1.620   9.292  1.8414  1.1998  0.7090
  164SOPE  C21018417   4.894   1.786   9.179  0.6512  0.7597 -0.1468
  164SOPE  H10118418   4.948   1.743   9.093 -0.2479 -0.8880  0.0808
  164SOPE  C21118419   4.838   1.929   9.173  0.3961  0.3718 -0.0531
  164SOPE  H11R18420   4.915   1.995   9.218 -0.5569  1.2046  0.3928
  164SOPE  H11S18421   4.751   1.936   9.242 -1.3939 -4.5891 -1.3778
  164SOPE  C21218422   4.788   1.968   9.031  0.2642 -0.6360  0.5132
  164SOPE  H12R18423   4.721   1.891   8.987  1.1610 -1.2257  0.1608
  164SOPE  H12S18424   4.872   1.949   8.961 -2.0614 -2.1530 -2.0632
  164SOPE  C21318425   4.739   2.114   9.021 -0.1707  0.3186  0.2319
  164SOPE  H13R18426   4.816   2.191   9.046  1.2214 -0.5317 -1.2367
  164SOPE  H13S18427   4.657   2.128   9.094 -0.3165  0.9960 -0.0528
  164SOPE  C21418428   4.706   2.158   8.877  0.1904  0.3523 -0.2079
  164SOPE  H14R18429   4.643   2.074   8.841 -2.4391  1.5611  1.2896
  164SOPE  H14S18430   4.798   2.167   8.815  0.4146 -1.1232 -0.1387
  164SOPE  C21518431   4.634   2.291   8.859 -0.2114  0.0784 -0.5489
  164SOPE  H15R18432   4.606   2.336   8.957  1.7449 -2.0759  1.1082
  164SOPE  H15S18433   4.544   2.258   8.803 -1.9654 -3.2288  3.6998
  164SOPE  C21618434   4.705   2.390   8.772  0.0965 -0.1825  0.4249
  164SOPE  H16R18435   4.727   2.345   8.672 -0.7915 -0.7285  0.4668
  164SOPE  H16S18436   4.807   2.418   8.807 -0.1223  3.2325 -1.2941
  164SOPE  C21718437   4.626   2.514   8.737  0.5726  0.2169  0.3594
  164SOPE  H17R18438   4.579   2.556   8.829 -2.1285 -0.5697 -0.5505
  164SOPE  H17S18439   4.533   2.480   8.686  0.4753 -1.7305  1.7164
  164SOPE  C21818440   4.713   2.609   8.660  0.8806 -1.0251  0.2824
  164SOPE  H18R18441   4.792   2.644   8.729  1.1786 -0.8101 -0.1640
  164SOPE  H18S18442   4.645   2.694   8.634  0.9177 -1.9871 -3.6015
  164SOPE  H18T18443   4.745   2.572   8.560 -2.7308  2.4437 -2.5346
  164SOPE   C3318444   5.188   1.919   9.850  0.0693  0.2783 -0.6940
  164SOPE   H3X18445   5.283   1.962   9.889 -0.0281 -0.7572  0.7730
  164SOPE   H3Y18446   5.103   1.990   9.843 -0.0795  0.0747 -0.9857
  164SOPE   C3418447   5.201   1.868   9.707 -0.1933  1.2281 -0.1614
  164SOPE   H4X18448   5.131   1.784   9.690 -0.3191  0.9975  1.3572
  164SOPE   H4Y18449   5.303   1.822   9.709 -0.5567  0.3669  2.5487
  164SOPE   C3518450   5.202   1.979   9.610  0.2399 -0.0913 -0.3117
  164SOPE   H5X18451   5.284   2.048   9.641 -1.3328  1.6161  0.2075
  164SOPE   H5Y18452   5.109   2.039   9.610 -0.0235 -0.4434  1.3605
  164SOPE   C3618453   5.210   1.921   9.464 -0.0541 -0.5022  0.1127
  164SOPE   H6X18454   5.140   1.838   9.442  0.9354 -0.6283 -3.0934
  164SOPE   H6Y18455   5.311   1.881   9.439  0.8402  1.9196 -0.4983
  164SOPE   C3718456   5.175   2.029   9.356 -0.2222  0.1587 -0.5264
  164SOPE   H7X18457   5.226   2.123   9.388 -0.0213 -0.0022 -0.3719
  164SOPE   H7Y18458   5.067   2.042   9.377  0.2723  0.2406  2.4845
  164SOPE   C3818459   5.206   2.006   9.206  0.2309 -0.6102 -0.1660
  164SOPE   H8X18460   5.173   1.901   9.196 -0.0823 -0.6090  0.7436
  164SOPE   H8Y18461   5.317   2.003   9.205  0.3642  1.9326 -0.1463
  164SOPE   C3918462   5.157   2.119   9.114 -0.5621 -0.1511 -0.4128
  164SOPE   H9X18463   5.202   2.217   9.143  0.5417 -1.0897  1.1785
  164SOPE   H9Y18464   5.049   2.135   9.132 -0.2792  1.8076 -0.2461
  164SOPE  C31018465   5.162   2.081   8.965  0.3541  0.5790  0.8129
  164SOPE  H10X18466   5.107   1.985   8.960  0.5430  0.5111 -0.6483
  164SOPE  H10Y18467   5.270   2.068   8.940  0.5419  1.7701  0.9123
  164SOPE  C31118468   5.112   2.187   8.862  0.3122  0.2470 -0.4877
  164SOPE  H11X18469   5.173   2.279   8.867 -0.6099  0.8564 -0.2398
  164SOPE  H11Y18470   5.010   2.216   8.894  1.0169  0.5828  1.6127
  164SOPE  C31218471   5.093   2.137   8.718  0.0424 -0.1088  0.1117
  164SOPE  H12X18472   5.027   2.048   8.712 -0.1245 -0.0893  1.3827
  164SOPE  H12Y18473   5.198   2.118   8.688  0.2327  0.3955  0.4536
  164SOPE  C31318474   5.045   2.252   8.615 -0.1307  0.1775  0.1191
  164SOPE  H13X18475   5.094   2.348   8.640 -0.4952  0.3256  0.2742
  164SOPE  H13Y18476   4.937   2.261   8.639  0.0945 -0.8361  1.6902
  164SOPE  C31418477   5.058   2.220   8.468 -0.1551  0.6039  0.2254
  164SOPE  H14X18478   5.023   2.114   8.464  0.4664  0.2547  2.6646
  164SOPE  H14Y18479   5.163   2.210   8.433  0.2625 -1.9025  1.8774
  164SOPE  C31518480   4.975   2.317   8.378  0.1988 -0.1566  0.0386
  164SOPE  H15X18481   4.875   2.322   8.425 -0.0737  1.6315 -0.6398
  164SOPE  H15Y18482   4.955   2.267   8.281 -1.1961  2.6275 -1.2349
  164SOPE  C31618483   5.026   2.459   8.361  0.8025 -0.5279  0.0898
  164SOPE  H16X18484   5.134   2.438   8.346  0.8726 -1.2265  1.4108
  164SOPE  H16Y18485   5.011   2.517   8.455 -0.8488 -0.1565 -0.3783
  164SOPE  C31718486   4.970   2.523   8.228 -0.7190  0.0482  0.0892
  164SOPE  H17X18487   4.988   2.458   8.141 -0.1719  0.5062 -0.1442
  164SOPE  H17Y18488   5.039   2.610   8.228  0.3536 -0.7784  1.0752
  164SOPE  C31818489   4.827   2.579   8.255 -0.0321 -0.1180  0.6757
  164SOPE  H18X18490   4.838   2.680   8.299 -3.1169  0.3275  0.6027
  164SOPE  H18Y18491   4.769   2.509   8.319  0.5786 -1.1192  0.1628
  164SOPE  H18Z18492   4.759   2.598   8.169 -0.7389 -3.3759  0.3817
  165SOPE     N18493   4.150   4.814  10.956 -0.0851  0.3424  0.0641
  165SOPE   HN118494   4.176   4.777  11.049 -2.4474  1.0850  1.0847
  165SOPE   HN218495   4.233   4.857  10.911  0.2096  0.0511  0.3225
  165SOPE   HN318496   4.075   4.885  10.964 -0.7291 -0.1586 -1.1696
  165SOPE   C1218497   4.097   4.694  10.875  0.5427  0.5805 -0.5079
  165SOPE  H12A18498   4.037   4.731  10.789 -1.2626  2.3377  1.3840
  165SOPE  H12B18499   4.025   4.652  10.947 -1.2407  2.6407 -0.9703
  165SOPE   C1118500   4.223   4.608  10.835  0.9482  0.9924  0.6276
  165SOPE  H11A18501   4.271   4.651  10.745 -0.6352  0.7654 -0.3688
  165SOPE  H11B18502   4.175   4.514  10.801  1.6571  1.1695 -0.9337
  165SOPE     P18503   4.453   4.510  10.909 -0.0819 -0.5488 -0.1134
  165SOPE   O1318504   4.509   4.473  11.039 -0.1220  0.0008  0.0906
  165SOPE   O1418505   4.541   4.584  10.820 -0.1566 -0.2748 -0.4004
  165SOPE   O1218506   4.330   4.604  10.940 -0.1780  0.3006 -0.4595
  165SOPE   O1118507   4.392   4.384  10.837  0.6808  0.0198  0.6041
  165SOPE    C118508   4.481   4.285  10.787  0.2290  0.1418  0.2046
  165SOPE    HA18509   4.454   4.187  10.832 -0.0662  0.5381  0.9159
  165SOPE    HB18510   4.585   4.299  10.823  0.4632 -1.5196  0.2395
  165SOPE    C218511   4.472   4.277  10.631 -0.2258  0.2782  0.1541
  165SOPE    HS18512   4.523   4.188  10.586 -2.1842  0.2430 -2.1845
  165SOPE   O2118513   4.499   4.399  10.564  0.0104 -0.4491  0.0586
  165SOPE   C2118514   4.624   4.436  10.537 -0.5043  0.5384 -0.1121
  165SOPE   O2218515   4.725   4.372  10.577 -0.0592 -1.0000  0.5171
  165SOPE   C2218516   4.616   4.557  10.448  0.3881 -0.2417  0.1279
  165SOPE   H2R18517   4.574   4.638  10.510  0.6043  1.0450 -1.3365
  165SOPE   H2S18518   4.550   4.552  10.359  0.6415  2.9074 -0.3580
  165SOPE    C318519   4.321   4.245  10.592  0.0280  0.4510  0.1378
  165SOPE    HX18520   4.268   4.340  10.612 -1.8796 -0.4078 -0.5551
  165SOPE    HY18521   4.280   4.162  10.654 -0.1597  0.6899  0.3351
  165SOPE   O3118522   4.301   4.200  10.456 -0.3253  0.5770 -0.4170
  165SOPE   C3118523   4.174   4.204  10.414 -0.0452 -1.1140  0.2857
  165SOPE   O3218524   4.077   4.215  10.485 -0.3330 -0.7153 -0.2880
  165SOPE   C3218525   4.183   4.180  10.266 -0.3028 -0.6455 -0.2037
  165SOPE   H2X18526   4.224   4.081  10.237 -0.4875 -0.6327 -0.5163
  165SOPE   H2Y18527   4.256   4.252  10.223 -1.6864 -0.2720 -2.0732
  165SOPE   C2318528   4.749   4.604  10.408 -0.5157 -0.0330 -0.0367
  165SOPE   H3R18529   4.828   4.599  10.486 -0.6588 -2.2462  0.0303
  165SOPE   H3S18530   4.734   4.711  10.385  2.5406  0.2763 -1.0080
  165SOPE   C2418531   4.806   4.539  10.283  0.0222 -0.5557 -0.2737
  165SOPE   H4R18532   4.844   4.439  10.315  2.0174 -0.0599 -0.9502
  165SOPE   H4S18533   4.731   4.520  10.204  1.7342  1.3962 -2.4966
  165SOPE   C2518534   4.917   4.620  10.217 -0.6672  0.2259 -0.5656
  165SOPE   H5R18535   4.901   4.730  10.224  0.1489  0.3877 -1.0362
  165SOPE   H5S18536   5.014   4.620  10.271  0.6819  0.2837 -2.8359
  165SOPE   C2618537   4.963   4.579  10.083 -0.2020  0.2546  0.4556
  165SOPE   H6R18538   5.023   4.488  10.100  1.0274  0.9805  0.1343
  165SOPE   H6S18539   4.869   4.553  10.030 -0.5706 -1.3733  1.8368
  165SOPE   C2718540   5.027   4.691  10.008  0.3272 -0.8050 -0.3176
  165SOPE   H7R18541   4.957   4.774   9.982  2.1944  0.9438  0.0082
  165SOPE   H7S18542   5.098   4.751  10.069 -1.6521  0.3301  1.0084
  165SOPE   C2818543   5.093   4.646   9.877  0.0254 -0.0526  0.1574
  165SOPE   H8R18544   5.008   4.621   9.811 -0.6602 -1.5554  1.5332
  165SOPE   H8S18545   5.142   4.734   9.830  0.0956 -0.5220 -0.6651
  165SOPE   C2918546   5.202   4.537   9.880  0.2908 -0.4959  0.5834
  165SOPE   H9118547   5.285   4.544   9.953  2.8331 -1.8955 -1.9436
  165SOPE  C21018548   5.222   4.435   9.801  0.3761  0.5322  0.0667
  165SOPE  H10118549   5.307   4.369   9.823 -0.5694 -0.8910 -0.4156
  165SOPE  C21118550   5.132   4.396   9.687 -0.2748  0.7599  0.7928
  165SOPE  H11R18551   5.045   4.465   9.683 -0.2774  1.0169  3.5093
  165SOPE  H11S18552   5.091   4.295   9.708  0.4744  0.2295 -0.1943
  165SOPE  C21218553   5.205   4.389   9.549 -0.0027 -0.0660  0.8681
  165SOPE  H12R18554   5.280   4.308   9.552  0.8405  0.5595 -1.3725
  165SOPE  H12S18555   5.248   4.488   9.525 -0.5696  0.0649  0.3655
  165SOPE  C21318556   5.111   4.353   9.434  0.5462  0.5597  0.4358
  165SOPE  H13R18557   5.017   4.412   9.440  0.4337  0.4421 -0.1063
  165SOPE  H13S18558   5.078   4.251   9.462 -1.8967  1.2974  0.4556
  165SOPE  C21418559   5.165   4.351   9.292 -0.3308 -1.0524 -0.2469
  165SOPE  H14R18560   5.159   4.454   9.252 -0.3995 -1.5313 -1.5353
  165SOPE  H14S18561   5.097   4.284   9.234  0.0048 -2.6023  1.0792
  165SOPE  C21518562   5.310   4.299   9.274 -0.0456 -0.2752  0.1022
  165SOPE  H15R18563   5.328   4.223   9.353 -0.6028 -0.1039  0.3963
  165SOPE  H15S18564   5.372   4.388   9.300 -1.6340  0.6312  0.9659
  165SOPE  C21618565   5.347   4.246   9.135 -0.1435 -0.1130  0.3464
  165SOPE  H16R18566   5.312   4.323   9.062  0.5996  1.1326  1.2804
  165SOPE  H16S18567   5.294   4.148   9.135  1.1632 -0.8396  0.1120
  165SOPE  C21718568   5.502   4.238   9.126  0.1678 -0.4543 -0.8620
  165SOPE  H17R18569   5.534   4.162   9.201 -3.0080 -2.7968 -1.6320
  165SOPE  H17S18570   5.544   4.338   9.147 -0.2497 -0.1674 -1.3765
  165SOPE  C21818571   5.540   4.201   8.981  0.0347 -0.1321  0.1172
  165SOPE  H18R18572   5.489   4.108   8.945 -2.9049  0.7351  1.6679
  165SOPE  H18S18573   5.650   4.201   8.970  0.0752 -0.1198  0.5203
  165SOPE  H18T18574   5.516   4.286   8.913  2.3922  0.0662 -0.5284
  165SOPE   C3318575   4.049   4.211  10.200 -0.0259  0.0910 -0.3286
  165SOPE   H3X18576   3.997   4.287  10.263  0.6335 -0.5445  1.0262
  165SOPE   H3Y18577   3.989   4.118  10.203 -1.6306  1.1036  0.0341
  165SOPE   C3418578   4.054   4.251  10.049 -0.3819  0.1446  0.0949
  165SOPE   H4X18579   3.949   4.244  10.013  0.2063 -4.0341 -1.3630
  165SOPE   H4Y18580   4.100   4.175   9.982  0.7768  2.1782 -1.5712
  165SOPE   C3518581   4.096   4.393  10.011  0.1820  0.3215 -0.2297
  165SOPE   H5X18582   4.204   4.400  10.037  0.6436 -2.3058 -1.2232
  165SOPE   H5Y18583   4.025   4.468  10.053  0.1806 -0.3764  1.0772
  165SOPE   C3618584   4.095   4.408   9.858 -0.3796 -0.2802 -0.2890
  165SOPE   H6X18585   3.989   4.405   9.825 -0.0679  1.7594 -1.6786
  165SOPE   H6Y18586   4.144   4.318   9.816 -2.2691 -2.3161  1.5637
  165SOPE   C3718587   4.160   4.539   9.808 -0.2530 -0.0303  0.0667
  165SOPE   H7X18588   4.270   4.534   9.827 -0.1114  0.4083 -0.6189
  165SOPE   H7Y18589   4.127   4.632   9.858 -0.3674 -0.3614  0.6186
  165SOPE   C3818590   4.150   4.553   9.654  0.0159 -0.2384 -0.2328
  165SOPE   H8X18591   4.212   4.640   9.622 -1.3801 -0.0740 -2.7448
  165SOPE   H8Y18592   4.043   4.560   9.627  0.0834 -3.1205 -1.6387
  165SOPE   C3918593   4.218   4.440   9.569 -0.2273 -0.7047  0.2299
  165SOPE   H9X18594   4.172   4.339   9.583 -0.2949 -0.6615  0.3192
  165SOPE   H9Y18595   4.325   4.436   9.600 -0.2159 -0.7232  0.1886
  165SOPE  C31018596   4.217   4.471   9.412 -0.6748 -0.3724  0.0506
  165SOPE  H10X18597   4.281   4.394   9.365  1.1709  2.0627 -1.6745
  165SOPE  H10Y18598   4.274   4.565   9.396 -1.9982  0.5435  0.4999
  165SOPE  C31118599   4.084   4.476   9.346 -0.4790 -0.7388  0.3468
  165SOPE  H11X18600   4.022   4.544   9.409  0.8045 -2.0721  3.2634
  165SOPE  H11Y18601   4.036   4.375   9.339 -1.8215 -0.0903 -0.1509
  165SOPE  C31218602   4.077   4.538   9.199 -0.5563  0.0486 -0.1954
  165SOPE  H12X18603   4.120   4.639   9.214 -1.5875  0.1513  2.5535
  165SOPE  H12Y18604   3.973   4.560   9.166 -1.3902 -1.1012  1.5254
  165SOPE  C31318605   4.167   4.465   9.092 -0.3198  0.1889  0.2867
  165SOPE  H13X18606   4.123   4.363   9.086  0.9744 -0.3072 -2.0365
  165SOPE  H13Y18607   4.272   4.473   9.130 -0.9466  1.5677  1.8343
  165SOPE  C31418608   4.130   4.502   8.942 -0.3676  0.5196 -0.6034
  165SOPE  H14X18609   4.149   4.610   8.926 -3.8850  1.2752 -0.4961
  165SOPE  H14Y18610   4.021   4.482   8.932 -0.1011 -1.1889 -0.4046
  165SOPE  C31518611   4.203   4.411   8.842 -0.7633  0.5510 -0.1747
  165SOPE  H15X18612   4.171   4.433   8.738 -3.8168  2.5535  1.0516
  165SOPE  H15Y18613   4.171   4.306   8.859 -0.2083  0.4531  0.3146
  165SOPE  C31618614   4.350   4.431   8.849  0.1354  0.1298  0.1744
  165SOPE  H16X18615   4.404   4.395   8.939  0.9626  1.3769  0.1989
  165SOPE  H16Y18616   4.388   4.535   8.837  0.7129 -0.1563 -0.5686
  165SOPE  C31718617   4.419   4.364   8.724  0.9134 -0.3524 -0.4853
  165SOPE  H17X18618   4.403   4.438   8.643  0.5288 -0.7866 -0.8143
  165SOPE  H17Y18619   4.355   4.285   8.679 -0.8080 -0.1608  1.4247
  165SOPE  C31818620   4.562   4.318   8.739 -0.8246 -0.2057  0.1452
  165SOPE  H18X18621   4.608   4.315   8.638 -0.6239 -0.6864  0.2486
  165SOPE  H18Y18622   4.573   4.214   8.777 -3.2588 -0.7440 -0.4429
  165SOPE  H18Z18623   4.619   4.390   8.802 -2.1921  0.4469  0.6604
  166SOPE     N18624   0.788   1.713  11.000 -0.6318 -0.0038  0.2543
  166SOPE   HN118625   0.847   1.799  11.001  0.7390 -0.8422 -1.5271
  166SOPE   HN218626   0.725   1.708  11.082 -1.3558  1.3033 -0.1941
  166SOPE   HN318627   0.855   1.633  10.993 -1.5836 -0.6894 -2.0471
  166SOPE   C1218628   0.691   1.715  10.889  0.1466 -0.6641  0.1060
  166SOPE  H12A18629   0.666   1.823  10.900  0.3355 -0.7924  2.2568
  166SOPE  H12B18630   0.609   1.644  10.912  0.8737 -2.0136 -1.2597
  166SOPE   C1118631   0.749   1.682  10.749 -0.1952 -0.3185 -0.3744
  166SOPE  H11A18632   0.827   1.757  10.722 -1.0902  0.8859  0.2561
  166SOPE  H11B18633   0.669   1.701  10.675  0.7667  1.0630 -1.1199
  166SOPE     P18634   0.714   1.423  10.746  0.4521 -0.0946 -0.3980
  166SOPE   O1318635   0.598   1.414  10.842  0.9241  0.0013  0.2908
  166SOPE   O1418636   0.810   1.307  10.744  0.1249 -0.2491  0.6126
  166SOPE   O1218637   0.805   1.555  10.752 -0.0247  0.4654 -0.0612
  166SOPE   O1118638   0.650   1.438  10.607 -0.1527  0.0066  0.1499
  166SOPE    C118639   0.724   1.415  10.483  0.1805 -0.0048 -0.4038
  166SOPE    HA18640   0.663   1.343  10.425 -1.9601 -1.0192  2.7629
  166SOPE    HB18641   0.821   1.362  10.494  0.7498  0.7504 -1.6030
  166SOPE    C218642   0.741   1.548  10.413 -0.1957 -0.1730 -0.2665
  166SOPE    HS18643   0.810   1.601  10.483  1.3521  0.1794 -1.9680
  166SOPE   O2118644   0.611   1.616  10.411 -0.1865  0.1704  0.1157
  166SOPE   C2118645   0.635   1.741  10.374  0.2889  0.4580  0.1696
  166SOPE   O2218646   0.743   1.795  10.374 -0.3930 -0.2080 -0.5209
  166SOPE   C2218647   0.498   1.806  10.338 -0.0047  0.5304 -0.1241
  166SOPE   H2R18648   0.451   1.833  10.435 -1.1233  0.6989 -0.7005
  166SOPE   H2S18649   0.432   1.724  10.302  0.6126 -0.1602  0.2618
  166SOPE    C318650   0.817   1.532  10.273  0.2748 -0.5180  0.1307
  166SOPE    HX18651   0.910   1.475  10.296  2.1734  2.3204  0.0311
  166SOPE    HY18652   0.842   1.630  10.227 -2.4772  0.8338  1.2594
  166SOPE   O3118653   0.732   1.460  10.185 -0.0173  0.0730 -0.0022
  166SOPE   C3118654   0.750   1.450  10.060  0.7833  0.0027  0.4089
  166SOPE   O3218655   0.839   1.486   9.987 -0.1043 -0.0961  0.0995
  166SOPE   C3218656   0.622   1.381   9.995  0.4812 -0.7179 -0.0800
  166SOPE   H2X18657   0.554   1.467   9.978  1.1332  0.0161  0.8871
  166SOPE   H2Y18658   0.578   1.314  10.071 -1.4015  2.0181  1.4118
  166SOPE   C2318659   0.508   1.903  10.220  0.6579  0.1114  0.4104
  166SOPE   H3R18660   0.595   1.970  10.233 -0.3332  1.2221  1.6653
  166SOPE   H3S18661   0.411   1.958  10.221 -0.5244 -1.8747  2.4631
  166SOPE   C2418662   0.516   1.834  10.079 -0.8957  0.0724 -1.6190
  166SOPE   H4R18663   0.614   1.783  10.069  0.5463  2.1871  0.5655
  166SOPE   H4S18664   0.435   1.758  10.074 -1.6473  0.7894 -0.8900
  166SOPE   C2518665   0.499   1.920   9.953 -0.9534 -0.4145 -0.6096
  166SOPE   H5R18666   0.393   1.950   9.950 -0.6514  1.2148  1.7370
  166SOPE   H5S18667   0.567   2.007   9.964  0.2629 -1.4774  0.9978
  166SOPE   C2618668   0.548   1.843   9.824  1.2188 -0.4623  0.7180
  166SOPE   H6R18669   0.655   1.811   9.824  1.0627 -1.0130 -0.3564
  166SOPE   H6S18670   0.490   1.748   9.821  1.2233 -0.4624 -2.3072
  166SOPE   C2718671   0.505   1.917   9.694 -0.0342 -0.4977 -0.7207
  166SOPE   H7R18672   0.395   1.934   9.691 -0.6140 -3.5540  0.1287
  166SOPE   H7S18673   0.555   2.016   9.692 -1.2766  0.1796  0.1685
  166SOPE   C2818674   0.551   1.841   9.566 -0.3016 -0.4068 -0.3861
  166SOPE   H8R18675   0.646   1.787   9.588  0.3543  0.1277 -1.7936
  166SOPE   H8S18676   0.489   1.753   9.536 -1.3747  0.6302 -1.3246
  166SOPE   C2918677   0.553   1.913   9.438  0.0427 -0.1684  0.5001
  166SOPE   H9118678   0.527   2.020   9.437 -0.4069 -0.1056 -4.4604
  166SOPE  C21018679   0.598   1.870   9.316  0.0370  0.4186  0.1530
  166SOPE  H10118680   0.592   1.943   9.234 -1.2840 -0.1947 -0.3201
  166SOPE  C21118681   0.661   1.738   9.286 -0.2453  0.3625 -0.2834
  166SOPE  H11R18682   0.575   1.669   9.269  1.0034 -1.2604 -0.3514
  166SOPE  H11S18683   0.724   1.698   9.369  1.1894  3.2981  0.1448
  166SOPE  C21218684   0.741   1.739   9.153 -0.3737 -0.2844 -0.6729
  166SOPE  H12R18685   0.789   1.641   9.131  0.0689 -0.6369  1.6509
  166SOPE  H12S18686   0.829   1.803   9.175  0.6959 -1.6700 -0.7898
  166SOPE  C21318687   0.670   1.790   9.024  0.3645 -0.8390  0.2866
  166SOPE  H13R18688   0.648   1.899   9.024  2.4959 -0.3577 -1.0568
  166SOPE  H13S18689   0.570   1.747   9.001  0.0615  0.8414 -1.9984
  166SOPE  C21418690   0.760   1.766   8.900 -0.3846  1.0848  0.0680
  166SOPE  H14R18691   0.852   1.827   8.909  0.4239 -0.1481  0.4105
  166SOPE  H14S18692   0.702   1.802   8.813 -1.2966  0.8020  0.5391
  166SOPE  C21518693   0.787   1.616   8.867  0.4652  0.4845 -0.6391
  166SOPE  H15R18694   0.692   1.559   8.868  0.5219  0.3997  0.2458
  166SOPE  H15S18695   0.864   1.564   8.929  1.2833  0.7303 -1.4182
  166SOPE  C21618696   0.858   1.594   8.722  0.1939  0.6391 -0.6357
  166SOPE  H16R18697   0.785   1.621   8.642 -0.3674  0.3947 -0.2103
  166SOPE  H16S18698   0.876   1.485   8.711 -0.5398 -0.0331  3.2277
  166SOPE  C21718699   0.985   1.669   8.693 -0.6097  0.2911  0.2489
  166SOPE  H17R18700   1.061   1.644   8.770  1.1624 -0.6408 -1.7168
  166SOPE  H17S18701   0.968   1.778   8.700 -0.9567  0.2536  0.0290
  166SOPE  C21818702   1.041   1.638   8.552 -0.0893 -0.3258 -0.5899
  166SOPE  H18R18703   1.055   1.529   8.531 -1.4509 -0.4369 -0.9753
  166SOPE  H18S18704   1.141   1.682   8.534 -0.0121 -1.0939 -2.1986
  166SOPE  H18T18705   0.974   1.681   8.476  0.7537  1.3431 -0.4362
  166SOPE   C3318706   0.633   1.325   9.850  0.8712  0.7467  0.1271
  166SOPE   H3X18707   0.542   1.269   9.821  1.7321 -0.5746 -0.1096
  166SOPE   H3Y18708   0.713   1.249   9.842  1.8359  1.7270  0.1438
  166SOPE   C3418709   0.654   1.425   9.735 -0.6280 -0.3533  0.2353
  166SOPE   H4X18710   0.748   1.482   9.751  0.3237 -1.3740 -1.4258
  166SOPE   H4Y18711   0.576   1.503   9.719 -2.3106 -1.7134  1.4805
  166SOPE   C3518712   0.656   1.357   9.602  0.5860  0.9424  0.1613
  166SOPE   H5X18713   0.558   1.305   9.596 -0.8985  3.6633 -1.3610
  166SOPE   H5Y18714   0.748   1.297   9.587  1.1840  1.8247  0.1903
  166SOPE   C3618715   0.659   1.444   9.474  0.5827  0.1770 -0.6312
  166SOPE   H6X18716   0.700   1.542   9.505  1.5320 -0.7653  1.2874
  166SOPE   H6Y18717   0.556   1.467   9.440 -0.1546 -1.9237  0.0618
  166SOPE   C3718718   0.738   1.376   9.360 -0.3525 -0.3487 -0.3435
  166SOPE   H7X18719   0.834   1.328   9.386 -0.5900 -1.6968 -1.8284
  166SOPE   H7Y18720   0.732   1.439   9.268 -2.6333  1.6763  1.0432
  166SOPE   C3818721   0.657   1.255   9.300  0.1117 -0.2389 -0.3450
  166SOPE   H8X18722   0.550   1.283   9.294  0.0102 -0.5642 -0.0451
  166SOPE   H8Y18723   0.662   1.164   9.362 -0.5623 -0.4710 -0.6195
  166SOPE   C3918724   0.694   1.217   9.158 -0.1993  0.2830  0.3942
  166SOPE   H9X18725   0.803   1.195   9.159 -0.5654 -1.8229 -0.1506
  166SOPE   H9Y18726   0.656   1.295   9.088 -3.2484  0.3490  1.9555
  166SOPE  C31018727   0.621   1.094   9.103 -0.5243  0.5218  0.0109
  166SOPE  H10X18728   0.512   1.107   9.091 -0.4678  0.8162 -0.1721
  166SOPE  H10Y18729   0.628   1.012   9.179  0.1021  1.6958  1.2588
  166SOPE  C31118730   0.686   1.047   8.973 -0.1488  0.4333 -0.0375
  166SOPE  H11X18731   0.622   0.961   8.946 -0.0994 -0.5011  2.5152
  166SOPE  H11Y18732   0.791   1.016   8.987 -0.6264 -0.2518  2.5883
  166SOPE  C31218733   0.677   1.145   8.854  0.1490  0.6099  0.6202
  166SOPE  H12X18734   0.730   1.239   8.883  0.0020  0.0917  2.7689
  166SOPE  H12Y18735   0.571   1.171   8.834  0.2345  0.1140 -0.5151
  166SOPE  C31318736   0.738   1.102   8.719  0.5623 -0.0745  0.6976
  166SOPE  H13X18737   0.680   1.021   8.670  0.3232 -0.1779  1.1463
  166SOPE  H13Y18738   0.838   1.059   8.743 -0.1200 -0.7151  2.5248
  166SOPE  C31418739   0.745   1.231   8.627 -0.2434 -0.8159  0.5864
  166SOPE  H14X18740   0.827   1.292   8.669  1.2423 -0.3043 -2.7455
  166SOPE  H14Y18741   0.646   1.283   8.632  0.6038  0.8193  1.1173
  166SOPE  C31518742   0.775   1.205   8.479 -0.0318  0.2180 -0.4689
  166SOPE  H15X18743   0.856   1.130   8.487 -0.4210 -0.1227  0.4386
  166SOPE  H15Y18744   0.825   1.291   8.429  2.7205 -1.6445 -1.0993
  166SOPE  C31618745   0.658   1.147   8.399  0.2629  0.6244  0.9397
  166SOPE  H16X18746   0.597   1.227   8.350  0.4390  0.5848  0.6530
  166SOPE  H16Y18747   0.589   1.092   8.466 -2.2760  0.8684 -1.3073
  166SOPE  C31718748   0.717   1.054   8.289  0.4568  0.7470  0.1623
  166SOPE  H17X18749   0.784   0.975   8.329 -0.5291 -1.4192 -2.1460
  166SOPE  H17Y18750   0.783   1.117   8.226 -0.4649  0.8207 -0.7661
  166SOPE  C31818751   0.608   0.976   8.215  0.2504  0.0490  0.2999
  166SOPE  H18X18752   0.521   1.040   8.189 -0.2188  0.1906  2.0783
  166SOPE  H18Y18753   0.560   0.903   8.284 -2.4109 -0.6627 -2.1381
  166SOPE  H18Z18754   0.653   0.928   8.126 -0.1885  0.5881 -0.2225
  167SOPE     N18755   3.044   1.608   6.011  0.2362  0.2806  0.7236
  167SOPE   HN118756   3.100   1.553   5.942 -0.8952  0.1723 -0.1316
  167SOPE   HN218757   2.955   1.626   5.961 -1.0233  0.2938  2.8445
  167SOPE   HN318758   3.081   1.703   6.032  0.9099  0.5387 -1.3865
  167SOPE   C1218759   3.018   1.534   6.144 -0.1680 -0.6781 -0.0017
  167SOPE  H12A18760   2.931   1.466   6.138 -0.5690 -0.2104  0.4153
  167SOPE  H12B18761   3.006   1.613   6.220  2.1923 -0.7986  0.5677
  167SOPE   C1118762   3.146   1.454   6.176  0.1331 -0.1485 -0.6568
  167SOPE  H11A18763   3.243   1.508   6.174 -0.9701  1.9584 -0.9821
  167SOPE  H11B18764   3.156   1.387   6.088 -0.6239 -2.4646  0.9377
  167SOPE     P18765   3.097   1.230   6.307 -0.0054  0.2574  0.1157
  167SOPE   O1318766   3.192   1.150   6.231 -0.1594  0.3674  0.6189
  167SOPE   O1418767   2.957   1.217   6.266  0.1852  0.0248 -0.5642
  167SOPE   O1218768   3.136   1.381   6.304  0.1810  0.2034  0.2407
  167SOPE   O1118769   3.096   1.187   6.462 -0.8617 -0.3441  0.2668
  167SOPE    C118770   3.200   1.241   6.545 -0.8851  0.2698  0.1655
  167SOPE    HA18771   3.175   1.248   6.652 -0.2762 -0.9204  0.4054
  167SOPE    HB18772   3.220   1.344   6.509 -1.8459  0.1431 -0.7945
  167SOPE    C218773   3.338   1.176   6.539 -0.1276 -0.3380 -0.1936
  167SOPE    HS18774   3.371   1.213   6.440  0.2122  1.6771  0.6230
  167SOPE   O2118775   3.321   1.034   6.560 -0.4182 -0.1305 -0.1078
  167SOPE   C2118776   3.416   0.964   6.502 -0.3721 -0.3937 -0.8466
  167SOPE   O2218777   3.505   1.019   6.439  0.3058 -0.8751  0.4653
  167SOPE   C2218778   3.404   0.818   6.544  0.8578 -0.0486  0.0774
  167SOPE   H2R18779   3.329   0.770   6.477 -2.2099  1.0450  2.5097
  167SOPE   H2S18780   3.355   0.803   6.643 -1.9862  1.2956 -1.0172
  167SOPE    C318781   3.435   1.241   6.644  0.3499  0.8569 -0.5224
  167SOPE    HX18782   3.533   1.190   6.629 -0.3691 -0.7110 -0.1715
  167SOPE    HY18783   3.402   1.207   6.744  2.8704 -1.5259 -0.3577
  167SOPE   O3118784   3.431   1.389   6.640  0.2437 -0.0043  0.4739
  167SOPE   C3118785   3.507   1.437   6.538  0.1120 -0.2403 -0.7835
  167SOPE   O3218786   3.545   1.380   6.444  0.1671  0.2015  0.0290
  167SOPE   C3218787   3.530   1.591   6.559  0.3354  0.5362 -0.4040
  167SOPE   H2X18788   3.450   1.640   6.499 -0.4030  0.1294  0.2318
  167SOPE   H2Y18789   3.631   1.621   6.523  0.8750 -0.5875  0.1409
  167SOPE   C2318790   3.536   0.737   6.541 -0.2408  0.9402 -0.1390
  167SOPE   H3R18791   3.579   0.742   6.438  1.3785 -0.3421  0.4344
  167SOPE   H3S18792   3.511   0.629   6.552 -0.5904  1.0351  0.0047
  167SOPE   C2418793   3.635   0.763   6.654 -1.0516 -0.0693 -0.3361
  167SOPE   H4R18794   3.702   0.844   6.619 -0.9001 -0.1491 -0.2303
  167SOPE   H4S18795   3.595   0.802   6.750  1.9187  3.6394 -0.3776
  167SOPE   C2518796   3.719   0.636   6.666  0.9673  1.2434  0.1577
  167SOPE   H5R18797   3.656   0.548   6.691  2.2398  0.2155 -0.1077
  167SOPE   H5S18798   3.755   0.608   6.564 -1.4784  0.4287 -0.5550
  167SOPE   C2618799   3.842   0.652   6.756 -0.5845  0.0946  0.5531
  167SOPE   H6R18800   3.899   0.557   6.744 -2.9504 -1.0388 -3.7259
  167SOPE   H6S18801   3.904   0.729   6.706 -3.0187 -0.6110 -4.0673
  167SOPE   C2718802   3.804   0.674   6.899  0.2421  0.2855 -0.5735
  167SOPE   H7R18803   3.751   0.770   6.918 -1.8371 -0.5081 -1.9772
  167SOPE   H7S18804   3.722   0.601   6.914  0.3660  0.2721  0.0284
  167SOPE   C2818805   3.914   0.650   7.002  0.3519  0.7791  0.2920
  167SOPE   H8R18806   3.859   0.638   7.098  1.1751  3.3852  1.1604
  167SOPE   H8S18807   3.964   0.556   6.971  0.1187  0.9008 -0.4762
  167SOPE   C2918808   4.002   0.770   6.994 -0.2658  0.3975  0.5625
  167SOPE   H9118809   4.045   0.769   6.893  1.7490 -2.3641  1.3206
  167SOPE  C21018810   4.052   0.851   7.088 -0.4254  0.2345  0.0541
  167SOPE  H10118811   4.105   0.942   7.056  0.2755  0.3465  1.4597
  167SOPE  C21118812   4.038   0.842   7.237  0.5850 -0.0200  0.8295
  167SOPE  H11R18813   4.136   0.818   7.283  1.8428  0.2599 -1.5147
  167SOPE  H11S18814   3.976   0.751   7.249  0.1836  0.1631  0.2068
  167SOPE  C21218815   3.972   0.962   7.318 -0.0403 -0.1485  0.1433
  167SOPE  H12R18816   4.039   1.050   7.314  0.0732 -0.2208  0.4615
  167SOPE  H12S18817   3.968   0.946   7.427  0.2372  0.1887  0.2045
  167SOPE  C21318818   3.834   0.999   7.253  0.0568  0.3627  0.1374
  167SOPE  H13R18819   3.850   1.018   7.145  1.8349 -0.2571  0.2656
  167SOPE  H13S18820   3.803   1.094   7.302 -1.1129  0.1744 -0.2017
  167SOPE  C21418821   3.730   0.893   7.269  0.5994  0.1744 -0.2302
  167SOPE  H14R18822   3.744   0.851   7.370  1.1988 -0.5285 -0.5913
  167SOPE  H14S18823   3.753   0.801   7.211  0.4670 -0.6065  0.9240
  167SOPE  C21518824   3.585   0.931   7.231  0.5432 -0.1034  0.1270
  167SOPE  H15R18825   3.583   1.039   7.260  0.2408 -0.1418  0.2478
  167SOPE  H15S18826   3.518   0.875   7.300  1.7674 -1.6185  0.1352
  167SOPE  C21618827   3.543   0.903   7.089 -0.1726  0.5267 -0.3113
  167SOPE  H16R18828   3.538   0.795   7.064 -0.8491 -0.1237  2.3950
  167SOPE  H16S18829   3.624   0.936   7.020 -1.1600  1.9734 -0.8247
  167SOPE  C21718830   3.408   0.975   7.043 -0.2044  0.2749  0.3637
  167SOPE  H17R18831   3.419   1.082   7.072  2.1464  0.3059 -0.3721
  167SOPE  H17S18832   3.315   0.938   7.090  0.2263 -1.8250 -0.3595
  167SOPE  C21818833   3.396   0.959   6.891  0.4771 -0.1393  0.4623
  167SOPE  H18R18834   3.472   1.027   6.847 -0.0668 -1.1050 -2.2020
  167SOPE  H18S18835   3.298   0.999   6.858  2.6936  3.8241 -2.2489
  167SOPE  H18T18836   3.397   0.853   6.857 -0.8653 -0.0258  0.0110
  167SOPE   C3318837   3.506   1.648   6.700  0.5166  0.2989 -0.7623
  167SOPE   H3X18838   3.575   1.605   6.776 -2.0940  0.5926  1.9519
  167SOPE   H3Y18839   3.408   1.606   6.732  2.2204 -1.4765  2.7856
  167SOPE   C3418840   3.505   1.801   6.695 -0.5180  1.1031 -0.6014
  167SOPE   H4X18841   3.434   1.835   6.617 -0.7064  0.3958 -0.7373
  167SOPE   H4Y18842   3.608   1.822   6.660  1.0231 -1.7037  1.8213
  167SOPE   C3518843   3.460   1.869   6.828 -0.3608 -0.6364  0.0242
  167SOPE   H5X18844   3.373   1.815   6.873 -0.7998 -0.4804 -0.6131
  167SOPE   H5Y18845   3.430   1.974   6.809  0.6660  0.2268  2.7723
  167SOPE   C3618846   3.577   1.862   6.929  0.0161  0.2214 -0.5052
  167SOPE   H6X18847   3.659   1.923   6.885 -0.9315 -1.0206 -4.3471
  167SOPE   H6Y18848   3.599   1.753   6.933  0.1336  0.0917 -3.0277
  167SOPE   C3718849   3.537   1.926   7.067  0.1618  0.0753 -0.3473
  167SOPE   H7X18850   3.436   1.892   7.099  0.2008  2.1537  2.2717
  167SOPE   H7Y18851   3.519   2.035   7.053  1.0753  0.3448  0.4473
  167SOPE   C3818852   3.626   1.892   7.186 -0.1645 -0.5390 -0.5373
  167SOPE   H8X18853   3.726   1.936   7.166 -1.2761  2.0528 -0.7457
  167SOPE   H8Y18854   3.635   1.781   7.187 -0.3468 -0.5573 -0.8886
  167SOPE   C3918855   3.569   1.937   7.317 -0.1238  0.8300  0.0880
  167SOPE   H9X18856   3.463   1.903   7.324  0.8302 -2.7217 -0.6600
  167SOPE   H9Y18857   3.582   2.046   7.334  2.4791  0.4668  0.9193
  167SOPE  C31018858   3.641   1.874   7.424 -0.4513 -0.0225 -0.1823
  167SOPE  H10X18859   3.748   1.904   7.430 -0.1328 -1.0364 -0.5852
  167SOPE  H10Y18860   3.644   1.766   7.402  0.7096 -0.4989  2.0823
  167SOPE  C31118861   3.581   1.897   7.572 -0.1712 -0.2706  0.1041
  167SOPE  H11X18862   3.472   1.876   7.574 -0.0545 -0.8381  0.7870
  167SOPE  H11Y18863   3.597   2.007   7.582 -1.9090  0.1699 -1.2725
  167SOPE  C31218864   3.650   1.802   7.674 -0.7815 -0.1343 -0.0258
  167SOPE  H12X18865   3.601   1.703   7.664 -1.3875  0.1301  0.3353
  167SOPE  H12Y18866   3.616   1.834   7.775  1.5598  1.0618  0.4536
  167SOPE  C31318867   3.802   1.808   7.672 -0.0353  0.5941  0.0627
  167SOPE  H13X18868   3.831   1.915   7.671  1.0282  0.3121 -0.0729
  167SOPE  H13Y18869   3.824   1.770   7.570  0.5894  0.0528  0.3945
  167SOPE  C31418870   3.885   1.742   7.781 -0.4546  0.5271 -0.4735
  167SOPE  H14X18871   3.992   1.772   7.773 -0.8617  2.2244  0.1581
  167SOPE  H14Y18872   3.874   1.632   7.765 -1.8535  0.5258  0.3500
  167SOPE  C31518873   3.843   1.778   7.924 -0.1150  0.3129 -0.1838
  167SOPE  H15X18874   3.740   1.738   7.938  0.4766 -0.5301  2.3100
  167SOPE  H15Y18875   3.843   1.888   7.942  0.3736 -0.2020  3.9620
  167SOPE  C31618876   3.935   1.710   8.022  0.5626 -0.1020  0.3704
  167SOPE  H16X18877   4.040   1.728   7.989  0.1627  0.9590 -0.3566
  167SOPE  H16Y18878   3.935   1.600   8.004  1.2251 -0.1311  0.5085
  167SOPE  C31718879   3.922   1.743   8.175 -0.3279 -0.4906  1.0121
  167SOPE  H17X18880   3.819   1.742   8.217  0.5589  0.4776  3.4233
  167SOPE  H17Y18881   3.965   1.846   8.181 -1.3620  0.2755 -2.4405
  167SOPE  C31818882   4.013   1.665   8.265 -0.0878  0.1418 -0.1012
  167SOPE  H18X18883   3.996   1.704   8.367 -0.5635 -0.1103 -0.0820
  167SOPE  H18Y18884   4.120   1.689   8.246 -0.6276  1.8312 -1.2760
  167SOPE  H18Z18885   3.995   1.557   8.277 -0.8771  0.2521 -0.2444
  168SOPE     N18886   0.662   4.386   6.568  0.2808  0.4181 -0.3258
  168SOPE   HN118887   0.598   4.468   6.565 -1.0365 -0.2256  3.9006
  168SOPE   HN218888   0.608   4.324   6.632  0.7631  0.8768  0.5451
  168SOPE   HN318889   0.749   4.410   6.620 -0.1576  0.4768  0.3946
  168SOPE   C1218890   0.701   4.332   6.432 -0.2890  0.6349  0.0757
  168SOPE  H12A18891   0.620   4.265   6.397 -0.7145  0.1244  1.9361
  168SOPE  H12B18892   0.785   4.262   6.449 -0.2754  0.5865 -0.1850
  168SOPE   C1118893   0.735   4.439   6.332 -0.1639 -0.8113 -0.0168
  168SOPE  H11A18894   0.646   4.501   6.309 -0.1321 -0.4047  0.9193
  168SOPE  H11B18895   0.755   4.382   6.239 -2.3671 -2.8140  0.6473
  168SOPE     P18896   0.860   4.663   6.351 -0.1922 -0.0038 -0.0221
  168SOPE   O1318897   0.773   4.739   6.438  0.1421 -0.4754  0.1420
  168SOPE   O1418898   0.858   4.688   6.205 -0.6670  0.4248  0.2992
  168SOPE   O1218899   0.853   4.508   6.369 -0.1550  1.0110 -0.3016
  168SOPE   O1118900   1.012   4.706   6.400 -0.6930 -0.4463  0.5803
  168SOPE    C118901   1.117   4.621   6.423 -0.6745  0.2106 -0.0556
  168SOPE    HA18902   1.209   4.684   6.421 -0.7881  0.3561 -1.4886
  168SOPE    HB18903   1.123   4.550   6.338  0.5901  1.7585 -1.3132
  168SOPE    C218904   1.111   4.544   6.561  0.3183  0.8399 -0.4099
  168SOPE    HS18905   1.044   4.456   6.548  0.1533  1.1455 -1.7054
  168SOPE   O2118906   1.066   4.633   6.664  0.2851  0.3595 -0.3513
  168SOPE   C2118907   0.950   4.596   6.725 -0.2162  0.0829  0.2426
  168SOPE   O2218908   0.879   4.497   6.692 -0.7231 -0.0104  0.6339
  168SOPE   C2218909   0.917   4.677   6.845  0.4707  0.2747  0.4897
  168SOPE   H2R18910   0.823   4.730   6.818 -0.2707 -0.7838  0.8980
  168SOPE   H2S18911   0.991   4.757   6.861 -1.0772  1.3420  2.8690
  168SOPE    C318912   1.252   4.487   6.594 -0.7798 -0.4506  0.6947
  168SOPE    HX18913   1.326   4.569   6.605  0.4620 -1.5240  0.6304
  168SOPE    HY18914   1.294   4.426   6.512 -1.2457  1.1009 -0.7480
  168SOPE   O3118915   1.246   4.412   6.713 -0.0378 -0.5078 -0.4140
  168SOPE   C3118916   1.355   4.400   6.791  0.3560  0.1572  0.3604
  168SOPE   O3218917   1.462   4.457   6.769 -0.4418  0.0965 -0.3101
  168SOPE   C3218918   1.326   4.314   6.920 -0.0504  0.1564  0.5837
  168SOPE   H2X18919   1.390   4.225   6.904  1.9700  1.9160 -1.9258
  168SOPE   H2Y18920   1.221   4.284   6.898 -0.1953  1.2674 -0.3536
  168SOPE   C2318921   0.913   4.592   6.975 -0.5685 -0.6122 -0.6660
  168SOPE   H3R18922   1.012   4.542   6.980  0.1193  0.7327 -0.1940
  168SOPE   H3S18923   0.834   4.514   6.981  1.0971 -2.2028  3.0901
  168SOPE   C2418924   0.906   4.691   7.095 -0.4267  0.4184 -0.4839
  168SOPE   H4R18925   0.987   4.766   7.086  0.4386 -0.6112 -1.6912
  168SOPE   H4S18926   0.809   4.744   7.091 -0.8975 -0.4533 -1.0341
  168SOPE   C2518927   0.925   4.608   7.227  0.2249 -0.1373  0.3060
  168SOPE   H5R18928   0.843   4.534   7.228 -0.4143  0.5640  1.3966
  168SOPE   H5S18929   1.018   4.548   7.217  1.5984  2.0894 -1.1512
  168SOPE   C2618930   0.931   4.686   7.360 -0.2250 -0.6112  0.3127
  168SOPE   H6R18931   0.998   4.769   7.328 -0.1574  0.5992  3.2998
  168SOPE   H6S18932   0.831   4.729   7.382  0.7935  1.4293  1.2692
  168SOPE   C2718933   0.976   4.606   7.469 -0.1546  0.0474 -0.5939
  168SOPE   H7R18934   0.913   4.518   7.494 -1.7033  1.4051  0.6165
  168SOPE   H7S18935   1.081   4.574   7.453  0.1545 -1.1759  2.9705
  168SOPE   C2818936   0.977   4.694   7.599  0.1221  0.1351 -0.8955
  168SOPE   H8R18937   1.014   4.799   7.595 -2.9623  1.5101  2.0398
  168SOPE   H8S18938   0.874   4.694   7.640  1.1805 -0.1998  1.9922
  168SOPE   C2918939   1.070   4.639   7.697  0.2227  0.5406  0.1038
  168SOPE   H9118940   1.165   4.613   7.646 -1.9461 -3.7595 -2.3388
  168SOPE  C21018941   1.053   4.620   7.831 -0.1103  0.9348 -0.7813
  168SOPE  H10118942   1.130   4.569   7.890 -1.5266  0.8510  1.1156
  168SOPE  C21118943   0.933   4.670   7.909 -0.4159 -0.0807 -0.0984
  168SOPE  H11R18944   0.849   4.598   7.895  0.7194 -1.7995  1.3490
  168SOPE  H11S18945   0.901   4.768   7.867  0.6001 -0.7924 -2.7458
  168SOPE  C21218946   0.970   4.692   8.058 -0.0542 -0.4554  0.2062
  168SOPE  H12R18947   1.073   4.733   8.056 -0.6574  1.2416  1.3010
  168SOPE  H12S18948   0.966   4.593   8.107 -1.9351  0.2078  1.5035
  168SOPE  C21318949   0.866   4.781   8.132  0.1818  0.3530  0.4085
  168SOPE  H13R18950   0.775   4.721   8.154 -0.5093  1.0618 -0.4621
  168SOPE  H13S18951   0.833   4.859   8.060  2.4596 -2.2214 -3.8395
  168SOPE  C21418952   0.913   4.848   8.257 -0.2510  0.4723  0.2926
  168SOPE  H14R18953   0.845   4.934   8.270  0.2927  1.3697 -2.2127
  168SOPE  H14S18954   1.014   4.884   8.228  0.5375 -0.3986  1.8399
  168SOPE  C21518955   0.915   4.751   8.381 -0.0052  0.2645  0.8858
  168SOPE  H15R18956   0.997   4.677   8.370 -0.4006  0.0939 -1.2990
  168SOPE  H15S18957   0.813   4.711   8.398 -0.3484  0.0288 -1.3472
  168SOPE  C21618958   0.959   4.813   8.512  0.6983  0.4848 -0.2277
  168SOPE  H16R18959   0.907   4.911   8.518 -1.1576 -0.4321 -0.5949
  168SOPE  H16S18960   1.068   4.833   8.516  0.7538  0.4382 -1.2485
  168SOPE  C21718961   0.914   4.729   8.637 -0.0011  0.2405  0.4622
  168SOPE  H17R18962   0.977   4.757   8.725  0.2453 -1.3160  0.8123
  168SOPE  H17S18963   0.946   4.624   8.623 -1.2667 -0.1023  0.1233
  168SOPE  C21818964   0.766   4.736   8.669  0.3823  0.1642 -0.4231
  168SOPE  H18R18965   0.722   4.837   8.660 -0.1329 -0.1531 -1.7059
  168SOPE  H18S18966   0.752   4.680   8.764  1.2873 -2.0309 -1.5187
  168SOPE  H18T18967   0.715   4.674   8.592  1.9779 -1.1279 -0.5041
  168SOPE   C3318968   1.352   4.391   7.045  0.1554 -0.2244  0.0289
  168SOPE   H3X18969   1.300   4.489   7.039  2.0659  0.9332  1.2689
  168SOPE   H3Y18970   1.455   4.425   7.068  0.2283 -1.7269  2.3269
  168SOPE   C3418971   1.300   4.312   7.169 -0.8482  0.6088  0.3607
  168SOPE   H4X18972   1.358   4.224   7.204  1.7115  2.3058  0.6740
  168SOPE   H4Y18973   1.194   4.282   7.167 -0.5944 -0.4429  1.8074
  168SOPE   C3518974   1.299   4.404   7.286  0.0186  0.0528 -0.0731
  168SOPE   H5X18975   1.251   4.499   7.257 -1.7729 -0.5002  0.9604
  168SOPE   H5Y18976   1.407   4.427   7.300  0.3916 -0.9714 -1.0897
  168SOPE   C3618977   1.238   4.341   7.410 -0.1000  0.7349 -0.7681
  168SOPE   H6X18978   1.159   4.265   7.391 -0.9312  0.6095  2.5626
  168SOPE   H6Y18979   1.205   4.411   7.490  0.1639 -1.4012  1.2990
  168SOPE   C3718980   1.347   4.263   7.498 -0.2881 -0.2296  0.2381
  168SOPE   H7X18981   1.435   4.330   7.512 -0.9959  0.5915  0.8307
  168SOPE   H7Y18982   1.373   4.162   7.459  1.2330  0.5323 -0.8186
  168SOPE   C3818983   1.304   4.251   7.647  0.2877  0.5633 -0.4163
  168SOPE   H8X18984   1.208   4.195   7.642  0.0609  0.7290  1.2978
  168SOPE   H8Y18985   1.281   4.355   7.679 -0.1871  1.3399 -3.0710
  168SOPE   C3918986   1.410   4.186   7.730 -0.0738  0.7764 -0.1743
  168SOPE   H9X18987   1.487   4.265   7.750  0.9974 -0.0129 -1.0923
  168SOPE   H9Y18988   1.454   4.095   7.685  0.2550  0.8847 -0.0809
  168SOPE  C31018989   1.353   4.136   7.871  0.4513  0.2588  0.4733
  168SOPE  H10X18990   1.291   4.046   7.850  2.6563 -1.3820  0.6459
  168SOPE  H10Y18991   1.284   4.211   7.916  1.1947 -0.2440  2.5425
  168SOPE  C31118992   1.470   4.124   7.969  0.4216 -0.6258  0.2761
  168SOPE  H11X18993   1.504   4.229   7.971  1.5917 -0.9742 -0.4424
  168SOPE  H11Y18994   1.542   4.049   7.929  1.1939  0.6860 -0.8404
  168SOPE  C31218995   1.430   4.086   8.106  0.2505  0.1938  0.1039
  168SOPE  H12X18996   1.428   3.975   8.109 -2.5919  0.0876 -1.6224
  168SOPE  H12Y18997   1.333   4.133   8.134  0.6835  0.8029  0.6108
  168SOPE  C31318998   1.535   4.147   8.197  0.6212  0.4032  0.2537
  168SOPE  H13X18999   1.539   4.256   8.177  0.7065  0.3235 -0.1587
  168SOPE  H13Y19000   1.626   4.087   8.176 -0.3474 -0.9035 -0.3871
  168SOPE  C31419001   1.507   4.118   8.346  0.2416  0.3573  0.0279
  168SOPE  H14X19002   1.414   4.059   8.361 -0.3019  0.4840 -2.3268
  168SOPE  H14Y19003   1.471   4.213   8.392 -1.9068 -0.4149  0.0725
  168SOPE  C31519004   1.624   4.055   8.419 -0.6453 -0.4690 -0.6562
  168SOPE  H15X19005   1.617   4.083   8.526  1.0623 -1.4738 -0.2525
  168SOPE  H15Y19006   1.722   4.102   8.395 -0.8174  0.1875 -0.0997
  168SOPE  C31619007   1.623   3.900   8.396 -0.0957  0.2503  0.9567
  168SOPE  H16X19008   1.620   3.863   8.292 -0.2202  0.5788  0.8431
  168SOPE  H16Y19009   1.529   3.859   8.440 -0.0637 -4.2373 -2.4849
  168SOPE  C31719010   1.743   3.827   8.460  0.2151 -0.4828  0.0998
  168SOPE  H17X19011   1.758   3.844   8.569 -0.3323  1.1050 -0.0432
  168SOPE  H17Y19012   1.821   3.875   8.398 -0.6391  1.1265  0.2164
  168SOPE  C31819013   1.752   3.675   8.429  0.4314 -0.1527  0.6083
  168SOPE  H18X19014   1.854   3.642   8.459  0.5884  1.8102  2.4817
  168SOPE  H18Y19015   1.748   3.662   8.319 -1.5472  2.3869  0.2816
  168SOPE  H18Z19016   1.668   3.622   8.479 -0.3884 -0.7439 -1.2950
  169SOPE     N19017   2.676   0.052   6.068  0.1598 -0.1152 -0.4181
  169SOPE   HN119018   2.637   0.062   5.972 -1.0160 -2.1059 -0.2050
  169SOPE   HN219019   2.697   0.144   6.111  0.3795 -0.7593  0.8800
  169SOPE   HN319020   2.771   0.009   6.072 -0.2162 -0.9915 -0.8365
  169SOPE   C1219021   2.564  -0.006   6.152 -0.4130  0.4659  0.5240
  169SOPE  H12A19022   2.553  -0.108   6.110 -0.5046 -0.8750  3.5873
  169SOPE  H12B19023   2.472   0.056   6.139  0.1139  0.9398 -1.3321
  169SOPE   C1119024   2.609  -0.008   6.300 -0.0765  0.3487  0.5207
  169SOPE  H11A19025   2.522  -0.046   6.356 -0.4756 -0.8709 -0.8737
  169SOPE  H11B19026   2.638   0.092   6.340 -1.6305  0.9926  0.0926
  169SOPE     P19027   2.716  -0.236   6.343  0.2376  0.5204  0.2471
  169SOPE   O1319028   2.855  -0.284   6.334  0.0391  0.1040 -0.3948
  169SOPE   O1419029   2.617  -0.301   6.250 -0.1452  0.6096 -0.0370
  169SOPE   O1219030   2.731  -0.091   6.309  0.2133  0.0339  0.1228
  169SOPE   O1119031   2.673  -0.236   6.494 -0.2148  0.0181  0.0413
  169SOPE    C119032   2.759  -0.222   6.606 -0.7886  0.1558  0.3485
  169SOPE    HA19033   2.726  -0.131   6.659 -2.3180 -0.5495  0.6538
  169SOPE    HB19034   2.869  -0.218   6.589 -0.6874 -1.0684  0.5880
  169SOPE    C219035   2.736  -0.344   6.694  0.7296  0.5627  0.5766
  169SOPE    HS19036   2.763  -0.431   6.631  0.0982 -0.5279  1.7688
  169SOPE   O2119037   2.592  -0.349   6.719 -0.5702  0.0007  0.3608
  169SOPE   C2119038   2.533  -0.474   6.698 -1.0692  0.4650  0.4389
  169SOPE   O2219039   2.607  -0.572   6.682 -0.0582 -0.2912  0.1635
  169SOPE   C2219040   2.382  -0.469   6.705 -0.4795  0.1404 -0.3254
  169SOPE   H2R19041   2.351  -0.475   6.599  0.7549 -0.9194 -0.6609
  169SOPE   H2S19042   2.341  -0.380   6.757  1.1208 -0.5623  2.3491
  169SOPE    C319043   2.812  -0.334   6.820  0.3824  0.0922 -1.1596
  169SOPE    HX19044   2.820  -0.229   6.856  0.1672  0.1045 -1.1452
  169SOPE    HY19045   2.917  -0.370   6.809  0.1704 -1.0880  0.3806
  169SOPE   O3119046   2.748  -0.413   6.916 -0.6776 -0.3419 -0.3446
  169SOPE   C3119047   2.803  -0.410   7.040 -0.2565  0.3163  0.2078
  169SOPE   O3219048   2.903  -0.348   7.071 -0.0425  0.0496  0.4507
  169SOPE   C3219049   2.742  -0.527   7.113  0.2036 -0.4095 -0.0874
  169SOPE   H2X19050   2.791  -0.623   7.085  2.1840 -0.4829  3.1122
  169SOPE   H2Y19051   2.632  -0.530   7.104  0.1995  0.1939 -0.2730
  169SOPE   C2319052   2.334  -0.590   6.789  0.3224 -0.6106 -0.5529
  169SOPE   H3R19053   2.371  -0.692   6.765  3.3857  0.0763  0.7738
  169SOPE   H3S19054   2.223  -0.583   6.786  0.3498  2.8796  1.1500
  169SOPE   C2419055   2.385  -0.566   6.938  0.3431 -0.3191  0.0122
  169SOPE   H4R19056   2.496  -0.573   6.946  0.3512  0.9056  1.4134
  169SOPE   H4S19057   2.365  -0.459   6.962  0.8299 -0.1985 -0.1036
  169SOPE   C2519058   2.306  -0.666   7.030  0.7151  0.4359 -0.4132
  169SOPE   H5R19059   2.200  -0.635   7.018  0.7334  0.7602  0.1960
  169SOPE   H5S19060   2.331  -0.763   6.983  1.8633  0.9211 -0.8420
  169SOPE   C2619061   2.338  -0.652   7.181  0.6426 -0.3376  0.0500
  169SOPE   H6R19062   2.449  -0.652   7.193  0.7909  1.3795 -1.0223
  169SOPE   H6S19063   2.303  -0.549   7.201  0.5761 -0.4675  0.6256
  169SOPE   C2719064   2.272  -0.763   7.266  0.0562  0.4008 -0.6125
  169SOPE   H7R19065   2.175  -0.724   7.305 -0.8001 -0.1118 -2.1629
  169SOPE   H7S19066   2.247  -0.851   7.204 -0.7519  0.4253 -0.3298
  169SOPE   C2819067   2.364  -0.816   7.371  0.3229  0.4349 -0.5572
  169SOPE   H8R19068   2.319  -0.911   7.409 -1.2109  0.8040 -1.3858
  169SOPE   H8S19069   2.467  -0.831   7.333  0.3757 -1.2304  0.1284
  169SOPE   C2919070   2.381  -0.718   7.484  0.0981 -0.6064 -0.2681
  169SOPE   H9119071   2.422  -0.625   7.442 -0.1557 -0.4927 -0.2707
  169SOPE  C21019072   2.355  -0.730   7.612 -0.8844  0.1314  0.5859
  169SOPE  H10119073   2.383  -0.644   7.675 -2.2117  1.7193 -0.8956
  169SOPE  C21119074   2.299  -0.851   7.684  0.1837  0.2908 -0.0611
  169SOPE  H11R19075   2.311  -0.946   7.626 -1.2099 -0.2042  0.4047
  169SOPE  H11S19076   2.189  -0.839   7.693 -0.0279 -1.4796  0.1816
  169SOPE  C21219077   2.364  -0.856   7.822 -0.4731  0.7130  0.0332
  169SOPE  H12R19078   2.336  -0.768   7.884 -0.2588  1.2591 -0.6324
  169SOPE  H12S19079   2.474  -0.852   7.811 -0.3022 -1.9675  0.2752
  169SOPE  C21319080   2.326  -0.991   7.894 -0.5056  0.3880  0.0297
  169SOPE  H13R19081   2.361  -1.082   7.840  2.6946  1.4520  0.0770
  169SOPE  H13S19082   2.217  -0.992   7.913 -0.2830  1.4680  1.5491
  169SOPE  C21419083   2.395  -0.994   8.036  0.8041 -0.3270  0.2664
  169SOPE  H14R19084   2.333  -0.928   8.101 -2.3999 -0.5712 -2.2921
  169SOPE  H14S19085   2.496  -0.949   8.022 -0.1147  1.4384 -1.1804
  169SOPE  C21519086   2.387  -1.129   8.097  0.0446  0.2311  0.8627
  169SOPE  H15R19087   2.441  -1.204   8.036  1.6361  1.9826  0.0010
  169SOPE  H15S19088   2.286  -1.171   8.112  0.0433  0.2244  0.8347
  169SOPE  C21619089   2.459  -1.136   8.235 -0.5376  0.0201  0.3785
  169SOPE  H16R19090   2.553  -1.077   8.235 -0.0278 -0.7591  1.5819
  169SOPE  H16S19091   2.479  -1.243   8.256  0.2631  0.5028  2.3718
  169SOPE  C21719092   2.358  -1.076   8.336 -0.0055 -0.6101 -0.1436
  169SOPE  H17R19093   2.262  -1.133   8.335 -0.9937  0.9780  0.1735
  169SOPE  H17S19094   2.319  -0.979   8.299 -1.1033 -1.6631 -1.9360
  169SOPE  C21819095   2.405  -1.077   8.483 -0.1648  0.4301 -0.0897
  169SOPE  H18R19096   2.438  -1.179   8.513 -0.8399  0.3426  0.3747
  169SOPE  H18S19097   2.323  -1.037   8.547 -1.9493  1.3810 -2.8170
  169SOPE  H18T19098   2.499  -1.018   8.496 -1.5689  2.6115  0.8607
  169SOPE   C3319099   2.780  -0.528   7.261  0.2985  0.7954 -0.1583
  169SOPE   H3X19100   2.715  -0.456   7.316  0.5449  0.4275  0.6304
  169SOPE   H3Y19101   2.884  -0.493   7.277  0.2237  0.8415  0.2408
  169SOPE   C3419102   2.763  -0.671   7.329  0.3334 -0.4133  0.2024
  169SOPE   H4X19103   2.833  -0.737   7.275  0.7128  0.0118  0.1707
  169SOPE   H4Y19104   2.661  -0.712   7.314  0.7077 -0.3774 -3.4283
  169SOPE   C3519105   2.802  -0.667   7.476  0.2857  0.1171 -1.0037
  169SOPE   H5X19106   2.741  -0.591   7.529  0.9124  1.2298 -1.8332
  169SOPE   H5Y19107   2.908  -0.637   7.493 -0.1181 -0.0387  2.5313
  169SOPE   C3619108   2.793  -0.806   7.548  0.5112  0.0159 -0.0722
  169SOPE   H6X19109   2.869  -0.883   7.521 -0.2448 -0.1889 -1.8001
  169SOPE   H6Y19110   2.698  -0.852   7.515  1.7510 -3.7442  1.0627
  169SOPE   C3719111   2.784  -0.792   7.702 -0.7392  0.1563  0.2370
  169SOPE   H7X19112   2.739  -0.884   7.747 -1.3569  0.5065  0.3491
  169SOPE   H7Y19113   2.702  -0.719   7.715 -0.7410  0.0011  1.1818
  169SOPE   C3819114   2.917  -0.760   7.770  0.2433  0.1044  0.3077
  169SOPE   H8X19115   2.992  -0.835   7.738  0.6389 -0.2873  2.0194
  169SOPE   H8Y19116   2.965  -0.665   7.740  1.5640 -1.1149 -1.6440
  169SOPE   C3919117   2.907  -0.759   7.925  0.9487  0.4739  0.2806
  169SOPE   H9X19118   2.826  -0.828   7.956 -0.2160  1.8332  0.3642
  169SOPE   H9Y19119   2.859  -0.661   7.949  1.9983  0.6776  1.6696
  169SOPE  C31019120   3.037  -0.761   7.992 -0.5576  0.8534 -1.0307
  169SOPE  H10X19121   3.086  -0.860   7.995 -3.3449 -0.6079  1.0858
  169SOPE  H10Y19122   3.010  -0.739   8.097 -1.4077  2.8803 -1.6163
  169SOPE  C31119123   3.138  -0.655   7.933 -0.0396  0.3996 -0.6532
  169SOPE  H11X19124   3.088  -0.556   7.933  1.4300  1.2289 -3.1293
  169SOPE  H11Y19125   3.156  -0.678   7.826 -1.1276  0.6182 -0.8918
  169SOPE  C31219126   3.272  -0.663   8.009  0.4156  0.1176 -0.6127
  169SOPE  H12X19127   3.253  -0.663   8.118 -1.3501 -0.8935 -0.8935
  169SOPE  H12Y19128   3.340  -0.576   7.992  0.8288  0.6938  3.1858
  169SOPE  C31319129   3.342  -0.795   7.969  0.2196 -0.4590 -0.3367
  169SOPE  H13X19130   3.350  -0.781   7.859  0.5459  1.3913 -0.1021
  169SOPE  H13Y19131   3.282  -0.888   7.982 -0.9770  0.0108 -2.0987
  169SOPE  C31419132   3.483  -0.811   8.042  0.5408  0.2162  0.1644
  169SOPE  H14X19133   3.552  -0.731   8.008 -1.5199  1.8434 -0.3747
  169SOPE  H14Y19134   3.525  -0.911   8.016 -1.3705 -0.8748  1.0358
  169SOPE  C31519135   3.476  -0.814   8.195 -0.5060  0.4867  0.2396
  169SOPE  H15X19136   3.392  -0.875   8.235  0.4806 -0.5993  0.7015
  169SOPE  H15Y19137   3.456  -0.709   8.225 -1.3771  0.4170 -0.0541
  169SOPE  C31619138   3.604  -0.860   8.261 -0.4026 -0.0303 -0.1070
  169SOPE  H16X19139   3.652  -0.947   8.210  1.2296  2.3469 -2.9147
  169SOPE  H16Y19140   3.569  -0.905   8.357  1.9521 -1.5850  0.1026
  169SOPE  C31719141   3.716  -0.756   8.272  0.1454 -0.4069  0.2328
  169SOPE  H17X19142   3.720  -0.695   8.180  0.8939 -1.5274 -0.5012
  169SOPE  H17Y19143   3.813  -0.811   8.264  0.6676  0.4924  0.2250
  169SOPE  C31819144   3.717  -0.665   8.394  0.1152 -0.3388  0.4846
  169SOPE  H18X19145   3.614  -0.628   8.412 -0.0552 -0.0388 -1.0236
  169SOPE  H18Y19146   3.791  -0.583   8.382 -0.2666 -0.1452 -0.6443
  169SOPE  H18Z19147   3.750  -0.713   8.489  0.4176  1.6166  1.4182
  170SOPE     N19148   5.332   6.239   6.536 -0.5682 -0.3338 -0.1250
  170SOPE   HN119149   5.432   6.250   6.512 -0.1686 -2.7171  0.1399
  170SOPE   HN219150   5.284   6.233   6.444  0.5902 -0.3720 -0.7437
  170SOPE   HN319151   5.291   6.315   6.594  1.5308  1.3531 -0.7138
  170SOPE   C1219152   5.315   6.109   6.610 -0.5094 -0.0538  0.2893
  170SOPE  H12A19153   5.207   6.099   6.631 -1.2629  4.4918 -0.3648
  170SOPE  H12B19154   5.371   6.111   6.706 -0.7484  1.3749  0.4306
  170SOPE   C1119155   5.378   5.995   6.517  0.2018 -0.3961  0.1349
  170SOPE  H11A19156   5.316   5.986   6.425  0.4290  0.4333 -0.1114
  170SOPE  H11B19157   5.377   5.905   6.582  0.7240 -0.7571 -0.3478
  170SOPE     P19158   5.616   5.925   6.430  0.1401  0.6003  0.0426
  170SOPE   O1319159   5.747   5.994   6.399  0.4462  1.0768 -0.0071
  170SOPE   O1419160   5.554   5.857   6.315  0.1487 -0.7105 -0.0440
  170SOPE   O1219161   5.512   6.029   6.490  0.1575  0.3684 -0.1465
  170SOPE   O1119162   5.626   5.830   6.558 -0.2668 -0.9821 -0.2764
  170SOPE    C119163   5.616   5.684   6.545  1.0778  0.7926 -0.1497
  170SOPE    HA19164   5.654   5.644   6.449  0.1781 -1.7865  0.4831
  170SOPE    HB19165   5.516   5.639   6.558  1.1311  0.8485  0.5093
  170SOPE    C219166   5.697   5.618   6.664 -0.1450 -0.3788 -0.0872
  170SOPE    HS19167   5.699   5.507   6.668 -0.6780 -0.3543  1.4249
  170SOPE   O2119168   5.652   5.664   6.800 -0.2636 -0.1782 -0.9112
  170SOPE   C2119169   5.528   5.648   6.841  0.3285  0.0956 -0.4316
  170SOPE   O2219170   5.436   5.602   6.778  0.5040 -0.0399  0.4098
  170SOPE   C2219171   5.508   5.690   6.987  0.6848 -0.4223 -0.6029
  170SOPE   H2R19172   5.430   5.770   6.994 -2.6313 -3.4404  0.0881
  170SOPE   H2S19173   5.602   5.739   7.020  0.5987 -0.7472  0.1417
  170SOPE    C319174   5.846   5.674   6.656  0.2636 -0.2838 -0.8058
  170SOPE    HX19175   5.839   5.784   6.649  1.2062 -0.2608 -1.5471
  170SOPE    HY19176   5.897   5.652   6.559 -1.2108 -1.3730 -1.3725
  170SOPE   O3119177   5.921   5.639   6.778 -0.5197 -0.2978  0.5995
  170SOPE   C3119178   5.935   5.723   6.876  0.9817 -0.5068  0.2402
  170SOPE   O3219179   5.884   5.835   6.884  0.0886  0.0672 -0.1205
  170SOPE   C3219180   6.041   5.673   6.974  0.1081 -0.0612  0.0796
  170SOPE   H2X19181   6.117   5.750   6.948 -3.5232  3.0767 -2.3748
  170SOPE   H2Y19182   6.071   5.571   6.943 -0.9134 -0.1041 -0.8391
  170SOPE   C2319183   5.467   5.572   7.072 -0.0838 -0.2771 -1.0283
  170SOPE   H3R19184   5.551   5.499   7.076  1.6473  1.6591  0.5676
  170SOPE   H3S19185   5.380   5.520   7.027 -2.0675  3.0192 -1.2793
  170SOPE   C2419186   5.412   5.612   7.210  0.2048  0.2968 -0.2764
  170SOPE   H4R19187   5.373   5.716   7.215  0.4017  0.4575 -1.7414
  170SOPE   H4S19188   5.326   5.545   7.232 -0.6258  0.3787 -2.9570
  170SOPE   C2519189   5.523   5.609   7.324  0.2213 -0.6755 -0.2884
  170SOPE   H5R19190   5.581   5.514   7.327  0.8418 -0.3233 -0.8348
  170SOPE   H5S19191   5.601   5.681   7.293 -1.5355  0.2270 -2.9698
  170SOPE   C2619192   5.464   5.661   7.456  0.1665 -0.2662  0.3026
  170SOPE   H6R19193   5.550   5.709   7.507 -0.4319  1.3526 -0.1315
  170SOPE   H6S19194   5.387   5.741   7.448 -0.4380 -0.8693 -0.0474
  170SOPE   C2719195   5.395   5.549   7.533  0.1465 -0.1754  0.2260
  170SOPE   H7R19196   5.315   5.513   7.465 -1.4232  1.1800  1.2604
  170SOPE   H7S19197   5.469   5.471   7.563 -1.0419 -1.6330 -0.4896
  170SOPE   C2819198   5.324   5.600   7.660  0.6175 -0.9824  0.4805
  170SOPE   H8R19199   5.275   5.697   7.637 -1.1675 -1.2261  2.8866
  170SOPE   H8S19200   5.246   5.523   7.674  0.8210 -1.0047  1.5984
  170SOPE   C2919201   5.401   5.614   7.786  0.1151 -0.0889  0.0447
  170SOPE   H9119202   5.454   5.522   7.814  1.6619  0.6961 -0.1739
  170SOPE  C21019203   5.392   5.719   7.872 -0.0938 -0.6658 -0.4297
  170SOPE  H10119204   5.455   5.717   7.962 -0.6406 -0.6048 -0.0452
  170SOPE  C21119205   5.315   5.851   7.860 -0.2833 -0.6683  0.1045
  170SOPE  H11R19206   5.261   5.873   7.955 -2.9181 -1.9433 -0.9945
  170SOPE  H11S19207   5.246   5.855   7.773  0.9959  2.2272 -0.8740
  170SOPE  C21219208   5.416   5.962   7.848  0.7037 -0.2095  0.0309
  170SOPE  H12R19209   5.360   6.055   7.869  3.5190  1.3314  1.3222
  170SOPE  H12S19210   5.465   5.966   7.749 -1.1778 -0.2102 -0.9479
  170SOPE  C21319211   5.528   5.980   7.957 -0.0705  0.2376 -0.2493
  170SOPE  H13R19212   5.559   6.085   7.940  0.5253  0.6054  2.6006
  170SOPE  H13S19213   5.615   5.912   7.943  1.4263  1.5875  1.9037
  170SOPE  C21419214   5.478   5.971   8.100 -0.0967 -1.2946  0.1106
  170SOPE  H14R19215   5.444   5.866   8.113  0.7271 -1.7234 -0.9602
  170SOPE  H14S19216   5.383   6.027   8.108  0.8730  0.4323  0.0486
  170SOPE  C21519217   5.576   6.011   8.213 -0.5715  0.4893  0.3805
  170SOPE  H15R19218   5.665   5.945   8.219 -0.7503  0.2776  0.7419
  170SOPE  H15S19219   5.523   5.994   8.309  0.5015  2.5218  1.3963
  170SOPE  C21619220   5.627   6.158   8.218  0.1190  0.5540  0.0914
  170SOPE  H16R19221   5.548   6.235   8.227  0.2286  0.6246  0.4944
  170SOPE  H16S19222   5.673   6.181   8.120 -2.3324  0.3326 -1.1822
  170SOPE  C21719223   5.727   6.181   8.331  0.1658  0.2315 -0.3142
  170SOPE  H17R19224   5.822   6.129   8.308  0.0638  0.1259 -0.4889
  170SOPE  H17S19225   5.689   6.148   8.430  1.0277  1.1199  0.3350
  170SOPE  C21819226   5.773   6.330   8.345  0.1036 -0.9278 -0.2869
  170SOPE  H18R19227   5.868   6.339   8.402 -1.3601  0.2461  2.0850
  170SOPE  H18S19228   5.691   6.393   8.384 -0.3048 -1.4243 -0.3229
  170SOPE  H18T19229   5.789   6.361   8.239  0.0399 -1.1390 -0.3592
  170SOPE   C3319230   5.987   5.670   7.112 -0.3001  0.1265  0.3502
  170SOPE   H3X19231   5.932   5.761   7.143  1.0538  1.1324 -0.1054
  170SOPE   H3Y19232   6.068   5.682   7.187  0.7465  2.7806 -1.0661
  170SOPE   C3419233   5.912   5.537   7.143  0.2655  0.1214  0.2230
  170SOPE   H4X19234   5.981   5.450   7.138  0.4070  0.1941  0.7351
  170SOPE   H4Y19235   5.829   5.529   7.071 -0.2755 -0.5474  0.9067
  170SOPE   C3519236   5.867   5.532   7.291 -0.1891  0.0219  0.5073
  170SOPE   H5X19237   5.783   5.460   7.307 -3.3184  3.4210  0.9258
  170SOPE   H5Y19238   5.820   5.632   7.301  0.1489  0.2092  0.2194
  170SOPE   C3619239   5.980   5.519   7.400 -0.1969 -0.8881 -0.3112
  170SOPE   H6X19240   6.046   5.607   7.382 -0.6968 -0.7222 -1.3990
  170SOPE   H6Y19241   6.049   5.435   7.376  0.9350 -0.3884  0.9811
  170SOPE   C3719242   5.926   5.516   7.542  0.7241 -0.5575 -0.4095
  170SOPE   H7X19243   5.869   5.421   7.547 -0.0151 -0.0684  0.7635
  170SOPE   H7Y19244   5.855   5.600   7.552  2.8563  1.4764 -1.4325
  170SOPE   C3819245   6.037   5.519   7.644 -0.0481  0.3845  0.0285
  170SOPE   H8X19246   6.098   5.610   7.624  0.7003  0.3186  1.8040
  170SOPE   H8Y19247   6.110   5.438   7.625  0.3003  1.1356 -2.1605
  170SOPE   C3919248   5.989   5.520   7.795 -0.4388 -0.1313 -0.2139
  170SOPE   H9X19249   5.924   5.434   7.824 -1.8428  0.6095 -1.0727
  170SOPE   H9Y19250   5.932   5.609   7.829  0.9513  0.3926  0.8590
  170SOPE  C31019251   6.121   5.522   7.879  0.0432 -0.3796 -0.8371
  170SOPE  H10X19252   6.181   5.614   7.859  1.1942 -0.8690  0.2359
  170SOPE  H10Y19253   6.186   5.436   7.851  1.9732  0.9559 -0.6491
  170SOPE  C31119254   6.102   5.506   8.037  0.6496 -0.5745 -0.5040
  170SOPE  H11X19255   6.063   5.403   8.051  0.7628 -0.5971 -0.3460
  170SOPE  H11Y19256   6.027   5.577   8.078  2.0939  0.6205  0.2061
  170SOPE  C31219257   6.226   5.508   8.135  1.2680  0.9131  1.1147
  170SOPE  H12X19258   6.257   5.611   8.162  1.5276  0.9835  0.5739
  170SOPE  H12Y19259   6.306   5.462   8.073 -1.4414 -0.9590 -1.2969
  170SOPE  C31319260   6.201   5.449   8.279 -0.0716 -0.0815  0.0986
  170SOPE  H13X19261   6.155   5.349   8.263 -0.7407  0.2156  0.1489
  170SOPE  H13Y19262   6.126   5.515   8.327 -0.1531  1.1885 -1.7179
  170SOPE  C31419263   6.329   5.447   8.355  0.6245 -0.2194  0.4886
  170SOPE  H14X19264   6.377   5.547   8.359  1.4018 -0.5694  0.1061
  170SOPE  H14Y19265   6.399   5.382   8.298 -0.2215 -2.5378  1.9263
  170SOPE  C31519266   6.329   5.381   8.488 -0.3609 -0.7503  0.3487
  170SOPE  H15X19267   6.292   5.276   8.488  0.3833 -1.0215 -0.1813
  170SOPE  H15Y19268   6.264   5.449   8.547  2.2406  0.8316  1.5540
  170SOPE  C31619269   6.465   5.395   8.557 -0.5951  0.0344 -0.1901
  170SOPE  H16X19270   6.516   5.494   8.554 -0.9136  0.1724 -1.2896
  170SOPE  H16Y19271   6.524   5.317   8.507 -4.0092 -2.8807 -0.0670
  170SOPE  C31719272   6.467   5.357   8.708  0.6362  0.6986  0.1123
  170SOPE  H17X19273   6.396   5.272   8.717  1.6003 -0.4607 -2.2870
  170SOPE  H17Y19274   6.437   5.439   8.777  1.2567 -2.0498  3.9669
  170SOPE  C31819275   6.603   5.304   8.753 -0.5217 -0.3089 -0.4465
  170SOPE  H18X19276   6.589   5.275   8.860 -0.5816  0.6604 -0.1853
  170SOPE  H18Y19277   6.677   5.386   8.752 -0.8664 -0.0013 -0.7931
  170SOPE  H18Z19278   6.638   5.211   8.704 -0.5604 -0.3558 -0.3858
  171SOPE     N19279   5.574   2.627   6.354  0.0688  0.3263 -0.2967
  171SOPE   HN119280   5.530   2.549   6.407 -0.1180 -0.0258 -0.9560
  171SOPE   HN219281   5.669   2.638   6.394  0.0268 -0.1808 -0.0547
  171SOPE   HN319282   5.525   2.717   6.373  0.1971  0.2274  0.5135
  171SOPE   C1219283   5.569   2.586   6.214  0.2680  0.1870  0.6698
  171SOPE  H12A19284   5.562   2.475   6.208  1.6163  0.1238 -0.3381
  171SOPE  H12B19285   5.651   2.614   6.145  1.0956 -3.0722  0.1672
  171SOPE   C1119286   5.442   2.632   6.145  0.2270 -0.3906 -0.4205
  171SOPE  H11A19287   5.442   2.606   6.037  1.5194  1.0567 -0.8102
  171SOPE  H11B19288   5.439   2.743   6.153 -0.8252 -0.4664  0.2904
  171SOPE     P19289   5.204   2.524   6.131  0.3523 -0.5087 -0.2331
  171SOPE   O1319290   5.244   2.481   5.996 -0.1111  0.9747  0.3974
  171SOPE   O1419291   5.091   2.623   6.154  0.6243  0.4164 -0.5042
  171SOPE   O1219292   5.330   2.576   6.213  0.1499 -0.2355 -0.3153
  171SOPE   O1119293   5.172   2.393   6.206 -0.1549  0.2579  0.2647
  171SOPE    C119294   5.106   2.397   6.335 -0.1255  0.2161  0.0288
  171SOPE    HA19295   5.056   2.298   6.348  1.5505 -1.1119 -2.7868
  171SOPE    HB19296   5.011   2.455   6.335  0.2182  0.8145  1.2125
  171SOPE    C219297   5.204   2.423   6.443  0.4049 -0.1481 -0.5230
  171SOPE    HS19298   5.268   2.509   6.414  0.6150 -0.1169  0.0116
  171SOPE   O2119299   5.274   2.304   6.457  0.2708  0.5204 -0.2988
  171SOPE   C2119300   5.403   2.322   6.513  0.2192  0.4355 -0.7011
  171SOPE   O2219301   5.467   2.424   6.503 -0.1115 -0.4574  0.2037
  171SOPE   C2219302   5.452   2.187   6.574 -0.2823 -0.1083  1.1242
  171SOPE   H2R19303   5.561   2.192   6.593 -0.1894 -0.5091  0.7114
  171SOPE   H2S19304   5.433   2.103   6.503  0.5980  1.2917 -0.8805
  171SOPE    C319305   5.142   2.464   6.578 -0.1773  0.4112 -0.0094
  171SOPE    HX19306   5.123   2.368   6.630 -0.6445  0.9025  0.7482
  171SOPE    HY19307   5.052   2.527   6.566  1.2432  2.6453  0.3027
  171SOPE   O3119308   5.236   2.549   6.644 -0.4963 -0.0878 -0.1683
  171SOPE   C3119309   5.187   2.591   6.763  0.8626 -0.7557  0.3076
  171SOPE   O3219310   5.070   2.570   6.803 -0.3792  0.5606  0.4265
  171SOPE   C3219311   5.292   2.657   6.846 -0.5269 -0.2040 -0.0019
  171SOPE   H2X19312   5.377   2.685   6.780 -2.3297 -0.9326 -2.8029
  171SOPE   H2Y19313   5.338   2.583   6.915 -0.4598 -2.1019 -1.9616
  171SOPE   C2319314   5.362   2.154   6.701 -0.2055 -0.2463  0.8437
  171SOPE   H3R19315   5.393   2.056   6.743 -0.2987 -0.7978 -0.3236
  171SOPE   H3S19316   5.256   2.139   6.669  0.0204  0.0080 -0.0603
  171SOPE   C2419317   5.369   2.252   6.819  0.3769 -0.4273 -0.1873
  171SOPE   H4R19318   5.474   2.281   6.835  0.0570 -0.0037  1.2463
  171SOPE   H4S19319   5.310   2.340   6.786  1.7927  0.5816 -0.1051
  171SOPE   C2519320   5.296   2.196   6.940  0.4923  0.4367 -0.1332
  171SOPE   H5R19321   5.196   2.162   6.905 -0.1956  1.8087  0.4397
  171SOPE   H5S19322   5.355   2.108   6.975  2.8643  3.0279  2.9410
  171SOPE   C2619323   5.279   2.301   7.047  0.3324  0.0902 -0.7861
  171SOPE   H6R19324   5.377   2.349   7.065  0.4991  0.1075 -1.6637
  171SOPE   H6S19325   5.214   2.386   7.017 -3.8334 -1.5819  2.4972
  171SOPE   C2719326   5.229   2.238   7.170  0.3287 -0.4795 -0.3046
  171SOPE   H7R19327   5.123   2.215   7.148  0.4476 -0.6422 -0.7267
  171SOPE   H7S19328   5.280   2.139   7.182  0.5355 -0.3245  0.1004
  171SOPE   C2819329   5.252   2.325   7.298 -0.0151  0.5509  0.4137
  171SOPE   H8R19330   5.224   2.262   7.385 -1.1598  1.6805  0.8976
  171SOPE   H8S19331   5.362   2.324   7.313  0.0493 -3.3538  0.7056
  171SOPE   C2919332   5.195   2.469   7.287  0.5423  0.6045  0.1233
  171SOPE   H9119333   5.204   2.526   7.194  0.0937  1.5506  0.6403
  171SOPE  C21019334   5.138   2.527   7.395 -0.4427 -0.6970  0.9759
  171SOPE  H10119335   5.111   2.634   7.391  0.5949 -0.4447 -1.8009
  171SOPE  C21119336   5.121   2.466   7.532 -0.1102  0.6925  0.0052
  171SOPE  H11R19337   5.151   2.360   7.545  3.9943  1.6417 -0.3106
  171SOPE  H11S19338   5.011   2.470   7.543 -0.2295 -1.3703 -0.1295
  171SOPE  C21219339   5.188   2.555   7.632  0.1135 -0.8102 -0.0659
  171SOPE  H12R19340   5.127   2.647   7.641  2.7845  1.0817 -0.1038
  171SOPE  H12S19341   5.294   2.571   7.603 -0.3983  1.7774 -0.7529
  171SOPE  C21319342   5.178   2.486   7.770 -0.2379 -0.2036  0.4910
  171SOPE  H13R19343   5.237   2.392   7.760  0.9685  0.3082  2.2606
  171SOPE  H13S19344   5.073   2.466   7.801  0.2465  0.6041  2.9032
  171SOPE  C21419345   5.249   2.569   7.882 -0.3976 -0.3241 -0.2159
  171SOPE  H14R19346   5.185   2.658   7.903 -0.1925 -0.3486  0.5342
  171SOPE  H14S19347   5.344   2.604   7.837 -0.5990 -2.0652 -2.1344
  171SOPE  C21519348   5.291   2.480   8.003  0.5506  1.0934 -0.0076
  171SOPE  H15R19349   5.294   2.376   7.964  0.1461  1.1443 -0.1931
  171SOPE  H15S19350   5.199   2.472   8.066 -0.1931 -0.5627 -1.2108
  171SOPE  C21619351   5.416   2.534   8.070 -0.3285 -0.1696 -0.3881
  171SOPE  H16R19352   5.391   2.628   8.125  0.1303 -0.6688  0.6889
  171SOPE  H16S19353   5.500   2.550   7.999 -0.6493 -0.7089 -0.8978
  171SOPE  C21719354   5.474   2.442   8.187 -0.1842  0.4650  0.5445
  171SOPE  H17R19355   5.479   2.347   8.129  0.2188  0.5542  0.4250
  171SOPE  H17S19356   5.395   2.430   8.264  0.8572 -1.9266  1.3524
  171SOPE  C21819357   5.620   2.476   8.213 -0.0452  0.2858 -0.1424
  171SOPE  H18R19358   5.677   2.408   8.280  0.7747 -0.0525 -1.1458
  171SOPE  H18S19359   5.615   2.576   8.262 -1.4395 -0.4691  1.3206
  171SOPE  H18T19360   5.674   2.477   8.116 -0.3123  0.4364 -0.2911
  171SOPE   C3319361   5.249   2.792   6.906  0.6337 -0.2906  0.2004
  171SOPE   H3X19362   5.155   2.776   6.963  0.6536 -1.3635 -0.0457
  171SOPE   H3Y19363   5.223   2.857   6.820 -0.8567 -1.5319 -0.3392
  171SOPE   C3419364   5.350   2.843   7.013 -0.3284  0.1875  0.8623
  171SOPE   H4X19365   5.322   2.951   7.017  1.5140  0.7178  0.4384
  171SOPE   H4Y19366   5.452   2.828   6.971 -0.9566  0.7697 -0.9815
  171SOPE   C3519367   5.334   2.788   7.161 -0.7255 -0.3090 -0.3403
  171SOPE   H5X19368   5.355   2.679   7.155  1.1858  0.1005 -4.2187
  171SOPE   H5Y19369   5.234   2.816   7.200  0.0758  1.4046  0.5565
  171SOPE   C3619370   5.433   2.862   7.252 -0.6439  0.0971 -0.0267
  171SOPE   H6X19371   5.388   2.962   7.269  1.2523  0.7813  1.2769
  171SOPE   H6Y19372   5.538   2.874   7.218 -0.9165 -0.7649 -1.2571
  171SOPE   C3719373   5.431   2.794   7.397  0.8357  0.7943 -0.5307
  171SOPE   H7X19374   5.484   2.697   7.389 -2.2429 -1.1164  0.2887
  171SOPE   H7Y19375   5.329   2.758   7.423  1.8208 -3.0041 -1.3190
  171SOPE   C3819376   5.504   2.877   7.500  0.2085 -0.1447  0.0542
  171SOPE   H8X19377   5.435   2.963   7.515 -0.8214 -0.7454 -1.0642
  171SOPE   H8Y19378   5.601   2.910   7.459  0.6290 -2.0257 -0.5523
  171SOPE   C3919379   5.534   2.808   7.636 -0.1177  0.5359 -0.2351
  171SOPE   H9X19380   5.588   2.712   7.618 -0.7771  0.3690 -1.4314
  171SOPE   H9Y19381   5.442   2.768   7.686 -1.1101  1.1552 -1.5198
  171SOPE  C31019382   5.618   2.895   7.730 -0.0242 -0.0640  0.2694
  171SOPE  H10X19383   5.552   2.980   7.755 -0.2664  0.2338 -1.3012
  171SOPE  H10Y19384   5.711   2.935   7.684 -0.6816 -1.0429 -2.0677
  171SOPE  C31119385   5.661   2.817   7.859  0.0262  0.1771  0.0275
  171SOPE  H11X19386   5.732   2.738   7.827  1.6186  1.4992  0.1527
  171SOPE  H11Y19387   5.568   2.776   7.901  0.1025 -1.8571 -1.6381
  171SOPE  C31219388   5.731   2.906   7.966 -0.3975  0.1286 -0.4398
  171SOPE  H12X19389   5.659   2.980   8.008 -1.4660 -1.7698  1.1971
  171SOPE  H12Y19390   5.811   2.968   7.920 -2.0805  2.4331 -0.4761
  171SOPE  C31319391   5.786   2.833   8.093 -0.3424 -0.5711  0.4123
  171SOPE  H13X19392   5.862   2.757   8.066  0.9599  0.5515  0.7869
  171SOPE  H13Y19393   5.712   2.775   8.153  0.7018 -2.3085  0.0782
  171SOPE  C31419394   5.878   2.936   8.175  0.1985  0.0155  0.7479
  171SOPE  H14X19395   5.931   3.004   8.105  0.8361  0.1142  1.3080
  171SOPE  H14Y19396   5.951   2.871   8.228 -0.7276 -1.8309 -0.1708
  171SOPE  C31519397   5.793   3.021   8.265 -0.2932  0.3507 -0.6297
  171SOPE  H15X19398   5.756   2.949   8.340 -0.7165  0.1298 -1.0467
  171SOPE  H15Y19399   5.708   3.076   8.220 -2.5744 -2.2426  0.2925
  171SOPE  C31619400   5.871   3.122   8.357 -0.4353 -0.0565  0.1971
  171SOPE  H16X19401   5.980   3.114   8.340 -0.0264  0.2293  2.3398
  171SOPE  H16Y19402   5.850   3.091   8.462 -0.7232  1.9404  0.7887
  171SOPE  C31719403   5.846   3.264   8.314  0.0247  0.2616  0.8786
  171SOPE  H17X19404   5.738   3.289   8.322 -0.0402  0.6434 -0.8488
  171SOPE  H17Y19405   5.883   3.278   8.211 -1.4587 -1.5145  0.0349
  171SOPE  C31819406   5.923   3.370   8.402  0.0483 -0.0749 -0.1667
  171SOPE  H18X19407   6.027   3.333   8.411 -0.0461 -0.1522  0.6761
  171SOPE  H18Y19408   5.877   3.395   8.500  0.3110 -0.0055 -0.0613
  171SOPE  H18Z19409   5.926   3.465   8.344 -5.2956  1.3289  1.2902
  172SOPE     N19410   4.907   3.160   6.032  0.0765 -0.3098  0.2076
  172SOPE   HN119411   4.939   3.151   5.933  1.7928 -0.4867  0.7397
  172SOPE   HN219412   4.968   3.126   6.109 -2.1550 -1.9847  1.3275
  172SOPE   HN319413   4.818   3.107   6.041 -0.9332  1.0247 -1.2010
  172SOPE   C1219414   4.866   3.300   6.054  0.6180 -0.4766 -0.3705
  172SOPE  H12A19415   4.761   3.313   6.021  0.7050  0.7412 -0.2307
  172SOPE  H12B19416   4.931   3.363   5.989  2.1220 -0.8575  0.7081
  172SOPE   C1119417   4.893   3.333   6.207  0.5758 -0.3963  0.2162
  172SOPE  H11A19418   4.831   3.422   6.230  0.3141 -0.5944  0.2690
  172SOPE  H11B19419   5.001   3.361   6.214  0.7194 -0.9197  0.1893
  172SOPE     P19420   4.928   3.121   6.370 -0.0687  0.4981  0.1837
  172SOPE   O1319421   5.033   3.066   6.286 -0.3325  0.9025  0.0457
  172SOPE   O1419422   4.847   3.028   6.448  0.0864 -0.6416 -0.2851
  172SOPE   O1219423   4.841   3.220   6.290  0.0519 -0.1489  0.0060
  172SOPE   O1119424   5.005   3.219   6.466 -0.2037  0.0734 -0.1712
  172SOPE    C119425   4.926   3.332   6.524 -0.4137 -0.2831 -0.0130
  172SOPE    HA19426   4.817   3.313   6.536 -0.6293  1.6430  1.5609
  172SOPE    HB19427   4.936   3.421   6.459  2.1101 -0.2425  0.3401
  172SOPE    C219428   4.987   3.381   6.655 -0.1702 -1.0258  0.5247
  172SOPE    HS19429   5.096   3.388   6.638 -0.1449 -1.6643  0.3970
  172SOPE   O2119430   4.950   3.296   6.761 -0.0639  0.5544  0.1450
  172SOPE   C2119431   5.052   3.208   6.803  0.2633  0.8721 -0.2759
  172SOPE   O2219432   5.168   3.210   6.764  0.4663 -0.7176  0.4587
  172SOPE   C2219433   4.998   3.122   6.907 -0.0739 -0.1740  0.0846
  172SOPE   H2R19434   5.045   3.024   6.887 -1.3205 -0.7916  0.1215
  172SOPE   H2S19435   4.889   3.116   6.885  0.0540 -4.7149 -0.0872
  172SOPE    C319436   4.929   3.520   6.703  0.1018  0.2669  0.3667
  172SOPE    HX19437   4.824   3.517   6.737  0.3181  0.3272  1.0727
  172SOPE    HY19438   4.927   3.582   6.611  1.4968 -2.7951 -1.9238
  172SOPE   O3119439   5.008   3.558   6.817  0.3582 -0.1632  0.0024
  172SOPE   C3119440   5.114   3.630   6.789 -0.4671 -0.3064 -0.8247
  172SOPE   O3219441   5.147   3.665   6.678  0.0206  0.4407 -0.4048
  172SOPE   C3219442   5.179   3.661   6.924 -0.0605 -0.2386  0.3370
  172SOPE   H2X19443   5.120   3.740   6.976  0.3738 -0.1674  0.7237
  172SOPE   H2Y19444   5.287   3.681   6.906  0.5398 -0.2074  3.4353
  172SOPE   C2319445   5.043   3.170   7.046  0.0873 -0.6385  0.8869
  172SOPE   H3R19446   4.995   3.271   7.049 -0.2184 -0.7902  1.1324
  172SOPE   H3S19447   5.154   3.172   7.046  0.1727 -2.2285 -0.9655
  172SOPE   C2419448   4.997   3.086   7.166  0.4044 -0.8293  0.1511
  172SOPE   H4R19449   4.901   3.124   7.205  1.4681  1.6386  0.5702
  172SOPE   H4S19450   4.991   2.980   7.133  1.8346 -0.8847 -0.0202
  172SOPE   C2519451   5.104   3.107   7.267 -0.3379 -0.9383 -0.3403
  172SOPE   H5R19452   5.206   3.088   7.229  1.1385  1.5904  2.0119
  172SOPE   H5S19453   5.111   3.216   7.285 -1.5797 -0.6495 -1.4917
  172SOPE   C2619454   5.087   3.033   7.400  0.3721  0.5400  0.0770
  172SOPE   H6R19455   4.979   3.031   7.426  0.0268 -2.4457 -1.0817
  172SOPE   H6S19456   5.133   2.932   7.387  0.7031  0.8736 -1.6363
  172SOPE   C2719457   5.162   3.115   7.506 -0.1980 -0.2656 -0.5922
  172SOPE   H7R19458   5.272   3.125   7.488  0.0254  0.8058  1.1350
  172SOPE   H7S19459   5.119   3.217   7.502 -0.7603 -0.5068 -0.6769
  172SOPE   C2819460   5.151   3.056   7.651 -0.6358 -0.2819  0.5519
  172SOPE   H8R19461   5.048   3.073   7.687 -0.4688 -1.7858  1.8619
  172SOPE   H8S19462   5.188   2.951   7.648  1.0330  0.2921 -0.5595
  172SOPE   C2919463   5.244   3.140   7.743 -0.0264 -0.6259  0.3118
  172SOPE   H9119464   5.306   3.215   7.691  1.1441 -0.6818  1.5885
  172SOPE  C21019465   5.252   3.115   7.875  0.1965  0.5636 -0.2759
  172SOPE  H10119466   5.299   3.186   7.945 -0.0293 -0.6762  1.1759
  172SOPE  C21119467   5.175   3.009   7.946  0.1913 -0.2201 -0.5088
  172SOPE  H11R19468   5.116   2.947   7.876 -0.5615 -0.1773  0.0747
  172SOPE  H11S19469   5.114   3.056   8.027  3.5912  0.0331  2.1638
  172SOPE  C21219470   5.264   2.910   8.026  0.4461 -0.0143 -0.3361
  172SOPE  H12R19471   5.328   2.853   7.956  0.2990 -0.2107 -0.3113
  172SOPE  H12S19472   5.206   2.832   8.079  0.8380 -0.4246 -0.5075
  172SOPE  C21319473   5.366   2.963   8.119  0.5929  0.1900 -0.1496
  172SOPE  H13R19474   5.415   3.042   8.059 -0.9889  0.8143 -0.6733
  172SOPE  H13S19475   5.433   2.883   8.159  0.2279  0.0770  0.2532
  172SOPE  C21419476   5.298   3.040   8.239  0.2494 -0.3578 -0.3637
  172SOPE  H14R19477   5.251   2.964   8.306 -0.1265  2.2352  2.5296
  172SOPE  H14S19478   5.217   3.105   8.199 -0.2047 -1.2122 -0.8646
  172SOPE  C21519479   5.397   3.133   8.321  0.0009 -0.8501 -0.4006
  172SOPE  H15R19480   5.432   3.214   8.254  0.6882  0.3186  1.3024
  172SOPE  H15S19481   5.485   3.070   8.343  1.1595  0.9033  0.2092
  172SOPE  C21619482   5.318   3.187   8.445  0.1124 -0.0476  0.4232
  172SOPE  H16R19483   5.315   3.103   8.518 -2.0228 -1.8423 -1.5689
  172SOPE  H16S19484   5.217   3.225   8.420 -0.0192  0.7973  2.0715
  172SOPE  C21719485   5.393   3.299   8.526 -0.0583  0.0850  0.3177
  172SOPE  H17R19486   5.316   3.355   8.582 -1.2012 -2.9585  2.0431
  172SOPE  H17S19487   5.437   3.365   8.449  1.5214 -0.1252  1.0001
  172SOPE  C21819488   5.506   3.262   8.618 -0.2744  0.5438 -0.3669
  172SOPE  H18R19489   5.465   3.202   8.702  1.5766 -0.9687 -0.4582
  172SOPE  H18S19490   5.574   3.344   8.650  1.4722 -0.8412 -0.3408
  172SOPE  H18T19491   5.571   3.189   8.565 -0.2092  0.4842 -0.2038
  172SOPE   C3319492   5.182   3.540   7.022 -0.5876  1.0668  0.5934
  172SOPE   H3X19493   5.261   3.464   7.001 -2.0930 -0.7927  1.4188
  172SOPE   H3Y19494   5.086   3.491   7.047 -0.1084  0.6086  1.6171
  172SOPE   C3419495   5.218   3.595   7.163  0.4000 -0.0000  0.3930
  172SOPE   H4X19496   5.143   3.670   7.198 -0.1495 -1.3532  2.2384
  172SOPE   H4Y19497   5.316   3.646   7.149  0.0664  0.5413  0.0054
  172SOPE   C3519498   5.225   3.497   7.278  0.2578  0.0456  0.4101
  172SOPE   H5X19499   5.311   3.429   7.265 -1.0282 -1.3914 -0.9667
  172SOPE   H5Y19500   5.134   3.433   7.270  0.1329  0.2521  0.1570
  172SOPE   C3619501   5.206   3.553   7.417 -0.0492 -0.2441 -0.4542
  172SOPE   H6X19502   5.171   3.480   7.493 -2.2151  1.6174  0.4534
  172SOPE   H6Y19503   5.138   3.640   7.400  1.5701  1.6021  1.7518
  172SOPE   C3719504   5.339   3.602   7.484  0.0909  0.0488 -0.3617
  172SOPE   H7X19505   5.381   3.676   7.413  1.9306 -0.8770 -0.3095
  172SOPE   H7Y19506   5.395   3.510   7.511  0.3837  0.1006 -0.7853
  172SOPE   C3819507   5.307   3.680   7.618 -0.0735 -0.3299 -0.9374
  172SOPE   H8X19508   5.255   3.605   7.681 -0.0455 -0.4823 -1.0921
  172SOPE   H8Y19509   5.230   3.759   7.604  0.0659  1.0255  4.1130
  172SOPE   C3919510   5.435   3.728   7.686  0.3654 -0.3274  0.6004
  172SOPE   H9X19511   5.452   3.833   7.653 -0.9277  0.1927  1.5160
  172SOPE   H9Y19512   5.524   3.665   7.660 -0.9049 -2.5644  1.3600
  172SOPE  C31019513   5.416   3.739   7.844 -0.3672  0.2569 -0.0421
  172SOPE  H10X19514   5.439   3.644   7.896  0.7975  1.1385  1.1396
  172SOPE  H10Y19515   5.317   3.787   7.860 -1.2351 -0.7406 -2.1110
  172SOPE  C31119516   5.517   3.832   7.909  0.7066  0.8171  0.2437
  172SOPE  H11X19517   5.508   3.927   7.853 -0.0584 -1.0391 -3.0611
  172SOPE  H11Y19518   5.624   3.807   7.894  0.3198  0.0883 -1.6416
  172SOPE  C31219519   5.475   3.865   8.053 -0.8101 -0.1197  0.1787
  172SOPE  H12X19520   5.457   3.768   8.105  0.0060 -0.7517 -0.6869
  172SOPE  H12Y19521   5.381   3.924   8.060 -0.0654  1.2222 -0.8201
  172SOPE  C31319522   5.579   3.954   8.134  0.7363  0.3199 -0.0806
  172SOPE  H13X19523   5.607   4.043   8.074 -0.0976  0.0279 -0.9315
  172SOPE  H13Y19524   5.679   3.908   8.147  0.9018  0.8242  0.4975
  172SOPE  C31419525   5.525   3.993   8.270  0.0098 -0.0268 -0.0306
  172SOPE  H14X19526   5.423   4.029   8.248  0.9880  1.4947 -2.5581
  172SOPE  H14Y19527   5.569   4.083   8.317 -1.1135  0.4979  0.0334
  172SOPE  C31519528   5.526   3.869   8.364  1.1318 -0.4025  0.5451
  172SOPE  H15X19529   5.514   3.773   8.309 -2.0043 -0.8642  1.8427
  172SOPE  H15Y19530   5.439   3.880   8.432  0.8708  1.6525 -0.0485
  172SOPE  C31619531   5.655   3.857   8.434 -0.3017 -0.4723  0.0272
  172SOPE  H16X19532   5.690   3.958   8.465 -0.7084  0.4867 -2.4104
  172SOPE  H16Y19533   5.734   3.813   8.369  1.2427  0.2966  1.3133
  172SOPE  C31719534   5.637   3.769   8.563  0.3085  0.1255  0.1357
  172SOPE  H17X19535   5.544   3.795   8.618  0.0949  0.4433 -0.3676
  172SOPE  H17Y19536   5.725   3.786   8.629  0.2512 -0.5679  0.3994
  172SOPE  C31819537   5.630   3.620   8.538 -0.3357 -0.0753 -0.2826
  172SOPE  H18X19538   5.707   3.591   8.463  0.6960  0.6277  0.4668
  172SOPE  H18Y19539   5.531   3.585   8.503  0.5807  0.0774 -3.2956
  172SOPE  H18Z19540   5.649   3.575   8.638 -0.9475  1.2697  0.4692
  173SAPI   C1219541   4.456   6.784  11.068  0.2509  0.1507 -0.2610
  173SAPI    H219542   4.373   6.856  11.050 -0.2838 -1.0792 -3.3024
  173SAPI    O219543   4.573   6.855  11.105  0.2491 -0.2906 -0.0382
  173SAPI   HO219544   4.594   6.926  11.044 -0.3919 -0.6368 -0.6762
  173SAPI   C1319545   4.421   6.700  11.183  0.6572 -0.5393 -0.0999
  173SAPI    H319546   4.338   6.630  11.165 -0.2417  0.6994 -0.9735
  173SAPI    O319547   4.373   6.775  11.294  0.8582 -0.4103  0.4172
  173SAPI   HO319548   4.424   6.743  11.369  1.3945 -2.1687 -0.6291
  173SAPI   C1419549   4.537   6.600  11.218  0.1920 -0.4450 -0.4761
  173SAPI    H419550   4.627   6.664  11.225 -2.1008  3.1845 -1.3063
  173SAPI    O419551   4.508   6.526  11.339 -0.3372 -0.7822 -0.4343
  173SAPI   HO419552   4.586   6.487  11.378 -2.3056 -2.8318  1.8364
  173SAPI   C1519553   4.557   6.517  11.099 -0.0093 -0.2072  0.3291
  173SAPI    H519554   4.469   6.456  11.067 -0.1272  0.6575 -1.0736
  173SAPI    O519555   4.670   6.431  11.116  0.1168 -0.1035  0.4738
  173SAPI   HO519556   4.628   6.344  11.110  0.4438 -0.2221 -0.1344
  173SAPI   C1619557   4.582   6.592  10.965 -0.4655 -0.4794  0.3226
  173SAPI    H619558   4.679   6.646  10.979  0.5929 -1.7960 -1.4716
  173SAPI    O619559   4.601   6.508  10.857  0.0471  0.4327  0.3851
  173SAPI   HO619560   4.682   6.540  10.817 -0.5139  1.9010  0.3494
  173SAPI   C1119561   4.477   6.695  10.946  0.4708  0.3387 -0.0319
  173SAPI    H119562   4.389   6.630  10.924 -0.0969  0.5551  1.4815
  173SAPI     P19563   4.411   6.864  10.753 -0.1417 -0.2936  0.0826
  173SAPI   O1319564   4.481   6.989  10.710  0.0262 -0.2888 -0.3921
  173SAPI   O1419565   4.291   6.875  10.826 -0.0649  0.0025  0.2986
  173SAPI   O1219566   4.525   6.779  10.838  0.2019 -0.3625 -0.6915
  173SAPI   O1119567   4.402   6.763  10.625 -0.1465 -0.8181 -0.1560
  173SAPI    C119568   4.507   6.678  10.576 -0.4745  0.6427 -0.5733
  173SAPI    HA19569   4.545   6.616  10.660 -0.0208  1.4219 -0.1910
  173SAPI    HB19570   4.472   6.609  10.497  2.0205 -1.1495 -0.2488
  173SAPI    C219571   4.631   6.747  10.519  0.3094 -0.7448  0.6320
  173SAPI    HS19572   4.687   6.795  10.602  0.5455 -0.7366  0.4703
  173SAPI   O2119573   4.579   6.850  10.430  0.6972  0.0452  0.2194
  173SAPI   C2119574   4.667   6.951  10.410  0.5176 -0.1328  0.0149
  173SAPI   O2219575   4.786   6.943  10.439 -0.3467 -0.2442 -0.7630
  173SAPI   C2219576   4.597   7.077  10.362 -0.0396  0.3486 -0.2195
  173SAPI   H2R19577   4.513   7.084  10.434  0.3471 -0.4085  0.3237
  173SAPI   H2S19578   4.666   7.159  10.389  1.5470 -1.1457  0.4759
  173SAPI    C319579   4.727   6.652  10.440 -0.1985 -0.2740 -0.3875
  173SAPI    HX19580   4.759   6.580  10.518 -1.7622 -1.4139 -0.7613
  173SAPI    HY19581   4.817   6.703  10.398  1.6239 -2.7162  0.3171
  173SAPI   O3119582   4.663   6.577  10.337  0.3645  0.5461 -0.3889
  173SAPI   C3119583   4.724   6.556  10.217 -0.0390 -1.2499  0.3006
  173SAPI   O3219584   4.834   6.597  10.191 -1.0036 -0.3010  0.0610
  173SAPI   C3219585   4.638   6.481  10.122  0.9672 -0.0189 -0.3633
  173SAPI   H2X19586   4.566   6.557  10.085  1.7908  1.6070  1.2065
  173SAPI   H2Y19587   4.587   6.398  10.176 -0.9487  1.1912 -0.2127
  173SAPI   C2319588   4.541   7.085  10.227 -0.3377 -0.2804  0.1970
  173SAPI   H3R19589   4.462   7.163  10.223  0.8437  0.9489  0.2007
  173SAPI   H3S19590   4.498   6.987  10.198  1.5571 -0.6134 -1.7172
  173SAPI   C2419591   4.651   7.122  10.126 -0.0284  0.0509 -0.7624
  173SAPI   H4R19592   4.710   7.206  10.168 -0.4730 -0.4386  0.9046
  173SAPI   H4S19593   4.593   7.162  10.040 -2.3949 -1.4826  0.0146
  173SAPI   C2519594   4.748   7.008  10.093 -0.1469  0.4780 -0.6357
  173SAPI   H5R19595   4.808   6.980  10.181  0.8775 -0.8146 -1.7073
  173SAPI   C2619596   4.782   6.953   9.980  0.0411  0.5249  0.2357
  173SAPI   H6R19597   4.857   6.874   9.973  0.4016  0.8176  0.7893
  173SAPI   C2719598   4.722   6.985   9.845 -0.7585  0.1243 -0.2520
  173SAPI   H7R19599   4.658   7.076   9.842  0.6768  1.1798 -0.0686
  173SAPI   H7S19600   4.658   6.898   9.821  0.6747 -1.2092  0.5653
  173SAPI   C2819601   4.829   7.010   9.739  0.4325 -0.3301  0.4464
  173SAPI   H8R19602   4.922   7.054   9.779 -0.2708  0.0883  1.6879
  173SAPI   C2919603   4.814   6.978   9.609 -0.0396 -0.8168 -0.0461
  173SAPI   H9R19604   4.899   7.002   9.543  0.6473  0.7723  1.3355
  173SAPI  C21019605   4.693   6.916   9.541 -0.4457  0.3798 -0.4312
  173SAPI  H10R19606   4.607   6.894   9.607 -0.3810 -2.8604 -1.2336
  173SAPI  H10S19607   4.737   6.823   9.498  1.0700  0.6533  0.4301
  173SAPI  C21119608   4.645   7.008   9.435 -0.5957 -0.4810  0.4567
  173SAPI  H11R19609   4.587   7.094   9.472  0.2692  0.3310 -0.0452
  173SAPI  C21219610   4.691   7.015   9.307  0.5133 -0.3208  1.4479
  173SAPI  H12R19611   4.650   7.091   9.240 -0.9198 -2.2659 -0.0103
  173SAPI  C21319612   4.793   6.924   9.242  0.2843  0.0467 -0.1668
  173SAPI  H13R19613   4.750   6.825   9.270 -0.0638  0.6265  1.4726
  173SAPI  H13S19614   4.890   6.926   9.296 -0.8845 -1.0703  2.1476
  173SAPI  C21419615   4.810   6.953   9.098 -0.0385  0.1127  0.1775
  173SAPI  H14R19616   4.810   7.059   9.071  0.3351  0.5706  1.8481
  173SAPI  C21519617   4.834   6.867   9.001  0.8515  0.0357 -0.6114
  173SAPI  H15R19618   4.838   6.892   8.894  0.7463  1.3691 -0.3119
  173SAPI  C21619619   4.834   6.718   9.021  0.1769 -0.8031  0.1595
  173SAPI  H16R19620   4.780   6.697   9.116 -1.6164  1.4044 -0.2887
  173SAPI  H16S19621   4.933   6.672   9.041 -0.4512 -3.3450 -2.0372
  173SAPI  C21719622   4.768   6.637   8.905  0.2488  0.2879  0.5554
  173SAPI  H17R19623   4.658   6.654   8.914  0.0093  0.5561 -2.0753
  173SAPI  H17S19624   4.789   6.530   8.927 -0.9816 -0.2156 -0.5610
  173SAPI  C21819625   4.793   6.666   8.747 -0.7420 -0.6719 -0.9563
  173SAPI  H18R19626   4.767   6.772   8.727  3.4193  1.2134  2.2900
  173SAPI  H18S19627   4.733   6.595   8.687 -0.6079 -1.0028 -0.7048
  173SAPI  C21919628   4.943   6.657   8.718  0.2949  0.1652  0.0218
  173SAPI  H19R19629   4.974   6.555   8.751 -2.1797 -1.2636 -1.7425
  173SAPI  H19S19630   4.993   6.737   8.777 -0.8246  0.6998  0.2593
  173SAPI  C22019631   4.982   6.683   8.573  0.4654 -0.0540  0.1486
  173SAPI  H20R19632   4.939   6.612   8.499  0.7368 -0.2753  0.2014
  173SAPI  H20S19633   5.091   6.661   8.574  0.6078  0.6185  1.1985
  173SAPI  H20T19634   4.984   6.790   8.542 -0.4109  0.0989  0.5708
  173SAPI   C3319635   4.705   6.422   9.998 -0.7722  0.0858  0.4478
  173SAPI   H3X19636   4.646   6.338   9.957 -0.8646 -0.6672  2.0591
  173SAPI   H3Y19637   4.805   6.383  10.028 -1.7116  0.1777  4.0515
  173SAPI   C3419638   4.727   6.538   9.897  0.8325  0.5791  0.0724
  173SAPI   H4X19639   4.812   6.605   9.923  2.7485 -0.9510 -1.8892
  173SAPI   H4Y19640   4.635   6.599   9.888  1.7083  1.6478 -2.5097
  173SAPI   C3519641   4.782   6.490   9.762  0.8972 -0.3063  0.1828
  173SAPI   H5X19642   4.708   6.431   9.705 -0.1978  1.5668 -0.4223
  173SAPI   H5Y19643   4.862   6.417   9.786  0.0653 -0.6890  1.9577
  173SAPI   C3619644   4.818   6.607   9.675 -0.0178  0.2944  0.4843
  173SAPI   H6X19645   4.897   6.658   9.734 -0.0055 -0.3483  1.0369
  173SAPI   H6Y19646   4.730   6.674   9.663 -0.0657  0.4375  1.5774
  173SAPI   C3719647   4.884   6.555   9.545 -0.6062 -0.8136  0.3946
  173SAPI   H7X19648   4.971   6.491   9.573  0.6383  1.1186  1.1786
  173SAPI   H7Y19649   4.926   6.627   9.473 -1.7291 -1.7760 -1.2894
  173SAPI   C3819650   4.786   6.458   9.463 -0.0937 -0.1705 -0.4712
  173SAPI   H8X19651   4.682   6.496   9.461 -0.2093 -0.4347 -3.2721
  173SAPI   H8Y19652   4.782   6.366   9.526  0.4038  1.3886  1.9693
  173SAPI   C3919653   4.808   6.415   9.313  0.0008 -0.6542 -0.9965
  173SAPI   H9X19654   4.844   6.500   9.250  1.3210 -1.5425 -1.4800
  173SAPI   H9Y19655   4.715   6.374   9.267 -1.5456  0.4215  1.0332
  173SAPI  C31019656   4.921   6.314   9.302 -0.6073  0.1370 -0.4476
  173SAPI  H10X19657   4.925   6.255   9.396 -1.0076  0.6286 -0.1203
  173SAPI  H10Y19658   5.016   6.371   9.295 -0.5520  0.0867 -0.1320
  173SAPI  C31119659   4.915   6.222   9.183  0.5875 -0.8225 -0.0551
  173SAPI  H11X19660   4.829   6.155   9.206  0.2331 -0.4178 -0.2022
  173SAPI  H11Y19661   5.000   6.152   9.166  0.9751  0.2124 -2.8430
  173SAPI  C31219662   4.907   6.293   9.053  0.1600  0.9623  0.9573
  173SAPI  H12X19663   4.997   6.354   9.029  0.4245  0.2382  0.0187
  173SAPI  H12Y19664   4.817   6.358   9.050 -0.3207  0.2846  0.0898
  173SAPI  C31319665   4.902   6.183   8.944  0.1773  0.1574 -0.5058
  173SAPI  H13X19666   4.822   6.111   8.971  2.1570 -2.7135 -1.7597
  173SAPI  H13Y19667   4.994   6.121   8.938 -0.9577 -1.7693  0.6727
  173SAPI  C31419668   4.856   6.241   8.815  0.1555  0.1406 -0.3947
  173SAPI  H14X19669   4.906   6.339   8.802  0.0918  0.1136 -0.8529
  173SAPI  H14Y19670   4.746   6.260   8.817 -0.1454 -1.2916 -1.7614
  173SAPI  C31519671   4.890   6.152   8.690  0.4866 -0.1854  0.0428
  173SAPI  H15X19672   4.855   6.047   8.704  1.9373 -0.7343 -0.2522
  173SAPI  H15Y19673   4.998   6.128   8.680  0.8323  1.0495  0.6949
  173SAPI  C31619674   4.835   6.213   8.557  0.3073  0.4797  0.1430
  173SAPI  H16X19675   4.923   6.268   8.518  1.5931 -0.4995  1.5281
  173SAPI  H16Y19676   4.754   6.282   8.588 -1.2381 -2.3035  2.7880
  173SAPI  C31719677   4.777   6.106   8.467  1.0374  0.6468  0.7084
  173SAPI  H17X19678   4.707   6.041   8.524  0.7978  1.5427  1.4709
  173SAPI  H17Y19679   4.860   6.047   8.424 -0.4829  0.0294 -1.5603
  173SAPI  C31819680   4.695   6.163   8.349 -0.4470  0.2062  0.6262
  173SAPI  H18X19681   4.765   6.220   8.284 -0.6295  1.6550  1.6475
  173SAPI  H18Y19682   4.611   6.224   8.389  0.3825  0.8927  1.3507
  173SAPI  H18Z19683   4.664   6.074   8.289  0.3615 -0.1563  0.7365
  174SAPI   C1219684   3.674   1.469  10.869  0.5107 -0.1757 -0.4498
  174SAPI    H219685   3.778   1.439  10.893  0.7227  0.2912 -0.7651
  174SAPI    O219686   3.628   1.369  10.781  0.0683  0.4110 -0.4591
  174SAPI   HO219687   3.674   1.375  10.697 -0.0719 -2.0207 -0.7882
  174SAPI   C1319688   3.592   1.472  10.990 -0.0267  0.2254 -0.4658
  174SAPI    H319689   3.643   1.544  11.056  1.1083 -0.2931 -0.7346
  174SAPI    O319690   3.607   1.351  11.067 -0.3540  0.1589 -0.2197
  174SAPI   HO319691   3.526   1.346  11.119 -0.5571 -2.7386 -0.6274
  174SAPI   C1419692   3.451   1.514  10.959  0.0936  0.4025 -0.1682
  174SAPI    H419693   3.409   1.457  10.874 -0.4149 -0.4820  0.6627
  174SAPI    O419694   3.363   1.484  11.067 -0.3303 -0.2133  0.0471
  174SAPI   HO419695   3.288   1.437  11.030  1.0665 -1.1809 -1.7154
  174SAPI   C1519696   3.442   1.653  10.899 -0.0623  0.1224 -0.1510
  174SAPI    H519697   3.507   1.727  10.951  2.3107  1.2398 -4.2049
  174SAPI    O519698   3.308   1.706  10.883  0.7865  0.0311 -0.6574
  174SAPI   HO519699   3.295   1.800  10.900  1.3979 -0.2188  1.5782
  174SAPI   C1619700   3.531   1.646  10.768  0.9243 -0.1134 -0.0127
  174SAPI    H619701   3.473   1.572  10.709  0.4058  0.9069 -0.8151
  174SAPI    O619702   3.535   1.770  10.694  0.2247  0.0590 -0.1267
  174SAPI   HO619703   3.512   1.745  10.604  0.6369 -0.8572  0.0036
  174SAPI   C1119704   3.677   1.604  10.800 -0.2212  0.0918 -0.3659
  174SAPI    H119705   3.718   1.679  10.872 -2.7058  0.2834  0.9940
  174SAPI     P19706   3.910   1.566  10.687  0.4401 -0.0063  0.2772
  174SAPI   O1319707   3.908   1.419  10.660 -0.3839 -0.1488  0.2753
  174SAPI   O1419708   3.981   1.621  10.802  0.1123  0.1911 -0.2687
  174SAPI   O1219709   3.757   1.605  10.690  0.2802  0.6685 -0.0120
  174SAPI   O1119710   3.972   1.640  10.562 -0.3953  0.7126 -0.2064
  174SAPI    C119711   3.908   1.736  10.477 -0.1939 -0.5862  0.3452
  174SAPI    HA19712   3.871   1.829  10.526  2.6654  0.5428  0.5583
  174SAPI    HB19713   3.986   1.778  10.411 -1.3385 -0.6605 -1.1000
  174SAPI    C219714   3.793   1.679  10.380  0.1129  0.2078 -0.4006
  174SAPI    HS19715   3.738   1.603  10.439 -0.3022  1.5633  1.0008
  174SAPI   O2119716   3.851   1.610  10.270  0.0578  0.0400  0.2913
  174SAPI   C2119717   3.806   1.488  10.232 -0.5262  0.0187 -1.1702
  174SAPI   O2219718   3.713   1.432  10.283 -0.3030 -0.2793  0.1180
  174SAPI   C2219719   3.880   1.447  10.107 -0.8043 -0.4732  0.3184
  174SAPI   H2R19720   3.805   1.464  10.027 -2.0977 -0.6977  1.4461
  174SAPI   H2S19721   3.966   1.511  10.081 -0.6412 -0.8830 -0.1743
  174SAPI    C319722   3.693   1.792  10.332 -0.0609  0.5653 -0.3535
  174SAPI    HX19723   3.746   1.870  10.273 -0.6352  3.1444  2.3268
  174SAPI    HY19724   3.670   1.856  10.419 -0.2810  2.0611 -1.4734
  174SAPI   O3119725   3.586   1.730  10.253  0.0213 -0.3544 -0.4836
  174SAPI   C3119726   3.484   1.701  10.331 -0.1674  0.3346 -0.3239
  174SAPI   O3219727   3.478   1.706  10.453  0.3411 -0.2487  0.3460
  174SAPI   C3219728   3.360   1.642  10.249 -0.5797  0.7300  0.2327
  174SAPI   H2X19729   3.270   1.707  10.242 -1.2238 -0.1558  0.1484
  174SAPI   H2Y19730   3.330   1.564  10.322  0.7316  0.0315  0.0667
  174SAPI   C2319731   3.917   1.302  10.108 -0.6420 -0.3197 -0.0001
  174SAPI   H3R19732   3.835   1.231  10.131  0.9989 -1.2698  3.5009
  174SAPI   H3S19733   3.988   1.299  10.193 -0.4971  3.9906  0.2928
  174SAPI   C2419734   4.004   1.255   9.985  0.8780 -0.0953 -0.1520
  174SAPI   H4R19735   4.044   1.157  10.017 -2.5516 -1.3646  0.7110
  174SAPI   H4S19736   4.087   1.322   9.953 -0.7905  1.3433 -1.7169
  174SAPI   C2519737   3.909   1.226   9.867  0.0741 -0.8672 -1.1071
  174SAPI   H5R19738   3.813   1.180   9.896  0.5169 -1.2185 -0.1367
  174SAPI   C2619739   3.920   1.274   9.743  0.0862 -0.7486  0.4059
  174SAPI   H6R19740   3.844   1.236   9.673 -0.4431  0.6626  0.1717
  174SAPI   C2719741   4.021   1.369   9.685  0.1938  0.5761  0.0941
  174SAPI   H7R19742   4.097   1.399   9.761  3.4118 -0.3831 -2.5158
  174SAPI   H7S19743   3.974   1.467   9.660  3.0345  2.1402  0.4409
  174SAPI   C2819744   4.098   1.310   9.570 -0.0945  0.2288 -0.1006
  174SAPI   H8R19745   4.141   1.212   9.595 -1.8252 -0.3215  0.8514
  174SAPI   C2919746   4.074   1.339   9.439 -0.1124  0.1361  0.2686
  174SAPI   H9R19747   4.130   1.288   9.359 -0.8033  0.2659 -0.3098
  174SAPI  C21019748   3.965   1.433   9.390  0.4267  0.1760  0.4306
  174SAPI  H10R19749   4.009   1.531   9.365  0.7050 -0.4245 -1.6378
  174SAPI  H10S19750   3.889   1.457   9.467 -0.4479 -0.0562 -0.3225
  174SAPI  C21119751   3.893   1.379   9.264 -0.4978  0.4530 -0.8469
  174SAPI  H11R19752   3.835   1.288   9.286 -0.0464 -0.1604 -2.1079
  174SAPI  C21219753   3.886   1.436   9.141  0.8271 -0.3210  0.3809
  174SAPI  H12R19754   3.817   1.392   9.067  0.0303  0.2360  0.7729
  174SAPI  C21319755   3.949   1.570   9.112  0.2628  0.1775 -0.3055
  174SAPI  H13R19756   4.045   1.572   9.168  0.0053  3.7348  0.1944
  174SAPI  H13S19757   3.895   1.656   9.156 -0.1779 -1.1500  1.8897
  174SAPI  C21419758   3.960   1.587   8.961  0.4749  0.1697 -0.3905
  174SAPI  H14R19759   3.896   1.524   8.899 -0.2260  2.1013 -1.7213
  174SAPI  C21519760   4.050   1.665   8.894  0.1021  0.0928 -0.4922
  174SAPI  H15R19761   4.047   1.646   8.786  0.3276 -1.5425 -0.2347
  174SAPI  C21619762   4.152   1.769   8.946  0.0220  0.6736 -0.2715
  174SAPI  H16R19763   4.192   1.726   9.040 -0.4739 -0.6834 -0.6538
  174SAPI  H16S19764   4.095   1.859   8.977 -1.6780 -0.4752  0.0600
  174SAPI  C21719765   4.267   1.791   8.840 -0.3046  0.1079  0.3895
  174SAPI  H17R19766   4.307   1.696   8.799  1.2533  0.8157  0.1995
  174SAPI  H17S19767   4.353   1.832   8.898  0.2030 -0.5276  0.0923
  174SAPI  C21819768   4.228   1.894   8.729  0.0817  0.0111  0.1941
  174SAPI  H18R19769   4.235   1.999   8.762  1.5582  0.6581 -1.8972
  174SAPI  H18S19770   4.123   1.869   8.703 -0.1495 -1.2597  2.1327
  174SAPI  C21919771   4.311   1.888   8.597  0.7247 -0.0325 -0.9282
  174SAPI  H19R19772   4.415   1.871   8.633  0.0390 -1.1021  0.6270
  174SAPI  H19S19773   4.315   1.984   8.540  1.8486  0.2082 -0.4810
  174SAPI  C22019774   4.276   1.786   8.494  0.4608 -0.0296 -0.3988
  174SAPI  H20R19775   4.176   1.792   8.446  0.4768 -1.4967 -0.6739
  174SAPI  H20S19776   4.290   1.683   8.534 -0.9584  0.5430  1.6825
  174SAPI  H20T19777   4.357   1.797   8.418  1.7167  0.3387  0.9370
  174SAPI   C3319778   3.407   1.587  10.114  0.8130  0.0947  0.0072
  174SAPI   H3X19779   3.336   1.505  10.088  0.7836 -0.0874  0.6325
  174SAPI   H3Y19780   3.507   1.540  10.116  0.5586 -0.5957 -1.9497
  174SAPI   C3419781   3.401   1.695  10.003  0.2200  0.2691 -0.2340
  174SAPI   H4X19782   3.450   1.790  10.031  0.3785 -0.0556  0.6257
  174SAPI   H4Y19783   3.296   1.728   9.998 -1.0568 -3.4076 -1.2593
  174SAPI   C3519784   3.452   1.636   9.871  0.1762  0.0226  0.9534
  174SAPI   H5X19785   3.432   1.527   9.866 -0.5042  0.0935  1.8279
  174SAPI   H5Y19786   3.560   1.659   9.874  0.8783 -2.7222 -0.0664
  174SAPI   C3619787   3.393   1.714   9.753 -0.0018 -0.1690  0.0399
  174SAPI   H6X19788   3.431   1.819   9.755  1.8616 -0.7810 -0.7107
  174SAPI   H6Y19789   3.284   1.704   9.772  0.2960 -0.6711  1.6266
  174SAPI   C3719790   3.437   1.650   9.623  0.0265  0.0862 -0.3144
  174SAPI   H7X19791   3.423   1.539   9.621 -0.1145  0.1096 -0.6442
  174SAPI   H7Y19792   3.545   1.668   9.608 -0.0286  0.7709  0.0713
  174SAPI   C3819793   3.358   1.707   9.504 -0.0606  0.7760 -0.3488
  174SAPI   H8X19794   3.365   1.817   9.492  1.3154  0.6654 -0.7784
  174SAPI   H8Y19795   3.249   1.684   9.511  0.2614 -2.0044 -2.4568
  174SAPI   C3919796   3.404   1.639   9.375 -0.3234  0.0072  0.9497
  174SAPI   H9X19797   3.328   1.654   9.296  2.0924 -0.7231 -1.7035
  174SAPI   H9Y19798   3.404   1.528   9.383 -0.3675 -0.1714 -0.9914
  174SAPI  C31019799   3.541   1.681   9.319  0.0934  0.5965  0.2254
  174SAPI  H10X19800   3.631   1.632   9.364 -0.1383 -1.1243 -1.0685
  174SAPI  H10Y19801   3.558   1.791   9.329 -0.3252  0.7330 -0.5378
  174SAPI  C31119802   3.556   1.639   9.181 -0.4797 -0.2254  0.0630
  174SAPI  H11X19803   3.513   1.537   9.169  0.4994 -1.0514  2.9545
  174SAPI  H11Y19804   3.661   1.625   9.149 -0.6752  1.4043 -1.4768
  174SAPI  C31219805   3.491   1.736   9.071 -0.2088 -0.0562 -0.4529
  174SAPI  H12X19806   3.543   1.833   9.076  0.1636 -0.1014 -2.6876
  174SAPI  H12Y19807   3.381   1.744   9.086 -0.0132 -0.7223  1.8105
  174SAPI  C31319808   3.536   1.689   8.933 -0.2817  0.9370 -0.3511
  174SAPI  H13X19809   3.486   1.590   8.922  0.2104  0.7691 -1.1565
  174SAPI  H13Y19810   3.645   1.672   8.941 -0.6919 -1.2960  1.8313
  174SAPI  C31419811   3.493   1.754   8.795  0.1025  0.3314 -0.4740
  174SAPI  H14X19812   3.507   1.865   8.797 -1.1771  0.5039  1.0595
  174SAPI  H14Y19813   3.387   1.725   8.780  0.8135 -3.3672  0.7892
  174SAPI  C31519814   3.566   1.700   8.670  0.3497  0.7019  0.1270
  174SAPI  H15X19815   3.578   1.590   8.664  1.2091  0.8059 -0.2261
  174SAPI  H15Y19816   3.672   1.734   8.681 -0.0057  2.1317 -0.5901
  174SAPI  C31619817   3.519   1.754   8.533  0.1675  0.1626  0.5451
  174SAPI  H16X19818   3.531   1.864   8.525  3.7995 -0.0409  1.4519
  174SAPI  H16Y19819   3.409   1.739   8.525  0.1729  0.6959 -0.7531
  174SAPI  C31719820   3.608   1.686   8.430 -0.3995 -0.4290  0.0921
  174SAPI  H17X19821   3.629   1.579   8.448 -1.2462 -0.5547  0.3591
  174SAPI  H17Y19822   3.707   1.737   8.434 -0.5486 -0.0793 -0.4783
  174SAPI  C31819823   3.538   1.706   8.296  0.5306  0.3709 -0.0234
  174SAPI  H18X19824   3.506   1.812   8.282 -3.3775 -0.5732  0.5788
  174SAPI  H18Y19825   3.445   1.646   8.286 -0.4523  2.0921 -2.0022
  174SAPI  H18Z19826   3.601   1.672   8.211 -1.8730 -2.6421 -0.7896
  175SAPI   C1219827   0.903   0.603   6.259 -0.0517 -0.3282  0.5708
  175SAPI    H219828   0.896   0.547   6.355 -0.6377 -0.3588  0.5149
  175SAPI    O219829   1.035   0.652   6.240 -0.2706  0.3439 -0.1968
  175SAPI   HO219830   1.076   0.678   6.322  1.3917 -0.4560 -0.7317
  175SAPI   C1319831   0.874   0.496   6.159  0.3094  0.2112  0.2127
  175SAPI    H319832   0.776   0.454   6.192  1.0619 -1.2006  0.7406
  175SAPI    O319833   0.965   0.388   6.167 -0.4591  0.9478 -0.0243
  175SAPI   HO319834   1.054   0.425   6.173  0.2554 -0.5858 -0.5190
  175SAPI   C1419835   0.877   0.568   6.021  0.6852  0.2503  0.4076
  175SAPI    H419836   0.969   0.627   6.003 -0.1085  1.0021 -1.4805
  175SAPI    O419837   0.858   0.474   5.913  0.2870 -0.5113  0.1112
  175SAPI   HO419838   0.930   0.411   5.906  1.1018  0.2782  0.9841
  175SAPI   C1519839   0.758   0.670   6.023 -0.3539 -0.4235 -0.0299
  175SAPI    H519840   0.674   0.612   6.066 -1.0298  0.9011  0.4713
  175SAPI    O519841   0.731   0.721   5.898 -0.0105 -0.0204  0.3564
  175SAPI   HO519842   0.676   0.661   5.848 -0.3052  0.8354 -0.3732
  175SAPI   C1619843   0.792   0.775   6.122  0.3612  0.5864  1.0811
  175SAPI    H619844   0.887   0.824   6.093  2.5684 -3.2188  1.3144
  175SAPI    O619845   0.697   0.880   6.118 -0.3645  0.9652 -0.0432
  175SAPI   HO619846   0.618   0.825   6.113 -0.1785  0.7340 -0.5471
  175SAPI   C1119847   0.802   0.716   6.257  0.5875  0.4855 -0.1427
  175SAPI    H119848   0.703   0.669   6.275  1.1279 -1.9718 -2.9700
  175SAPI     P19849   0.752   0.807   6.500  0.3195  0.0403  0.0729
  175SAPI   O1319850   0.616   0.856   6.465  0.6208 -0.4816  0.0858
  175SAPI   O1419851   0.826   0.880   6.605  0.0495  0.1374 -0.1733
  175SAPI   O1219852   0.839   0.812   6.352 -0.4443 -0.3293 -0.1027
  175SAPI   O1119853   0.750   0.654   6.527  0.1405  0.3810 -0.1326
  175SAPI    C119854   0.632   0.587   6.555 -0.3620  0.8455  0.0262
  175SAPI    HA19855   0.573   0.649   6.626 -1.0258  0.9006 -0.5697
  175SAPI    HB19856   0.576   0.567   6.461 -2.3495 -0.7160  1.4665
  175SAPI    C219857   0.654   0.456   6.635  0.6383 -0.6901  0.0692
  175SAPI    HS19858   0.551   0.418   6.657  1.5111 -2.0480  2.1156
  175SAPI   O2119859   0.729   0.482   6.754 -0.5958 -0.3575  0.3194
  175SAPI   C2119860   0.652   0.530   6.855  0.2086  0.8141 -0.3564
  175SAPI   O2219861   0.530   0.544   6.844  0.4226  0.6793 -0.2273
  175SAPI   C2219862   0.739   0.542   6.985  0.0220  0.0841  0.1078
  175SAPI   H2R19863   0.832   0.594   6.954 -0.7290  0.4654 -1.6743
  175SAPI   H2S19864   0.691   0.620   7.048 -1.4767 -0.0178 -0.8435
  175SAPI    C319865   0.729   0.353   6.552  1.0428  0.3734  0.8893
  175SAPI    HX19866   0.808   0.405   6.494  0.8088 -0.5341 -0.2528
  175SAPI    HY19867   0.665   0.307   6.474  0.5312  0.7370  1.0831
  175SAPI   O3119868   0.778   0.246   6.628  0.1004  0.7624 -0.2948
  175SAPI   C3119869   0.896   0.186   6.592 -0.3892  0.4465  0.1843
  175SAPI   O3219870   0.962   0.229   6.497 -0.5769 -0.6227 -0.3175
  175SAPI   C3219871   0.932   0.066   6.683  0.4922 -0.0210 -0.7619
  175SAPI   H2X19872   1.043   0.052   6.683  0.2513 -3.3484  2.2194
  175SAPI   H2Y19873   0.891  -0.027   6.638  0.6187 -0.5634  0.2153
  175SAPI   C2319874   0.753   0.414   7.075  1.2186  0.0285 -0.4783
  175SAPI   H3R19875   0.818   0.443   7.161 -0.3586  0.5057  0.6136
  175SAPI   H3S19876   0.805   0.340   7.010  0.5158 -0.6080 -0.3388
  175SAPI   C2419877   0.621   0.362   7.135 -0.2534 -0.1771 -0.3087
  175SAPI   H4R19878   0.545   0.352   7.055  0.9506  0.1369 -1.5169
  175SAPI   H4S19879   0.578   0.439   7.203 -0.8192 -1.3547  0.7070
  175SAPI   C2519880   0.645   0.238   7.219 -1.0665 -0.6121 -0.8697
  175SAPI   H5R19881   0.638   0.138   7.174  0.7863 -0.0109 -2.6499
  175SAPI   C2619882   0.678   0.245   7.351  0.5616  1.0888  0.7207
  175SAPI   H6R19883   0.697   0.147   7.397 -1.2333  0.7055  0.7449
  175SAPI   C2719884   0.690   0.372   7.437 -0.3080  0.0665 -0.3799
  175SAPI   H7R19885   0.596   0.371   7.496  0.3839  0.2942  0.7759
  175SAPI   H7S19886   0.701   0.464   7.376 -1.4834 -0.1436 -0.9306
  175SAPI   C2819887   0.809   0.355   7.528  0.0033  0.1852 -0.6186
  175SAPI   H8R19888   0.904   0.396   7.492 -0.7408  1.8933 -0.7486
  175SAPI   C2919889   0.810   0.314   7.661 -0.0476  0.2391  0.2397
  175SAPI   H9R19890   0.905   0.339   7.710 -0.4111  1.8654  0.1855
  175SAPI  C21019891   0.698   0.258   7.752 -0.1935  1.2129  0.2924
  175SAPI  H10R19892   0.600   0.293   7.715 -0.1984  0.2968 -0.6059
  175SAPI  H10S19893   0.712   0.306   7.851  2.8163 -0.6979  0.9363
  175SAPI  C21119894   0.710   0.103   7.756  0.5374  0.1024  0.3393
  175SAPI  H11R19895   0.735   0.056   7.660 -0.7811 -1.3126  0.6429
  175SAPI  C21219896   0.698   0.026   7.866  0.0499 -0.4377 -0.2106
  175SAPI  H12R19897   0.719  -0.082   7.863 -1.5467 -0.7912  0.4720
  175SAPI  C21319898   0.681   0.081   8.008 -0.8775  0.0087 -0.0610
  175SAPI  H13R19899   0.621   0.008   8.066 -1.6297  1.0745  0.5284
  175SAPI  H13S19900   0.629   0.179   8.007 -1.3702 -0.2436  0.6846
  175SAPI  C21419901   0.814   0.097   8.071 -0.8533  0.2196  0.1524
  175SAPI  H14R19902   0.895   0.135   8.007 -1.1404 -0.4249 -0.6164
  175SAPI  C21519903   0.847   0.054   8.196 -0.0633 -1.1474  0.1062
  175SAPI  H15R19904   0.946   0.078   8.237  0.0203  0.6796 -1.0711
  175SAPI  C21619905   0.749  -0.005   8.295 -0.3424 -0.5243  0.5292
  175SAPI  H16R19906   0.693  -0.096   8.264 -0.6579  0.1630 -0.9745
  175SAPI  H16S19907   0.667   0.062   8.330  1.3212  1.8864  0.0036
  175SAPI  C21719908   0.823  -0.033   8.429  0.1020  0.9435  0.0587
  175SAPI  H17R19909   0.906  -0.105   8.410 -0.0194  0.5807  0.8530
  175SAPI  H17S19910   0.756  -0.087   8.500  0.7945 -0.2758 -0.1815
  175SAPI  C21819911   0.886   0.094   8.496  0.6081  0.8433  0.5407
  175SAPI  H18R19912   0.801   0.166   8.498 -0.4340 -0.3452  0.5129
  175SAPI  H18S19913   0.964   0.127   8.425  1.5292 -1.0086  0.6234
  175SAPI  C21919914   0.943   0.059   8.632 -0.2475  0.1163 -0.1649
  175SAPI  H19R19915   1.005  -0.032   8.618 -0.4412 -0.2287  1.0777
  175SAPI  H19S19916   0.854   0.050   8.697  1.3481 -0.1847  2.1197
  175SAPI  C22019917   1.015   0.173   8.697 -0.0230  0.0373  0.5291
  175SAPI  H20R19918   0.953   0.264   8.708  1.3449  1.0483  0.2522
  175SAPI  H20S19919   1.098   0.201   8.627 -2.4234 -0.2870 -2.6980
  175SAPI  H20T19920   1.046   0.151   8.801  1.0149 -1.5563 -0.0753
  175SAPI   C3319921   0.883   0.076   6.828  0.8119  0.4156 -0.0332
  175SAPI   H3X19922   0.772   0.068   6.838  0.8556 -0.2662 -0.0570
  175SAPI   H3Y19923   0.912   0.167   6.884 -1.4806  0.7179  0.7840
  175SAPI   C3419924   0.913  -0.045   6.918  0.5873  0.3106 -0.4269
  175SAPI   H4X19925   1.019  -0.072   6.895 -0.0981 -1.1975 -2.0226
  175SAPI   H4Y19926   0.845  -0.122   6.876 -1.3674  0.9816  1.3652
  175SAPI   C3519927   0.883  -0.028   7.072 -0.1873  0.1489  0.1346
  175SAPI   H5X19928   0.773  -0.010   7.073 -0.1943  0.0823  0.6504
  175SAPI   H5Y19929   0.952   0.045   7.120 -1.6269  0.9671  1.0400
  175SAPI   C3619930   0.909  -0.164   7.135 -0.1963  0.2490  0.0584
  175SAPI   H6X19931   1.010  -0.202   7.108  0.2048  0.6022  1.0173
  175SAPI   H6Y19932   0.842  -0.238   7.085  0.6507 -0.0110 -0.7084
  175SAPI   C3719933   0.879  -0.166   7.290  0.0631 -0.3363 -0.1375
  175SAPI   H7X19934   0.785  -0.109   7.305  0.9077  1.4158 -1.1671
  175SAPI   H7Y19935   0.956  -0.102   7.339  0.7376 -1.3176  0.1042
  175SAPI   C3819936   0.867  -0.304   7.352  0.6710  0.2065 -0.6918
  175SAPI   H8X19937   0.955  -0.368   7.330 -0.6214 -0.9359 -3.0035
  175SAPI   H8Y19938   0.780  -0.362   7.313  1.3050 -1.6336  0.4951
  175SAPI   C3919939   0.824  -0.304   7.504 -0.4709 -0.1854  0.6893
  175SAPI   H9X19940   0.819  -0.411   7.534  2.3734 -1.0883 -1.5870
  175SAPI   H9Y19941   0.719  -0.270   7.518 -0.9699 -0.6511 -1.6018
  175SAPI  C31019942   0.925  -0.224   7.593  0.4730  0.5605  1.0060
  175SAPI  H10X19943   0.914  -0.114   7.587  0.9032  0.5652 -0.1185
  175SAPI  H10Y19944   1.025  -0.254   7.553  0.4243  0.3149  1.0672
  175SAPI  C31119945   0.936  -0.271   7.742  0.1199  0.4878  0.2424
  175SAPI  H11X19946   0.963  -0.379   7.747  0.9105  0.6864  0.3206
  175SAPI  H11Y19947   0.834  -0.250   7.783 -0.3916 -0.8684 -0.2654
  175SAPI  C31219948   1.049  -0.190   7.812 -0.4329  0.3371  0.2967
  175SAPI  H12X19949   1.048  -0.083   7.782 -0.4812  0.5856  1.1449
  175SAPI  H12Y19950   1.151  -0.204   7.771 -1.0369  1.0836 -1.5588
  175SAPI  C31319951   1.037  -0.200   7.964  0.1945  0.5228  0.1636
  175SAPI  H13X19952   1.054  -0.306   7.994  0.8483  1.2342  2.4659
  175SAPI  H13Y19953   0.934  -0.168   7.990 -0.2686 -1.5005  1.0065
  175SAPI  C31419954   1.143  -0.118   8.039  0.3894  0.1614 -0.2708
  175SAPI  H14X19955   1.116  -0.013   8.016  0.3816  0.6230  1.6572
  175SAPI  H14Y19956   1.246  -0.133   8.000 -0.0850 -3.1930 -0.5420
  175SAPI  C31519957   1.153  -0.148   8.187 -1.0303  0.2531  0.5769
  175SAPI  H15X19958   1.053  -0.179   8.224 -0.4779 -3.0816 -0.4316
  175SAPI  H15Y19959   1.183  -0.057   8.243  1.1781 -1.2255  1.9035
  175SAPI  C31619960   1.230  -0.273   8.225 -0.4009  0.1792  0.1493
  175SAPI  H16X19961   1.335  -0.259   8.188 -1.2709  0.6206 -2.3667
  175SAPI  H16Y19962   1.188  -0.360   8.170  1.4129 -0.8618  0.3137
  175SAPI  C31719963   1.240  -0.311   8.370 -0.4295  0.0753  0.4002
  175SAPI  H17X19964   1.306  -0.240   8.424  0.2899 -1.8716  2.1756
  175SAPI  H17Y19965   1.299  -0.404   8.380  0.4939  0.5811 -0.1788
  175SAPI  C31819966   1.116  -0.329   8.455  0.0215 -0.1318 -0.1756
  175SAPI  H18X19967   1.143  -0.346   8.561  2.0191 -0.2700 -0.6708
  175SAPI  H18Y19968   1.058  -0.410   8.404 -0.6439  3.5335 -6.2507
  175SAPI  H18Z19969   1.061  -0.233   8.451  0.4547  0.0921 -2.2276
  176SAPI   C1219970   0.346   4.855   6.235 -0.1392  0.4894 -0.0980
  176SAPI    H219971   0.338   4.919   6.326  1.5654 -0.0878  0.5073
  176SAPI    O219972   0.225   4.888   6.173  0.0296  0.4020  0.2081
  176SAPI   HO219973   0.149   4.885   6.231 -0.7597  1.3437 -0.7475
  176SAPI   C1319974   0.464   4.903   6.150  0.4564  0.0959 -0.2398
  176SAPI    H319975   0.553   4.897   6.216 -1.5258 -2.1638  2.4656
  176SAPI    O319976   0.447   5.037   6.099 -0.1517 -0.1427  0.7502
  176SAPI   HO319977   0.530   5.081   6.084 -0.9109  0.6501 -1.4993
  176SAPI   C1419978   0.470   4.803   6.033 -0.5196  0.3140  0.0316
  176SAPI    H419979   0.372   4.817   5.981 -1.5579 -2.0299  1.1808
  176SAPI    O419980   0.574   4.851   5.936  0.3790 -0.4988 -0.7253
  176SAPI   HO419981   0.661   4.845   5.976  0.2466  0.4976 -0.2660
  176SAPI   C1519982   0.495   4.665   6.072 -0.2264 -0.3055 -1.0377
  176SAPI    H519983   0.582   4.655   6.140 -1.2473 -0.0154  0.3674
  176SAPI    O519984   0.521   4.587   5.960 -0.0781 -0.3389  0.3536
  176SAPI   HO519985   0.612   4.560   5.947 -0.1787 -0.6722  0.3404
  176SAPI   C1619986   0.379   4.622   6.161  0.4910  0.0885  0.2791
  176SAPI    H619987   0.278   4.626   6.117  0.5878 -1.8364 -0.2478
  176SAPI    O619988   0.386   4.489   6.207 -0.5217  0.1674 -0.3389
  176SAPI   HO619989   0.379   4.489   6.303  0.9501  0.6008 -0.2089
  176SAPI   C1119990   0.371   4.712   6.280  0.8315 -0.0574  0.0189
  176SAPI    H119991   0.468   4.711   6.335  0.8375  0.0607  0.0101
  176SAPI     P19992   0.272   4.599   6.501 -0.2208 -0.0344  0.1064
  176SAPI   O1319993   0.372   4.488   6.479 -0.8243 -0.0814 -0.4436
  176SAPI   O1419994   0.141   4.564   6.544  0.2101  0.4532 -0.1815
  176SAPI   O1219995   0.262   4.690   6.368 -0.1807  0.2084 -0.0239
  176SAPI   O1119996   0.336   4.699   6.602  0.3409 -0.8467 -0.4463
  176SAPI    C119997   0.282   4.829   6.628  0.2252  0.0416 -0.0218
  176SAPI    HA19998   0.365   4.900   6.606  0.1547  0.2034  0.2280
  176SAPI    HB19999   0.199   4.861   6.562  0.4464  0.0528 -0.2987
  176SAPI    C220000   0.236   4.842   6.776 -0.2778  0.1723 -0.2926
  176SAPI    HS20001   0.212   4.942   6.817 -1.5818 -0.5386  0.7326
  176SAPI   O2120002   0.326   4.770   6.862 -0.4121 -0.2073 -0.1841
  176SAPI   C2120003   0.414   4.854   6.919  0.3458  0.4215 -1.0473
  176SAPI   O2220004   0.447   4.963   6.882 -0.6344  0.2982 -0.2437
  176SAPI   C2220005   0.462   4.779   7.049 -0.1661  0.9165 -0.0390
  176SAPI   H2R20006   0.412   4.681   7.062  2.8576 -0.6693  0.4978
  176SAPI   H2S20007   0.566   4.741   7.041 -0.7666 -1.1655  1.1706
  176SAPI    C320008   0.099   4.771   6.804 -0.1033 -0.0588 -0.2289
  176SAPI    HX20009   0.112   4.667   6.769  2.6247  0.6038 -1.4377
  176SAPI    HY20010   0.024   4.810   6.732 -0.9466  0.5524  0.9549
  176SAPI   O3120011   0.069   4.777   6.945 -0.3585  0.3018 -0.3383
  176SAPI   C3120012  -0.044   4.720   6.979  0.1352  0.2501  0.0119
  176SAPI   O3220013  -0.113   4.660   6.899  0.4303 -0.1469  0.3029
  176SAPI   C3220014  -0.070   4.730   7.128  0.1624  0.0524  0.0084
  176SAPI   H2X20015  -0.075   4.840   7.141 -0.4139  0.0997 -0.5497
  176SAPI   H2Y20016   0.008   4.686   7.194  0.7074 -0.1642 -0.7739
  176SAPI   C2320017   0.445   4.882   7.165  0.3993  0.3872 -0.4718
  176SAPI   H3R20018   0.335   4.900   7.170 -0.0092 -1.7100 -0.9324
  176SAPI   H3S20019   0.491   4.973   7.122  1.7193 -0.8740 -1.8608
  176SAPI   C2420020   0.504   4.832   7.295  0.0334  0.6759  0.2397
  176SAPI   H4R20021   0.483   4.911   7.370 -0.6978  1.1345 -0.4239
  176SAPI   H4S20022   0.615   4.823   7.291 -0.1306 -1.3310 -1.0955
  176SAPI   C2520023   0.440   4.702   7.346  0.5266  0.0433 -0.1664
  176SAPI   H5R20024   0.503   4.611   7.338  0.5456  0.0888 -0.5279
  176SAPI   C2620025   0.331   4.688   7.420  0.3613  0.4151 -0.2945
  176SAPI   H6R20026   0.305   4.583   7.437 -1.5296  0.8664 -0.1382
  176SAPI   C2720027   0.242   4.792   7.474 -0.1394 -0.3249  0.5130
  176SAPI   H7R20028   0.243   4.877   7.402  0.7597  0.3152  1.2594
  176SAPI   H7S20029   0.285   4.839   7.565  3.1455 -2.1370  0.0401
  176SAPI   C2820030   0.096   4.754   7.484 -0.4158  0.0114 -0.2368
  176SAPI   H8R20031   0.056   4.710   7.391  1.8215 -0.5238 -1.0020
  176SAPI   C2920032   0.018   4.765   7.591  0.0406 -0.0708 -0.1437
  176SAPI   H9R20033  -0.086   4.728   7.593  0.4239 -1.1590  1.2676
  176SAPI  C21020034   0.068   4.817   7.724 -0.3412 -0.9277  0.1186
  176SAPI  H10R20035  -0.019   4.855   7.782 -0.4224  0.6564 -0.9882
  176SAPI  H10S20036   0.133   4.904   7.700 -1.7755  0.8468  2.2454
  176SAPI  C21120037   0.162   4.730   7.805 -0.4857 -0.1862  0.3607
  176SAPI  H11R20038   0.132   4.624   7.807  0.7597 -0.5427  1.1503
  176SAPI  C21220039   0.278   4.757   7.879  0.0661 -0.5467  0.2278
  176SAPI  H12R20040   0.322   4.675   7.939  0.3868 -2.2849 -2.2431
  176SAPI  C21320041   0.333   4.896   7.897  0.1773  0.2041 -0.1718
  176SAPI  H13R20042   0.304   4.931   7.999  0.8744  0.4742 -0.0595
  176SAPI  H13S20043   0.284   4.969   7.830 -0.0832 -1.5519 -1.9854
  176SAPI  C21420044   0.483   4.905   7.883 -0.0474 -0.0431 -0.1290
  176SAPI  H14R20045   0.525   4.871   7.787 -1.3849  1.1628 -1.1825
  176SAPI  C21520046   0.564   4.968   7.968 -0.0731 -0.2857 -0.6744
  176SAPI  H15R20047   0.672   4.978   7.954  0.2611 -2.0119  0.3961
  176SAPI  C21620048   0.525   5.042   8.094  0.2992 -0.1961 -1.4079
  176SAPI  H16R20049   0.424   5.086   8.081 -0.4371 -0.8337  1.5688
  176SAPI  H16S20050   0.601   5.123   8.103  0.2569 -0.1932 -1.0789
  176SAPI  C21720051   0.532   4.956   8.224 -0.5136  0.3274  0.9937
  176SAPI  H17R20052   0.521   5.035   8.302  0.8024  1.6614 -0.1034
  176SAPI  H17S20053   0.633   4.913   8.241  1.1882  2.3159 -2.7566
  176SAPI  C21820054   0.425   4.846   8.240 -0.0952 -0.3078  0.2400
  176SAPI  H18R20055   0.435   4.778   8.154  0.6429  1.5519 -1.2192
  176SAPI  H18S20056   0.318   4.878   8.242  0.0366  0.1133  1.2416
  176SAPI  C21920057   0.443   4.763   8.370  0.2807 -0.6894  0.6025
  176SAPI  H19R20058   0.553   4.749   8.379  0.2907 -0.7994  0.3350
  176SAPI  H19S20059   0.385   4.669   8.372 -0.0932 -0.4411  1.9036
  176SAPI  C22020060   0.400   4.840   8.495 -0.2736 -0.1542 -0.2905
  176SAPI  H20R20061   0.441   4.791   8.586  1.0418  3.2529  1.1339
  176SAPI  H20S20062   0.291   4.841   8.519 -0.2322  0.8357 -0.0950
  176SAPI  H20T20063   0.432   4.946   8.503 -1.2567  0.0200  3.9571
  176SAPI   C3320064  -0.210   4.664   7.165 -0.1198  0.0632 -0.3727
  176SAPI   H3X20065  -0.202   4.558   7.133  1.9516 -1.1434  3.5189
  176SAPI   H3Y20066  -0.297   4.715   7.118  0.3041  0.4723 -0.7271
  176SAPI   C3420067  -0.228   4.676   7.319  0.1415  0.0511 -0.0734
  176SAPI   H4X20068  -0.219   4.783   7.348  2.3614  0.5471 -2.2343
  176SAPI   H4Y20069  -0.142   4.626   7.369 -1.1020 -1.7427  0.3690
  176SAPI   C3520070  -0.361   4.604   7.360  0.4609 -0.5599 -0.3195
  176SAPI   H5X20071  -0.351   4.498   7.327 -1.0245 -0.3927 -1.3844
  176SAPI   H5Y20072  -0.452   4.640   7.308  0.0579 -3.0183 -1.4571
  176SAPI   C3620073  -0.381   4.606   7.511  0.7345  0.1888  0.1830
  176SAPI   H6X20074  -0.296   4.547   7.552 -0.4468 -1.7057 -0.0066
  176SAPI   H6Y20075  -0.473   4.547   7.529  0.5088  1.1154  2.5062
  176SAPI   C3720076  -0.412   4.745   7.572 -0.3544  0.0026  0.6605
  176SAPI   H7X20077  -0.505   4.784   7.525 -0.7835  0.3696  1.7856
  176SAPI   H7Y20078  -0.326   4.813   7.556 -0.8497  0.9019  1.7500
  176SAPI   C3820079  -0.422   4.729   7.730 -0.2534 -0.5322  0.7439
  176SAPI   H8X20080  -0.510   4.667   7.755 -1.3314  0.8228  0.4561
  176SAPI   H8Y20081  -0.434   4.833   7.769  2.1672  0.2727 -0.4153
  176SAPI   C3920082  -0.299   4.672   7.804 -0.2047  0.4085 -0.0710
  176SAPI   H9X20083  -0.212   4.737   7.785  0.0233 -0.4273 -2.2167
  176SAPI   H9Y20084  -0.280   4.572   7.758 -2.1177  0.5339 -1.2811
  176SAPI  C31020085  -0.323   4.657   7.950  0.0834  0.5288 -0.4262
  176SAPI  H10X20086  -0.418   4.605   7.970  0.3973 -0.0768 -0.4872
  176SAPI  H10Y20087  -0.333   4.758   7.996  0.1119  0.3739 -0.0776
  176SAPI  C31120088  -0.205   4.581   8.017  0.3246 -0.0148 -0.0848
  176SAPI  H11X20089  -0.115   4.600   7.954  1.5255 -1.8100  1.0018
  176SAPI  H11Y20090  -0.236   4.474   8.010 -0.9069  0.2690  0.7531
  176SAPI  C31220091  -0.181   4.612   8.161  0.8964 -0.2261  0.7345
  176SAPI  H12X20092  -0.279   4.609   8.213  0.9084  2.7808  1.1369
  176SAPI  H12Y20093  -0.144   4.715   8.182 -2.4488  0.7466  2.6234
  176SAPI  C31320094  -0.078   4.524   8.235  0.0348  0.1138  0.3517
  176SAPI  H13X20095   0.010   4.534   8.168 -0.8457  0.0918 -0.8387
  176SAPI  H13Y20096  -0.107   4.418   8.251 -0.1644  0.1263  0.0724
  176SAPI  C31420097  -0.025   4.580   8.374 -0.2596 -0.5212 -0.0141
  176SAPI  H14X20098  -0.105   4.554   8.447  0.5606  1.1229  1.5672
  176SAPI  H14Y20099  -0.011   4.690   8.364  2.0040 -0.6389  1.2595
  176SAPI  C31520100   0.103   4.521   8.426 -0.1303  0.6462 -0.2637
  176SAPI  H15X20101   0.164   4.599   8.475  1.0012  0.6904 -1.6557
  176SAPI  H15Y20102   0.160   4.485   8.337 -0.4111 -0.9508  0.1749
  176SAPI  C31620103   0.067   4.401   8.525  0.7052 -0.2382 -0.0588
  176SAPI  H16X20104   0.168   4.356   8.537  1.0469  0.3964 -0.4807
  176SAPI  H16Y20105   0.005   4.323   8.476  0.4320 -1.6196  2.2802
  176SAPI  C31720106   0.014   4.452   8.664  0.4284  0.3129  0.3461
  176SAPI  H17X20107  -0.093   4.479   8.657 -0.2024 -1.9111  0.5304
  176SAPI  H17Y20108   0.076   4.532   8.709 -1.6416  1.8554  0.5968
  176SAPI  C31820109   0.017   4.340   8.765  0.8356 -0.3974 -0.1262
  176SAPI  H18X20110   0.115   4.287   8.768  2.3609  2.2405  0.0220
  176SAPI  H18Y20111  -0.058   4.264   8.735 -0.3211  1.3302 -1.9078
  176SAPI  H18Z20112  -0.008   4.370   8.869  2.6320  0.2696  0.1570
  177SLPC     N20113   3.673   2.127  10.824  0.5955 -0.0003 -0.0993
  177SLPC   C1320114   3.611   2.035  10.926 -0.6550 -0.3339 -0.1128
  177SLPC  H13A20115   3.537   1.965  10.891 -0.8845  0.0011 -0.3022
  177SLPC  H13B20116   3.689   1.977  10.975  1.0743  0.6239 -1.5986
  177SLPC  H13C20117   3.577   2.094  11.009 -0.3432 -0.6374  0.2358
  177SLPC   C1420118   3.723   2.034  10.722  0.4791 -0.0764  0.7754
  177SLPC  H14A20119   3.796   1.964  10.759  0.7549 -0.1800  0.0668
  177SLPC  H14B20120   3.644   1.980  10.673 -0.0195  1.0470  0.2900
  177SLPC  H14C20121   3.764   2.090  10.639 -1.6963 -2.5079 -2.1436
  177SLPC   C1520122   3.784   2.203  10.876 -0.4546  0.8946 -0.3369
  177SLPC  H15A20123   3.810   2.277  10.801  0.4880  0.2097 -0.7042
  177SLPC  H15B20124   3.758   2.259  10.965  1.8747  1.3497  0.1416
  177SLPC  H15C20125   3.871   2.141  10.895 -0.7780  0.2588 -0.9045
  177SLPC   C1220126   3.563   2.214  10.763  0.1092  0.0533 -0.7891
  177SLPC  H12A20127   3.510   2.262  10.844  2.5514 -0.4009  1.1756
  177SLPC  H12B20128   3.488   2.151  10.717 -0.3766  0.0998 -0.0810
  177SLPC   C1120129   3.602   2.311  10.651 -0.0952  0.3457  0.5940
  177SLPC  H11A20130   3.506   2.352  10.613  0.2617  1.8934  1.2911
  177SLPC  H11B20131   3.661   2.262  10.570 -1.1794 -0.6056  0.3510
  177SLPC     P20132   3.622   2.543  10.766  0.3218  0.3589 -0.0819
  177SLPC   O1320133   3.477   2.536  10.785  0.1146 -0.3262  0.6439
  177SLPC   O1420134   3.705   2.581  10.878  0.0889 -0.5811 -0.2060
  177SLPC   O1220135   3.679   2.411  10.706  0.2254 -0.5118 -0.1815
  177SLPC   O1120136   3.645   2.653  10.651  0.2214 -0.1094  0.3161
  177SLPC    C120137   3.738   2.625  10.541 -0.4079  0.1913 -0.1792
  177SLPC    HA20138   3.845   2.616  10.571  0.2613 -0.8005 -2.6613
  177SLPC    HB20139   3.697   2.536  10.489 -1.1370  1.1144 -1.2381
  177SLPC    C220140   3.741   2.740  10.434  0.0100  0.2665  0.2327
  177SLPC    HS20141   3.751   2.837  10.486  3.7875  0.6446 -0.8821
  177SLPC   O2120142   3.622   2.742  10.354 -0.5067  0.4468  0.0681
  177SLPC   C2120143   3.604   2.855  10.287  0.3318  0.6490  0.0522
  177SLPC   O2220144   3.683   2.945  10.286 -0.2853 -0.9308 -0.3649
  177SLPC   C2220145   3.459   2.855  10.254  0.0244  0.2923  0.4917
  177SLPC   H2R20146   3.404   2.823  10.345  1.1402 -0.6432  0.8562
  177SLPC   H2S20147   3.424   2.961  10.261 -0.7396  0.0267  0.7699
  177SLPC    C320148   3.865   2.722  10.335  0.0275  0.1248  0.1070
  177SLPC    HX20149   3.953   2.720  10.402 -0.7059  1.3772  1.1495
  177SLPC    HY20150   3.889   2.808  10.268  1.7847 -0.6372 -0.3094
  177SLPC   O3120151   3.855   2.602  10.252 -0.7607 -0.1589 -0.3026
  177SLPC   C3120152   3.842   2.610  10.130 -0.1099 -0.2737  0.5078
  177SLPC   O3220153   3.835   2.710  10.065  0.4654  0.0254  0.0266
  177SLPC   C3220154   3.834   2.467  10.070  0.2540 -0.6161 -0.3627
  177SLPC   H2X20155   3.727   2.454  10.041 -0.0547  0.9963 -0.0431
  177SLPC   H2Y20156   3.860   2.397  10.152  0.2344  0.1384  0.3015
  177SLPC   C2320157   3.422   2.767  10.135  0.0766  0.4976  0.3565
  177SLPC   H3R20158   3.313   2.753  10.117 -0.1705  0.0644  2.0384
  177SLPC   H3S20159   3.470   2.668  10.147  2.1493  1.7102  2.9703
  177SLPC   C2420160   3.478   2.824  10.001  0.0301  0.6703 -0.9200
  177SLPC   H4R20161   3.554   2.904  10.017 -0.9642  1.5076 -0.3018
  177SLPC   H4S20162   3.393   2.871   9.947  0.3099  0.0574 -1.9337
  177SLPC   C2520163   3.530   2.719   9.908  0.6697 -0.4459  0.2177
  177SLPC   H5R20164   3.451   2.644   9.888 -0.2492  0.6607 -0.3831
  177SLPC   H5S20165   3.614   2.662   9.955  1.7834  0.4645 -0.6101
  177SLPC   C2620166   3.591   2.786   9.780  0.1031 -0.7983 -0.2769
  177SLPC   H6R20167   3.645   2.700   9.735  0.3229 -1.0239  0.3989
  177SLPC   H6S20168   3.662   2.868   9.804 -0.9813 -0.5702  2.6245
  177SLPC   C2720169   3.477   2.817   9.677 -0.5771  0.2206  0.6276
  177SLPC   H7R20170   3.416   2.905   9.707  0.7632  1.1310  0.7935
  177SLPC   H7S20171   3.410   2.729   9.689  1.6746 -1.5834  0.6188
  177SLPC   C2820172   3.517   2.807   9.525 -0.6825  0.0937  0.1559
  177SLPC   H8R20173   3.424   2.805   9.465 -1.5683 -1.2378  1.5011
  177SLPC   H8S20174   3.554   2.703   9.515  0.8941  0.4485  1.7433
  177SLPC   C2920175   3.625   2.897   9.481 -0.4221  0.1854 -0.1251
  177SLPC   H9R20176   3.702   2.915   9.558  0.2590 -0.9611 -0.5108
  177SLPC  C21020177   3.643   2.955   9.359  0.4320  0.2419  0.1199
  177SLPC  H10R20178   3.730   3.022   9.356  0.5722  0.1299  1.1627
  177SLPC  C21120179   3.563   2.936   9.229  0.1663  0.1878 -0.0441
  177SLPC  H11R20180   3.615   2.970   9.137 -0.2181  1.3501  0.1500
  177SLPC  H11S20181   3.542   2.827   9.234  0.6231  0.1212  0.4843
  177SLPC  C21220182   3.430   3.006   9.243  0.3854  0.4946  0.2471
  177SLPC  H12R20183   3.387   2.996   9.344 -0.0688 -1.3889 -0.0929
  177SLPC  C21320184   3.356   3.062   9.142  0.0505  0.2805 -0.3380
  177SLPC  H13R20185   3.259   3.108   9.168  0.3964  2.6245 -2.8445
  177SLPC  C21420186   3.391   3.072   9.002 -0.1588  0.1184 -0.0471
  177SLPC  H14R20187   3.293   3.089   8.954 -0.4018  0.8267  0.6667
  177SLPC  H14S20188   3.425   2.971   8.971 -0.7641 -0.4628  1.1144
  177SLPC  C21520189   3.503   3.168   8.968 -0.1254  0.5105  0.0575
  177SLPC  H15R20190   3.505   3.149   8.858 -1.8953 -1.0314  0.2309
  177SLPC  H15S20191   3.600   3.155   9.019 -0.2627 -0.0398  0.1905
  177SLPC  C21620192   3.472   3.318   8.988  0.3384  0.7768 -0.4674
  177SLPC  H16R20193   3.563   3.369   8.951  1.3197 -0.4672  0.1603
  177SLPC  H16S20194   3.453   3.326   9.097 -0.1443 -1.3699 -0.3564
  177SLPC  C21720195   3.357   3.365   8.899 -0.1798  0.2166 -0.3943
  177SLPC  H17R20196   3.259   3.317   8.918 -0.4582  1.3277  1.2620
  177SLPC  H17S20197   3.388   3.324   8.801  0.2261 -0.8700  0.1797
  177SLPC  C21820198   3.325   3.512   8.907  0.1438  0.3329 -0.7854
  177SLPC  H18R20199   3.382   3.555   8.992 -0.5077 -1.1161  0.4374
  177SLPC  H18S20200   3.221   3.539   8.933  0.3681 -0.1133  0.6912
  177SLPC  H18T20201   3.345   3.574   8.817 -0.3970  1.7334  0.0305
  177SLPC   C3320202   3.921   2.446   9.943  0.5536  0.6279 -0.2408
  177SLPC   H3X20203   3.907   2.338   9.923  2.8577  0.1324  0.5242
  177SLPC   H3Y20204   4.027   2.470   9.964 -0.1106  3.7867  0.1338
  177SLPC   C3420205   3.859   2.504   9.817 -0.3763  0.2004 -1.5171
  177SLPC   H4X20206   3.856   2.615   9.827 -0.7774  0.0785 -0.1027
  177SLPC   H4Y20207   3.753   2.471   9.808  0.1562 -1.4342 -2.0545
  177SLPC   C3520208   3.930   2.454   9.691  0.3264  0.2110  0.6647
  177SLPC   H5X20209   3.927   2.343   9.688  1.3335  0.1691  0.7463
  177SLPC   H5Y20210   4.035   2.488   9.708  0.0858  1.1974  0.2659
  177SLPC   C3620211   3.872   2.526   9.567 -0.2877  0.5137  1.5164
  177SLPC   H6X20212   3.821   2.618   9.603 -0.5157  0.8350  0.4162
  177SLPC   H6Y20213   3.799   2.455   9.522  0.7170  0.3720  0.0109
  177SLPC   C3720214   3.959   2.576   9.451  0.1140 -0.0614 -0.3876
  177SLPC   H7X20215   3.997   2.482   9.407  1.4231 -1.2718  3.0798
  177SLPC   H7Y20216   4.055   2.628   9.472  0.5251 -0.4186 -1.3441
  177SLPC   C3820217   3.871   2.648   9.348 -0.0768  0.7078 -0.4836
  177SLPC   H8X20218   3.820   2.731   9.402 -1.7338 -1.7097  1.9340
  177SLPC   H8Y20219   3.793   2.578   9.311  0.7090 -0.2440 -0.3892
  177SLPC   C3920220   3.960   2.708   9.233 -0.0633 -0.0179  0.7245
  177SLPC   H9X20221   4.027   2.630   9.192  0.6281  0.9427 -0.0157
  177SLPC   H9Y20222   4.033   2.774   9.284 -1.3098  1.1390  1.0779
  177SLPC  C31020223   3.884   2.774   9.117  0.2824 -0.1998 -0.1105
  177SLPC  H10X20224   3.823   2.860   9.151  1.0902  0.3646 -0.0481
  177SLPC  H10Y20225   3.812   2.698   9.081 -1.1136  0.0580  2.0135
  177SLPC  C31120226   3.974   2.821   8.996  0.1879  0.1432 -0.6540
  177SLPC  H11X20227   4.024   2.740   8.940 -2.0637 -0.8753 -1.2852
  177SLPC  H11Y20228   4.041   2.894   9.047 -1.7522  2.4100 -1.1943
  177SLPC  C31220229   3.892   2.895   8.890  0.3102 -0.3823 -1.1083
  177SLPC  H12X20230   3.843   2.981   8.941  1.3627 -0.7285  0.5697
  177SLPC  H12Y20231   3.811   2.832   8.850 -0.4711 -1.1879  1.5444
  177SLPC  C31320232   3.985   2.941   8.774  0.4913  1.3798 -0.0703
  177SLPC  H13X20233   4.058   2.861   8.750  1.0314  1.5218  1.0332
  177SLPC  H13Y20234   4.042   3.027   8.814  2.5111  0.2773 -0.4704
  177SLPC  C31420235   3.896   2.965   8.653 -0.0139 -0.7151  0.3548
  177SLPC  H14X20236   3.851   3.062   8.682  1.3734  0.3373 -0.8878
  177SLPC  H14Y20237   3.830   2.877   8.633  0.4080 -1.6159  2.5787
  177SLPC  C31520238   3.985   2.983   8.524  0.0174 -0.1674  0.3542
  177SLPC  H15X20239   4.015   2.882   8.488 -4.0176 -0.8608 -1.5490
  177SLPC  H15Y20240   4.082   3.031   8.550 -0.2668 -0.1156  1.3660
  177SLPC  C31620241   3.920   3.063   8.413  0.5780 -0.3074  0.0589
  177SLPC  H16X20242   3.865   3.151   8.453 -0.0882  0.1574 -1.7745
  177SLPC  H16Y20243   3.835   3.002   8.376 -0.1604  0.2413  0.8261
  177SLPC  C31720244   4.011   3.100   8.291 -0.6409 -0.0744  0.1115
  177SLPC  H17X20245   4.077   3.013   8.274  0.0996  0.1365  1.7332
  177SLPC  H17Y20246   4.068   3.190   8.322 -0.8144  0.0101  0.1930
  177SLPC  C31820247   3.934   3.122   8.161 -0.4575  0.6845 -0.8717
  177SLPC  H18X20248   4.010   3.173   8.098  1.0350  0.6174  0.7914
  177SLPC  H18Y20249   3.853   3.196   8.177  0.6175  1.9578 -1.1876
  177SLPC  H18Z20250   3.900   3.028   8.112  0.6192 -2.6143  3.9925
  178SLPC     N20251   2.523   3.645  10.939 -0.0893 -0.0633  0.1397
  178SLPC   C1320252   2.528   3.742  10.820  0.3575  0.2351 -0.0137
  178SLPC  H13A20253   2.522   3.847  10.843  2.3683  0.4388 -0.2416
  178SLPC  H13B20254   2.625   3.734  10.774  0.6835 -2.9147  0.9467
  178SLPC  H13C20255   2.450   3.706  10.755 -0.0665 -0.5631  0.9079
  178SLPC   C1420256   2.416   3.708  11.029  0.0849  0.4367 -0.2824
  178SLPC  H14A20257   2.323   3.721  10.975  0.5519  0.7185 -1.0203
  178SLPC  H14B20258   2.395   3.646  11.116 -0.2536  1.3785  0.3195
  178SLPC  H14C20259   2.446   3.804  11.066  0.8776  0.0660  0.0603
  178SLPC   C1520260   2.651   3.642  11.011 -0.1816 -0.7404 -0.2280
  178SLPC  H15A20261   2.668   3.733  11.067  0.5812 -0.6744 -0.5457
  178SLPC  H15B20262   2.640   3.558  11.078  1.3346 -4.0470 -3.6894
  178SLPC  H15C20263   2.739   3.625  10.949 -0.0524  1.9608 -0.9254
  178SLPC   C1220264   2.485   3.506  10.889 -0.4704 -0.2427  0.0354
  178SLPC  H12A20265   2.387   3.520  10.846  0.5934  2.8699 -1.6738
  178SLPC  H12B20266   2.476   3.447  10.979  3.1336 -0.6305  0.2972
  178SLPC   C1120267   2.590   3.437  10.798  0.0917  0.1755  1.1531
  178SLPC  H11A20268   2.632   3.506  10.722 -0.3107 -1.2404 -0.4009
  178SLPC  H11B20269   2.542   3.355  10.741  2.6063 -1.1260  0.7738
  178SLPC     P20270   2.669   3.245  10.965 -0.0884  0.3605  0.1674
  178SLPC   O1320271   2.793   3.221  11.041 -0.4182  0.4498  0.3952
  178SLPC   O1420272   2.544   3.269  11.040 -0.2449  0.0661 -0.1764
  178SLPC   O1220273   2.698   3.377  10.877  0.6740  0.8345 -0.0397
  178SLPC   O1120274   2.644   3.133  10.849 -0.7387 -0.1011  0.0541
  178SLPC    C120275   2.738   3.125  10.740 -0.5225 -0.3487 -0.4313
  178SLPC    HA20276   2.813   3.207  10.739 -2.8060  1.8493 -0.6296
  178SLPC    HB20277   2.788   3.027  10.755 -0.6245 -0.4787 -0.9130
  178SLPC    C220278   2.672   3.125  10.601  0.0846  0.9436 -0.7882
  178SLPC    HS20279   2.649   3.232  10.578 -0.0444  1.1468  0.2475
  178SLPC   O2120280   2.551   3.042  10.608  0.1955 -0.7108  0.3765
  178SLPC   C2120281   2.456   3.079  10.534  0.1703  0.3316  0.0532
  178SLPC   O2220282   2.453   3.177  10.463 -0.6118  0.0497  0.4887
  178SLPC   C2220283   2.335   2.988  10.558 -0.1396 -0.0683  0.1907
  178SLPC   H2R20284   2.368   2.902  10.620  2.7163  1.1307  0.4805
  178SLPC   H2S20285   2.267   3.039  10.629  2.2416 -0.2780  2.7960
  178SLPC    C320286   2.772   3.074  10.488  0.6020  0.8622  0.1915
  178SLPC    HX20287   2.813   2.978  10.528 -0.2333  0.6220  0.5072
  178SLPC    HY20288   2.867   3.131  10.478  1.1855  0.0756  1.0528
  178SLPC   O3120289   2.710   3.056  10.358 -0.5340  0.2004 -0.6039
  178SLPC   C3120290   2.701   3.168  10.286  0.0619  0.2270  0.2582
  178SLPC   O3220291   2.759   3.273  10.318 -0.8204 -0.4242 -0.0004
  178SLPC   C3220292   2.613   3.152  10.159  0.1228 -0.5081 -0.7883
  178SLPC   H2X20293   2.675   3.178  10.071  1.8173  2.7350  1.1242
  178SLPC   H2Y20294   2.537   3.233  10.164  0.8408  0.1118  1.0096
  178SLPC   C2320295   2.269   2.941  10.427 -0.0881  0.0445 -0.8929
  178SLPC   H3R20296   2.343   2.871  10.384  2.0024  0.0210  2.3480
  178SLPC   H3S20297   2.246   3.029  10.363  3.8800  1.6796 -0.3913
  178SLPC   C2420298   2.136   2.870  10.464  0.3944 -0.0697  0.0804
  178SLPC   H4R20299   2.063   2.948  10.494  0.7207  0.4674 -0.5062
  178SLPC   H4S20300   2.140   2.804  10.554 -1.8470  1.6419  1.5461
  178SLPC   C2520301   2.071   2.781  10.350 -0.1653 -0.8874 -0.6323
  178SLPC   H5R20302   1.978   2.734  10.390 -0.4505 -0.8043 -1.1874
  178SLPC   H5S20303   2.145   2.702  10.328 -0.5009 -1.2863 -0.3555
  178SLPC   C2620304   2.041   2.851  10.223  0.5808 -0.6516  0.0870
  178SLPC   H6R20305   2.136   2.899  10.190  0.6991 -0.3342  0.8861
  178SLPC   H6S20306   1.975   2.938  10.242  2.6838  1.8650 -2.9890
  178SLPC   C2720307   1.990   2.762  10.112  0.2996 -0.1190  0.0961
  178SLPC   H7R20308   1.942   2.669  10.151 -0.4604  0.7250  1.2570
  178SLPC   H7S20309   2.075   2.737  10.046 -0.9318 -2.1031 -0.8273
  178SLPC   C2820310   1.868   2.826  10.036 -0.9388 -0.4526  0.0460
  178SLPC   H8R20311   1.865   2.759   9.947  0.9332 -0.4543 -0.0667
  178SLPC   H8S20312   1.903   2.925  10.002 -2.4160 -0.0791 -0.4525
  178SLPC   C2920313   1.737   2.835  10.114  0.2352  0.6632  0.2748
  178SLPC   H9R20314   1.722   2.743  10.173 -2.2868  0.2890 -0.8101
  178SLPC  C21020315   1.663   2.945  10.128  0.3070  0.5547 -0.1607
  178SLPC  H10R20316   1.571   2.941  10.188 -0.3353 -0.7439 -1.1689
  178SLPC  C21120317   1.683   3.078  10.060  0.1590 -0.1646  0.1741
  178SLPC  H11R20318   1.779   3.079  10.004  1.4992 -0.0060  2.3897
  178SLPC  H11S20319   1.693   3.169  10.122  1.7532 -0.0865 -0.1456
  178SLPC  C21220320   1.567   3.105   9.970 -0.2177  0.0730  0.1541
  178SLPC  H12R20321   1.478   3.153  10.012  0.0929  0.9426 -0.1659
  178SLPC  C21320322   1.553   3.074   9.834  0.0341 -0.1688  0.9885
  178SLPC  H13R20323   1.463   3.123   9.794  0.0550 -0.3754  0.6898
  178SLPC  C21420324   1.658   3.001   9.756  0.2816  0.6577  0.4173
  178SLPC  H14R20325   1.604   2.916   9.708 -0.6058  1.6645 -0.4316
  178SLPC  H14S20326   1.739   2.962   9.820  0.6940 -1.0505 -1.0817
  178SLPC  C21520327   1.715   3.090   9.644  0.1609  0.0431 -0.2468
  178SLPC  H15R20328   1.786   3.160   9.692 -0.8315  0.5065  0.5808
  178SLPC  H15S20329   1.632   3.140   9.589 -0.4640  1.2497  1.6816
  178SLPC  C21620330   1.796   3.016   9.534 -0.3616  0.0987 -0.6841
  178SLPC  H16R20331   1.858   2.936   9.580  0.2224 -0.3515 -2.2000
  178SLPC  H16S20332   1.869   3.089   9.491  1.5069  0.1182  2.2246
  178SLPC  C21720333   1.702   2.955   9.430  0.7719  0.0525  0.4140
  178SLPC  H17R20334   1.635   3.037   9.394 -0.5821 -0.4444  1.7292
  178SLPC  H17S20335   1.636   2.879   9.476 -0.4040 -0.0227 -1.2630
  178SLPC  C21820336   1.771   2.891   9.316 -0.3495 -0.0451  0.6585
  178SLPC  H18R20337   1.708   2.821   9.256 -0.2904  0.5811 -0.1539
  178SLPC  H18S20338   1.864   2.834   9.337 -0.4873 -0.9413 -0.9626
  178SLPC  H18T20339   1.807   2.975   9.253  1.3306 -0.0271  1.5920
  178SLPC   C3320340   2.546   3.010  10.137  0.3889  0.1886  0.3888
  178SLPC   H3X20341   2.478   2.984  10.221  0.3723  2.6333  1.2127
  178SLPC   H3Y20342   2.630   2.937  10.131 -0.2918 -0.7042  1.3482
  178SLPC   C3420343   2.475   2.983  10.000  0.2335  0.8232 -0.0990
  178SLPC   H4X20344   2.388   3.052   9.994 -0.1736  1.0630  4.5098
  178SLPC   H4Y20345   2.429   2.884  10.020  2.3188 -0.1143  0.2607
  178SLPC   C3520346   2.551   2.983   9.874  0.1560 -0.3205 -0.5841
  178SLPC   H5X20347   2.635   2.912   9.889  0.3211  0.3680  2.3051
  178SLPC   H5Y20348   2.597   3.082   9.853  1.7657 -0.4749  1.8096
  178SLPC   C3620349   2.470   2.922   9.756 -0.0060 -0.0631 -0.0428
  178SLPC   H6X20350   2.370   2.968   9.743 -0.9131 -1.7171  0.6915
  178SLPC   H6Y20351   2.451   2.813   9.768 -0.5569 -0.1838 -1.7689
  178SLPC   C3720352   2.532   2.933   9.617  0.5251  0.7655 -0.2730
  178SLPC   H7X20353   2.600   2.845   9.607 -0.4702 -0.0175 -0.3278
  178SLPC   H7Y20354   2.594   3.024   9.605  0.7114  0.9293  1.6653
  178SLPC   C3820355   2.435   2.931   9.497  0.2702  0.7665 -0.2811
  178SLPC   H8X20356   2.361   3.014   9.507 -0.4833 -0.1300  3.1098
  178SLPC   H8Y20357   2.387   2.831   9.494  1.3235  0.2841 -2.2676
  178SLPC   C3920358   2.497   2.942   9.361 -0.1891 -0.3922  0.6822
  178SLPC   H9X20359   2.596   2.892   9.356  0.9010  1.6701  0.7452
  178SLPC   H9Y20360   2.514   3.049   9.339  0.8149 -0.3892  1.3705
  178SLPC  C31020361   2.414   2.886   9.242 -0.0071  0.5933 -0.0720
  178SLPC  H10X20362   2.314   2.935   9.252 -0.3333  0.2309 -1.3356
  178SLPC  H10Y20363   2.396   2.776   9.237 -0.1136  0.3605  3.1574
  178SLPC  C31120364   2.456   2.948   9.110  0.1692 -0.2643 -0.2471
  178SLPC  H11X20365   2.487   3.053   9.129  1.3526 -0.0561 -2.9014
  178SLPC  H11Y20366   2.378   2.944   9.031  1.0918  1.5389 -1.3033
  178SLPC  C31220367   2.577   2.874   9.046 -0.1042  0.4135  0.5620
  178SLPC  H12X20368   2.552   2.767   9.036  0.8018  0.0923  1.6137
  178SLPC  H12Y20369   2.665   2.884   9.112  0.1240  1.1981  0.1612
  178SLPC  C31320370   2.614   2.934   8.905  1.1854  0.3294  0.1706
  178SLPC  H13X20371   2.605   3.045   8.903  2.1991  0.4215 -2.4307
  178SLPC  H13Y20372   2.534   2.902   8.835  0.8521  0.5559  0.4448
  178SLPC  C31420373   2.749   2.895   8.861 -0.2447 -0.4089  1.0247
  178SLPC  H14X20374   2.747   2.787   8.832 -2.2666 -0.0070 -0.5255
  178SLPC  H14Y20375   2.821   2.906   8.945 -1.7595 -0.0475  2.3209
  178SLPC  C31520376   2.802   2.982   8.741  0.5782  0.3907 -0.0710
  178SLPC  H15X20377   2.733   2.962   8.656 -0.0983  1.5646  0.1846
  178SLPC  H15Y20378   2.800   3.092   8.756 -0.8583  0.7565 -2.3434
  178SLPC  C31620379   2.935   2.932   8.682 -0.7690  1.0830  0.0533
  178SLPC  H16X20380   2.973   2.988   8.595  0.7766 -1.4243 -0.9769
  178SLPC  H16Y20381   2.917   2.830   8.641 -1.9374  0.7198  1.3558
  178SLPC  C31720382   3.058   2.927   8.780 -0.1070  0.6166  0.5994
  178SLPC  H17X20383   3.036   2.853   8.859 -0.7313  0.1879  0.0364
  178SLPC  H17Y20384   3.061   3.029   8.825 -1.1380  1.6672 -1.5698
  178SLPC  C31820385   3.193   2.896   8.721 -0.2381  0.5732 -0.1709
  178SLPC  H18X20386   3.211   2.967   8.637 -1.3053  1.3795  0.2487
  178SLPC  H18Y20387   3.185   2.791   8.685  0.7722  0.7762 -1.0191
  178SLPC  H18Z20388   3.264   2.899   8.806 -2.3554 -1.2914  1.7908
  179SLPC     N20389   1.600   0.417  10.793  0.1310  0.0234 -0.5387
  179SLPC   C1320390   1.517   0.544  10.777  0.8064 -0.2080 -0.6280
  179SLPC  H13A20391   1.418   0.519  10.813 -0.0318  0.2556 -2.4400
  179SLPC  H13B20392   1.558   0.624  10.836 -1.3573 -0.4691  1.3927
  179SLPC  H13C20393   1.520   0.577  10.674  2.1580 -1.5488 -1.0531
  179SLPC   C1420394   1.615   0.361  10.932  0.4752 -0.2671 -0.6682
  179SLPC  H14A20395   1.679   0.430  10.984  0.3184 -0.9513  0.4681
  179SLPC  H14B20396   1.527   0.356  10.994  1.9262  1.5138  1.6675
  179SLPC  H14C20397   1.667   0.266  10.933 -2.0616 -1.7460 -0.4437
  179SLPC   C1520398   1.738   0.452  10.746 -0.2759 -0.3319  0.0967
  179SLPC  H15A20399   1.789   0.358  10.750 -0.7512 -0.6543 -1.1559
  179SLPC  H15B20400   1.724   0.479  10.643  0.5366 -1.0825 -0.2191
  179SLPC  H15C20401   1.785   0.534  10.800  0.5085 -0.2451 -0.6950
  179SLPC   C1220402   1.537   0.311  10.701 -0.5242 -0.3559 -0.2952
  179SLPC  H12A20403   1.502   0.346  10.605  0.0867 -1.5013 -0.9622
  179SLPC  H12B20404   1.449   0.281  10.756  0.6480 -2.1762  0.7029
  179SLPC   C1120405   1.624   0.195  10.666 -0.2830  1.0189  0.1769
  179SLPC  H11A20406   1.565   0.109  10.630  0.5143  0.7371 -0.4746
  179SLPC  H11B20407   1.681   0.161  10.755 -1.3025 -3.3006 -0.6123
  179SLPC     P20408   1.673   0.232  10.417 -0.2398  0.3358 -0.0579
  179SLPC   O1320409   1.757   0.328  10.345  0.5414  0.3312 -0.2777
  179SLPC   O1420410   1.675   0.095  10.372  0.1859  0.5932  0.0893
  179SLPC   O1220411   1.722   0.240  10.564  0.9535 -0.0816 -0.4068
  179SLPC   O1120412   1.527   0.284  10.417  0.5946 -0.3221 -0.4606
  179SLPC    C120413   1.421   0.204  10.370 -0.0829 -0.4495 -0.4256
  179SLPC    HA20414   1.432   0.098  10.400 -2.6941 -0.9435 -0.9371
  179SLPC    HB20415   1.326   0.228  10.423 -0.3810 -2.3142 -0.0455
  179SLPC    C220416   1.390   0.220  10.215 -0.5524 -0.2579  0.0378
  179SLPC    HS20417   1.300   0.167  10.176 -0.1053 -0.0172 -1.4076
  179SLPC   O2120418   1.505   0.169  10.135  0.2517  0.1042 -0.5140
  179SLPC   C2120419   1.515   0.040  10.138  0.1150 -0.0345 -0.2032
  179SLPC   O2220420   1.434  -0.039  10.189 -0.5529  0.3891 -0.5376
  179SLPC   C2220421   1.652   0.023  10.055 -0.4251  1.1096 -0.3957
  179SLPC   H2R20422   1.631   0.075   9.959  1.3056  1.0702 -0.8366
  179SLPC   H2S20423   1.732   0.080  10.106 -1.7958  0.2829  2.9182
  179SLPC    C320424   1.370   0.368  10.184  0.0532 -0.1688  0.1113
  179SLPC    HX20425   1.469   0.415  10.200  0.0370 -0.1474  0.1510
  179SLPC    HY20426   1.310   0.404  10.270  1.4620 -2.0480  2.0040
  179SLPC   O3120427   1.318   0.393  10.052 -0.0007 -0.3107 -0.1053
  179SLPC   C3120428   1.186   0.394  10.059  0.0263  0.2099  0.3149
  179SLPC   O3220429   1.120   0.386  10.154 -0.0715  0.0347 -0.3714
  179SLPC   C3220430   1.145   0.400   9.909  0.0979  0.2490 -0.1846
  179SLPC   H2X20431   1.037   0.372   9.910 -0.1535  1.1859  0.0875
  179SLPC   H2Y20432   1.209   0.331   9.851  1.7866  1.5820  0.0371
  179SLPC   C2320433   1.695  -0.130  10.033  1.1935 -0.9870 -0.5319
  179SLPC   H3R20434   1.622  -0.175   9.962  0.1985  0.5907 -0.5391
  179SLPC   H3S20435   1.691  -0.185  10.130  0.7570 -1.1648 -0.6500
  179SLPC   C2420436   1.833  -0.129   9.964 -0.5300  0.1232  0.3059
  179SLPC   H4R20437   1.907  -0.073  10.023 -1.4296  1.7633 -0.0484
  179SLPC   H4S20438   1.822  -0.074   9.868 -1.8622 -0.0661  0.3288
  179SLPC   C2520439   1.868  -0.272   9.914  0.0194 -0.5323  0.1188
  179SLPC   H5R20440   1.771  -0.312   9.878 -1.1711  0.8889  1.5607
  179SLPC   H5S20441   1.914  -0.333   9.995  1.0165 -0.7150 -0.5645
  179SLPC   C2620442   1.969  -0.273   9.801 -0.5760 -0.0458 -0.1940
  179SLPC   H6R20443   2.025  -0.369   9.800  1.5041  1.0666  1.2666
  179SLPC   H6S20444   2.049  -0.197   9.815 -0.4702 -0.1581 -0.1869
  179SLPC   C2720445   1.896  -0.244   9.662  0.1240 -0.4216 -0.3105
  179SLPC   H7R20446   1.829  -0.156   9.675 -0.3679 -0.7402 -0.7271
  179SLPC   H7S20447   1.829  -0.327   9.634  0.1829 -0.9766  1.0958
  179SLPC   C2820448   1.993  -0.207   9.553  0.1769 -0.1623  0.9130
  179SLPC   H8R20449   2.062  -0.131   9.595 -1.4633  2.2487 -0.4921
  179SLPC   H8S20450   1.951  -0.152   9.466  2.1976 -1.8152 -1.2300
  179SLPC   C2920451   2.075  -0.324   9.499 -0.1436  0.4202  0.4292
  179SLPC   H9R20452   2.112  -0.383   9.585  3.7453  2.3216  0.2743
  179SLPC  C21020453   2.115  -0.356   9.378  0.0589  0.9044 -0.2178
  179SLPC  H10R20454   2.175  -0.447   9.369 -1.0083 -0.0283  1.5069
  179SLPC  C21120455   2.084  -0.283   9.247 -0.4572  0.2376  0.4438
  179SLPC  H11R20456   2.154  -0.198   9.237 -0.0455 -0.1496 -0.0023
  179SLPC  H11S20457   1.978  -0.248   9.250 -0.4423  0.6548 -1.8337
  179SLPC  C21220458   2.098  -0.380   9.127  0.2950  0.8585 -0.3175
  179SLPC  H12R20459   2.108  -0.487   9.151 -2.5123  0.0824 -2.1173
  179SLPC  C21320460   2.112  -0.348   8.999 -0.9031 -0.4713 -0.3971
  179SLPC  H13R20461   2.122  -0.422   8.918 -2.9577 -0.1590 -0.9713
  179SLPC  C21420462   2.113  -0.209   8.945  0.5122 -0.2619 -0.3688
  179SLPC  H14R20463   2.190  -0.199   8.865  0.3583 -2.2521 -0.8208
  179SLPC  H14S20464   2.149  -0.131   9.016  0.1824  0.2759 -0.7822
  179SLPC  C21520465   1.976  -0.177   8.881  0.2742 -0.4056 -0.4090
  179SLPC  H15R20466   1.997  -0.080   8.831  3.8442 -1.1292 -0.5954
  179SLPC  H15S20467   1.899  -0.156   8.958  0.4505  0.5213 -0.4681
  179SLPC  C21620468   1.929  -0.282   8.786  0.1833  0.1869  0.7207
  179SLPC  H16R20469   1.897  -0.377   8.833 -0.1526  0.3895  0.9121
  179SLPC  H16S20470   2.013  -0.307   8.718 -0.0382 -1.3754  0.9954
  179SLPC  C21720471   1.842  -0.234   8.670  0.2191 -0.6624  0.1752
  179SLPC  H17R20472   1.901  -0.157   8.616  0.4502 -1.1883 -0.3206
  179SLPC  H17S20473   1.746  -0.198   8.714  1.7638  0.2342  3.1191
  179SLPC  C21820474   1.802  -0.342   8.571  0.0183  0.5265  0.1528
  179SLPC  H18R20475   1.891  -0.389   8.524  0.4741  2.8036 -1.4693
  179SLPC  H18S20476   1.736  -0.305   8.489  1.5151  0.1658 -1.2620
  179SLPC  H18T20477   1.745  -0.417   8.630 -0.2045  0.1909 -0.4777
  179SLPC   C3320478   1.163   0.544   9.849 -0.5753 -0.8437  0.0460
  179SLPC   H3X20479   1.267   0.550   9.810 -0.9794 -1.5000 -1.1619
  179SLPC   H3Y20480   1.153   0.625   9.926 -0.4318 -0.0198 -0.7846
  179SLPC   C3420481   1.047   0.573   9.743 -0.2678 -0.7622  0.3650
  179SLPC   H4X20482   1.041   0.684   9.738  3.3748 -0.3150  2.3500
  179SLPC   H4Y20483   0.947   0.547   9.782 -1.0116 -1.2068 -1.7190
  179SLPC   C3520484   1.071   0.506   9.606 -0.0634 -0.5988  0.0838
  179SLPC   H5X20485   1.084   0.397   9.622 -1.5051 -1.0354 -1.3521
  179SLPC   H5Y20486   1.162   0.538   9.551 -0.1043 -0.6386 -0.0076
  179SLPC   C3620487   0.957   0.534   9.511 -0.8562 -0.2699  0.0541
  179SLPC   H6X20488   0.933   0.643   9.507 -2.4008 -0.6273 -1.0414
  179SLPC   H6Y20489   0.870   0.488   9.564 -0.7018  1.2402  1.7452
  179SLPC   C3720490   0.974   0.460   9.378 -0.2784  0.1732  0.2802
  179SLPC   H7X20491   0.998   0.353   9.394 -0.9628  0.1138  0.9599
  179SLPC   H7Y20492   1.061   0.498   9.321 -0.4625 -1.0320 -0.8578
  179SLPC   C3820493   0.844   0.467   9.289  0.1532  0.6407  0.5392
  179SLPC   H8X20494   0.818   0.569   9.253 -1.1413  1.0765  2.5322
  179SLPC   H8Y20495   0.763   0.438   9.359  0.7472 -1.5876  0.3792
  179SLPC   C3920496   0.842   0.367   9.170  1.1890 -0.4630 -0.2721
  179SLPC   H9X20497   0.744   0.371   9.118  1.1401  4.4611 -0.2719
  179SLPC   H9Y20498   0.843   0.266   9.218 -0.4209  1.6691  4.9844
  179SLPC  C31020499   0.945   0.391   9.061 -0.5681 -0.3378  0.0662
  179SLPC  H10X20500   0.951   0.315   8.980  0.4877 -2.8074  2.3286
  179SLPC  H10Y20501   1.044   0.386   9.111 -0.3268  3.2666  0.2162
  179SLPC  C31120502   0.932   0.526   8.993  0.1224 -0.0950 -0.0188
  179SLPC  H11X20503   0.963   0.614   9.054 -1.3454 -1.8477  3.4571
  179SLPC  H11Y20504   0.823   0.542   8.980 -0.5244 -2.0729  2.3965
  179SLPC  C31220505   1.003   0.538   8.862  0.5501 -0.2579  0.7075
  179SLPC  H12X20506   0.963   0.450   8.807 -0.2098 -0.1224  1.0305
  179SLPC  H12Y20507   1.108   0.512   8.887  0.6514 -3.1392 -2.0669
  179SLPC  C31320508   0.971   0.672   8.793 -0.8243  0.6702 -0.2419
  179SLPC  H13X20509   0.982   0.761   8.859 -0.9595 -0.5626  1.5205
  179SLPC  H13Y20510   0.860   0.678   8.784 -0.7664  0.2869 -1.3924
  179SLPC  C31420511   1.045   0.695   8.660 -0.1006  0.7850 -0.1842
  179SLPC  H14X20512   1.149   0.717   8.691 -0.1401  1.7133 -0.6612
  179SLPC  H14Y20513   1.008   0.782   8.601 -0.3182 -1.2050 -3.2206
  179SLPC  C31520514   1.031   0.596   8.544  0.4070  0.4327  0.0338
  179SLPC  H15X20515   1.077   0.496   8.559 -1.6291 -0.6222 -0.3788
  179SLPC  H15Y20516   1.080   0.632   8.451 -0.0459 -0.4882 -0.5842
  179SLPC  C31620517   0.881   0.555   8.511 -0.2120  1.0257  0.7253
  179SLPC  H16X20518   0.836   0.654   8.490  0.0131  1.1783  0.9682
  179SLPC  H16Y20519   0.820   0.507   8.591  1.1202 -0.9462  0.6145
  179SLPC  C31720520   0.873   0.458   8.394 -0.0281 -0.5295 -0.9140
  179SLPC  H17X20521   0.930   0.371   8.433 -0.5177 -0.8194 -0.8466
  179SLPC  H17Y20522   0.939   0.508   8.320  1.0276 -0.8377 -0.2090
  179SLPC  C31820523   0.740   0.435   8.334 -0.8408 -0.3271  0.9884
  179SLPC  H18X20524   0.715   0.533   8.289  2.8269  0.5601  0.5929
  179SLPC  H18Y20525   0.660   0.404   8.405 -1.0615 -2.1859 -0.0070
  179SLPC  H18Z20526   0.730   0.360   8.253 -2.5146  0.7472  0.1465
  180SLPC     N20527   6.223   4.805  11.180  0.8556  0.1647  0.0585
  180SLPC   C1320528   6.371   4.805  11.210  0.7605  0.0392 -0.1958
  180SLPC  H13A20529   6.436   4.831  11.128  1.3771 -0.0397  0.2599
  180SLPC  H13B20530   6.394   4.874  11.290  0.9205 -1.5355  1.1835
  180SLPC  H13C20531   6.405   4.708  11.244 -0.4314 -1.2515 -2.4906
  180SLPC   C1420532   6.175   4.946  11.164  0.2262 -0.8193 -0.5697
  180SLPC  H14A20533   6.201   5.009  11.248 -0.3729  0.8115 -1.5646
  180SLPC  H14B20534   6.216   5.000  11.080  1.1489  0.7199  0.8100
  180SLPC  H14C20535   6.068   4.954  11.171  0.3758  0.4692  0.6305
  180SLPC   C1520536   6.149   4.741  11.296 -0.2490  0.2005 -0.0305
  180SLPC  H15A20537   6.192   4.647  11.327 -0.0362  0.0325 -0.8184
  180SLPC  H15B20538   6.139   4.801  11.385  0.7120  0.5812 -0.1788
  180SLPC  H15C20539   6.050   4.717  11.259  0.2229  0.3648 -1.4692
  180SLPC   C1220540   6.198   4.734  11.050 -0.2831 -0.5881  0.0993
  180SLPC  H12A20541   6.271   4.656  11.035  1.3817  1.1085 -1.0575
  180SLPC  H12B20542   6.221   4.802  10.969 -0.1194 -1.4020 -0.5537
  180SLPC   C1120543   6.061   4.671  11.022 -0.3340 -0.3436  0.6736
  180SLPC  H11A20544   6.032   4.604  11.106 -0.2290  0.7522  1.6143
  180SLPC  H11B20545   6.070   4.598  10.939 -0.5324  0.9912 -0.5520
  180SLPC     P20546   5.955   4.858  10.869 -0.2069 -0.0175  0.2503
  180SLPC   O1320547   5.816   4.914  10.844  0.4656  0.3889  0.1662
  180SLPC   O1420548   6.056   4.963  10.873  0.1615  0.3992  0.2209
  180SLPC   O1220549   5.958   4.766  10.995 -0.0591  0.0715 -0.7377
  180SLPC   O1120550   5.996   4.759  10.751  0.8564  0.1653 -0.1735
  180SLPC    C120551   6.104   4.796  10.667 -0.4672  0.1417  0.5020
  180SLPC    HA20552   6.179   4.868  10.706 -0.7734  1.7598 -1.6977
  180SLPC    HB20553   6.165   4.707  10.645 -0.5087  0.3213 -0.3720
  180SLPC    C220554   6.068   4.856  10.525  0.9691 -0.2229  0.8179
  180SLPC    HS20555   5.998   4.935  10.559  2.2100  1.2976  0.0047
  180SLPC   O2120556   6.007   4.759  10.447 -0.4818  0.4887  0.4578
  180SLPC   C2120557   5.908   4.805  10.370  0.3284 -0.0495  0.3804
  180SLPC   O2220558   5.872   4.922  10.370 -0.1632  0.0310  0.1977
  180SLPC   C2220559   5.859   4.699  10.277 -0.2910  0.2497  0.6946
  180SLPC   H2R20560   5.945   4.645  10.231 -0.9340 -2.0114  1.9689
  180SLPC   H2S20561   5.814   4.613  10.331  2.4330 -1.5618  0.2963
  180SLPC    C320562   6.186   4.924  10.446 -0.1385  0.6170 -0.6964
  180SLPC    HX20563   6.274   4.857  10.437 -0.4847  0.2592 -1.5589
  180SLPC    HY20564   6.222   5.005  10.514  1.3103 -1.9099  1.7486
  180SLPC   O3120565   6.163   4.963  10.312  0.1826  0.4730 -0.1248
  180SLPC   C3120566   6.123   5.088  10.294  0.2263  0.3156 -0.5531
  180SLPC   O3220567   6.109   5.171  10.382  0.0444 -0.0299  0.1752
  180SLPC   C3220568   6.105   5.110  10.147 -0.1342 -0.9129 -0.6488
  180SLPC   H2X20569   6.198   5.093  10.090  1.3638 -1.3497  1.7732
  180SLPC   H2Y20570   6.091   5.220  10.140 -0.1332 -0.9625 -1.5131
  180SLPC   C2320571   5.756   4.751  10.175  0.3729  0.1463  0.5708
  180SLPC   H3R20572   5.774   4.852  10.133  2.5986  0.1995  1.5329
  180SLPC   H3S20573   5.667   4.780  10.235  0.3403  2.9654 -0.6912
  180SLPC   C2420574   5.710   4.643  10.086  0.9400  0.5030  0.1734
  180SLPC   H4R20575   5.793   4.608  10.021 -0.3636  0.6623 -1.6549
  180SLPC   H4S20576   5.633   4.680  10.015 -1.2318 -1.5165  1.3364
  180SLPC   C2520577   5.637   4.536  10.167  0.3456  0.5450  0.4067
  180SLPC   H5R20578   5.567   4.589  10.235 -1.0664 -0.1228 -0.4824
  180SLPC   H5S20579   5.710   4.470  10.218  0.1212 -2.3919 -2.6774
  180SLPC   C2620580   5.544   4.454  10.071 -0.1466 -0.4560  0.6085
  180SLPC   H6R20581   5.600   4.396   9.994 -0.2597  2.9738 -2.3281
  180SLPC   H6S20582   5.471   4.523  10.023  0.3703 -1.3907 -1.6618
  180SLPC   C2720583   5.463   4.353  10.150  0.3329  0.4202 -0.3637
  180SLPC   H7R20584   5.529   4.300  10.222 -0.0725 -0.3312 -0.5365
  180SLPC   H7S20585   5.430   4.277  10.077  0.2418  0.0536  0.0574
  180SLPC   C2820586   5.344   4.416  10.223  0.6704  0.8650 -0.5152
  180SLPC   H8R20587   5.270   4.468  10.158 -1.6520 -1.5600  0.0211
  180SLPC   H8S20588   5.368   4.487  10.305 -1.0854 -0.3075  1.0881
  180SLPC   C2920589   5.266   4.301  10.277 -0.6828 -0.1719 -0.2470
  180SLPC   H9R20590   5.272   4.308  10.386  2.0139 -0.6385 -0.3038
  180SLPC  C21020591   5.186   4.207  10.223 -0.1666 -0.1708  0.8408
  180SLPC  H10R20592   5.146   4.124  10.283 -0.5551 -0.9718 -0.4820
  180SLPC  C21120593   5.157   4.185  10.078 -0.2078  0.1429 -0.5362
  180SLPC  H11R20594   5.230   4.107  10.047  1.0641  1.0481  0.0821
  180SLPC  H11S20595   5.183   4.280  10.027  1.4624  0.1961  0.3430
  180SLPC  C21220596   5.019   4.137  10.044  0.5196 -0.0300  0.1088
  180SLPC  H12R20597   4.948   4.218  10.020  0.0290 -0.3358  0.4909
  180SLPC  C21320598   4.957   4.013  10.053  0.1222 -0.2129  0.7210
  180SLPC  H13R20599   4.859   4.009  10.004  0.0733  2.8241  0.4367
  180SLPC  C21420600   5.021   3.886  10.099  0.1711  0.2430 -0.5450
  180SLPC  H14R20601   4.959   3.819  10.163  1.8724 -0.9047 -0.0207
  180SLPC  H14S20602   5.116   3.902  10.153  0.3898  1.6400 -1.3135
  180SLPC  C21520603   5.059   3.808   9.976  0.0923  0.2779  0.6900
  180SLPC  H15R20604   5.116   3.724  10.022  0.4513  1.6382  2.8169
  180SLPC  H15S20605   5.136   3.873   9.930 -0.7499  0.3477 -0.6828
  180SLPC  C21620606   4.944   3.755   9.890 -0.8682  0.1682 -0.0421
  180SLPC  H16R20607   4.864   3.830   9.870 -0.5495  0.2614 -1.0650
  180SLPC  H16S20608   4.892   3.671   9.939 -2.5484  1.3481  0.2610
  180SLPC  C21720609   5.015   3.724   9.757 -0.0921  0.2835  0.3626
  180SLPC  H17R20610   5.103   3.658   9.776  0.4867  0.5315 -1.2976
  180SLPC  H17S20611   5.034   3.824   9.713 -1.9498  0.0636 -1.0752
  180SLPC  C21820612   4.920   3.656   9.662  0.6465  0.0656 -0.1809
  180SLPC  H18R20613   4.834   3.717   9.630  0.5892  0.7880  1.2649
  180SLPC  H18S20614   4.873   3.571   9.716 -1.7408  0.6747 -1.1896
  180SLPC  H18T20615   4.973   3.624   9.569  2.1939  1.5795  0.1296
  180SLPC   C3320616   5.974   5.052  10.086 -0.2480 -0.3081 -0.7750
  180SLPC   H3X20617   5.896   5.089  10.156  0.7368 -2.1522  1.3898
  180SLPC   H3Y20618   5.972   4.942  10.099 -3.7734 -0.3955 -1.0069
  180SLPC   C3420619   5.964   5.089   9.939 -0.5697  0.2984  0.4288
  180SLPC   H4X20620   6.013   5.015   9.873 -0.5544 -0.3857  1.1892
  180SLPC   H4Y20621   6.012   5.186   9.915  0.0297 -0.0918  0.0169
  180SLPC   C3520622   5.819   5.091   9.879 -0.7006  0.1188  0.2560
  180SLPC   H5X20623   5.746   5.136   9.950  1.1604  2.4989  0.7953
  180SLPC   H5Y20624   5.774   4.992   9.855 -2.6140  0.7884  0.8449
  180SLPC   C3620625   5.812   5.184   9.765  0.0628 -1.2003 -0.1279
  180SLPC   H6X20626   5.835   5.290   9.788 -0.4044 -0.9385 -0.8335
  180SLPC   H6Y20627   5.704   5.186   9.736 -0.2384  2.5579  0.6995
  180SLPC   C3720628   5.876   5.134   9.632  0.0432  0.7029  0.2072
  180SLPC   H7X20629   5.885   5.024   9.626  2.8179  0.9161 -1.2306
  180SLPC   H7Y20630   5.984   5.159   9.619 -0.3091  2.1179 -0.1838
  180SLPC   C3820631   5.798   5.171   9.504 -0.0101 -0.2813 -0.3225
  180SLPC   H8X20632   5.782   5.281   9.502  0.4467 -0.2041 -2.1804
  180SLPC   H8Y20633   5.701   5.117   9.502  0.9299 -2.0973  0.6156
  180SLPC   C3920634   5.870   5.141   9.370  0.4707  0.5753 -0.2394
  180SLPC   H9X20635   5.870   5.033   9.348 -0.2053  0.4673  0.2306
  180SLPC   H9Y20636   5.974   5.180   9.368  0.3192  1.0839  0.8539
  180SLPC  C31020637   5.810   5.212   9.248  0.1996 -0.1043 -0.7731
  180SLPC  H10X20638   5.878   5.192   9.162  4.0581  1.4010  1.6321
  180SLPC  H10Y20639   5.806   5.323   9.257 -3.0603 -0.1562 -0.4402
  180SLPC  C31120640   5.662   5.179   9.218 -0.0640  0.2690  0.6875
  180SLPC  H11X20641   5.590   5.198   9.300 -0.9546  0.6119 -0.1464
  180SLPC  H11Y20642   5.651   5.070   9.200 -1.8518  0.3901  0.8643
  180SLPC  C31220643   5.610   5.269   9.101  0.2693 -0.6533  0.3098
  180SLPC  H12X20644   5.641   5.374   9.120 -0.3611 -0.0023 -1.9243
  180SLPC  H12Y20645   5.499   5.276   9.097  0.1968 -2.1146 -2.0066
  180SLPC  C31320646   5.665   5.251   8.954 -0.5427 -0.0916  0.0436
  180SLPC  H13X20647   5.776   5.241   8.948 -0.2585  2.0692  0.7714
  180SLPC  H13Y20648   5.631   5.336   8.892  1.5105  0.6242 -0.1784
  180SLPC  C31420649   5.599   5.127   8.892  0.2453 -0.2748  0.4145
  180SLPC  H14X20650   5.495   5.154   8.863  0.3685 -0.6306 -0.3674
  180SLPC  H14Y20651   5.607   5.040   8.960  2.6293 -1.2720 -1.0196
  180SLPC  C31520652   5.674   5.079   8.761  0.6241 -0.4439 -0.6579
  180SLPC  H15X20653   5.615   4.994   8.719 -2.4203  0.0581  2.1892
  180SLPC  H15Y20654   5.771   5.044   8.802  0.5839 -1.2902 -1.2471
  180SLPC  C31620655   5.707   5.183   8.657  0.1597  1.0433  0.7691
  180SLPC  H16X20656   5.779   5.142   8.584 -0.2833  2.4600 -0.5179
  180SLPC  H16Y20657   5.756   5.274   8.698  1.5001  0.3624  0.7230
  180SLPC  C31720658   5.599   5.238   8.571 -0.5283 -0.7349 -0.3124
  180SLPC  H17X20659   5.640   5.316   8.503 -0.9837  0.1443  0.4079
  180SLPC  H17Y20660   5.525   5.305   8.618  0.8636  0.5672  0.1152
  180SLPC  C31820661   5.538   5.127   8.484  0.4024 -0.1623 -0.3043
  180SLPC  H18X20662   5.461   5.072   8.542 -0.4800  0.1786 -1.1257
  180SLPC  H18Y20663   5.613   5.051   8.456 -0.8252 -1.0062 -1.4159
  180SLPC  H18Z20664   5.483   5.165   8.395  0.7124 -0.7113 -0.7369
  181SLPC     N20665   0.337   2.004  11.438 -0.2623  0.2835  0.7331
  181SLPC   C1320666   0.493   2.003  11.428  0.3293  0.0548 -0.3875
  181SLPC  H13A20667   0.525   1.996  11.325 -1.7353 -0.2344 -1.0522
  181SLPC  H13B20668   0.531   2.088  11.483 -0.9217 -1.0183  2.3189
  181SLPC  H13C20669   0.530   1.915  11.479  0.2678  0.3802  0.2361
  181SLPC   C1420670   0.303   2.036  11.580 -0.4025 -0.4076  0.1965
  181SLPC  H14A20671   0.334   2.135  11.608  0.6505 -0.4234 -0.8548
  181SLPC  H14B20672   0.202   2.036  11.619  0.3098 -1.1376  2.1642
  181SLPC  H14C20673   0.352   1.966  11.645  1.2376  1.0015  0.5280
  181SLPC   C1520674   0.283   1.875  11.393 -0.0425  0.5631  0.1907
  181SLPC  H15A20675   0.325   1.795  11.452 -0.4912  0.8916  0.9717
  181SLPC  H15B20676   0.176   1.865  11.408 -0.0058 -0.5505 -0.2037
  181SLPC  H15C20677   0.291   1.868  11.285  0.6247 -3.9513  0.3632
  181SLPC   C1220678   0.270   2.104  11.350  0.0335  0.1706 -0.9360
  181SLPC  H12A20679   0.265   2.196  11.407 -1.9392  0.2524 -1.1601
  181SLPC  H12B20680   0.165   2.078  11.345  0.3062 -1.3879  0.5128
  181SLPC   C1120681   0.318   2.122  11.200 -0.2960 -0.8692 -0.2973
  181SLPC  H11A20682   0.420   2.165  11.193 -0.5494 -0.3516 -0.8886
  181SLPC  H11B20683   0.262   2.207  11.154  2.4718  0.2101 -1.8907
  181SLPC     P20684   0.385   1.964  11.024  0.0637  0.2457 -0.1335
  181SLPC   O1320685   0.508   1.933  11.099  0.2961  0.3095  0.3244
  181SLPC   O1420686   0.323   1.860  10.940  0.5506  0.3694 -0.1643
  181SLPC   O1220687   0.276   2.011  11.126  0.0217  0.5127  0.2243
  181SLPC   O1120688   0.410   2.094  10.936  0.2464  0.5035  0.2234
  181SLPC    C120689   0.315   2.177  10.875  0.6353 -0.8648  0.3660
  181SLPC    HA20690   0.212   2.165  10.912  1.0618  0.5564  2.1304
  181SLPC    HB20691   0.340   2.278  10.914 -3.1315 -0.1300  1.2616
  181SLPC    C220692   0.333   2.167  10.719 -0.1103  0.4042  0.6411
  181SLPC    HS20693   0.304   2.062  10.694 -0.0765  0.2813  1.1142
  181SLPC   O2120694   0.474   2.195  10.673 -0.2012  0.3661  0.0251
  181SLPC   C2120695   0.558   2.093  10.690 -0.4279 -0.1625  0.1388
  181SLPC   O2220696   0.539   1.974  10.684  0.7096  0.5255  0.0724
  181SLPC   C2220697   0.689   2.153  10.731  0.4368 -0.5188  0.0387
  181SLPC   H2R20698   0.685   2.264  10.735 -1.0624 -0.5660  3.1187
  181SLPC   H2S20699   0.704   2.123  10.837  0.1130 -0.2358  0.1643
  181SLPC    C320700   0.227   2.252  10.641  0.2246  0.7469  0.9618
  181SLPC    HX20701   0.229   2.361  10.665  0.2063  1.2587 -1.1871
  181SLPC    HY20702   0.126   2.214  10.669 -0.4512  1.9129  0.1993
  181SLPC   O3120703   0.247   2.231  10.498  0.0070  0.2134  0.0778
  181SLPC   C3120704   0.328   2.313  10.436 -0.0191  0.1296  0.6008
  181SLPC   O3220705   0.396   2.403  10.478 -0.5864  0.0337 -0.0526
  181SLPC   C3220706   0.352   2.250  10.295 -0.5536 -0.2849  0.0960
  181SLPC   H2X20707   0.261   2.206  10.249  0.7608 -2.2633 -0.7294
  181SLPC   H2Y20708   0.419   2.166  10.324 -0.0506  0.5262  1.3570
  181SLPC   C2320709   0.815   2.106  10.648 -0.0521 -0.0130  0.2413
  181SLPC   H3R20710   0.815   1.997  10.628  0.3583 -0.5698  2.9356
  181SLPC   H3S20711   0.907   2.116  10.709  0.8073 -1.7471 -0.6932
  181SLPC   C2420712   0.853   2.182  10.518  0.3687 -0.2321  0.3933
  181SLPC   H4R20713   0.957   2.156  10.486  0.4437  1.3648 -0.7937
  181SLPC   H4S20714   0.850   2.289  10.546  1.4341 -0.2928  0.8110
  181SLPC   C2520715   0.749   2.166  10.403 -0.1212 -0.5123  0.2487
  181SLPC   H5R20716   0.650   2.195  10.443 -0.7484 -1.5249 -0.5145
  181SLPC   H5S20717   0.742   2.062  10.365  3.1464 -1.3098  1.5350
  181SLPC   C2620718   0.784   2.259  10.289 -0.0634 -0.2549 -0.4673
  181SLPC   H6R20719   0.772   2.363  10.327 -0.0127 -1.6500  3.9106
  181SLPC   H6S20720   0.694   2.250  10.225  0.2415  2.3799 -1.3785
  181SLPC   C2720721   0.916   2.235  10.211 -0.2387  0.3179  0.8058
  181SLPC   H7R20722   0.930   2.125  10.211  1.0139  0.4298  2.5002
  181SLPC   H7S20723   1.001   2.276  10.271  0.3207 -0.9744  0.9418
  181SLPC   C2820724   0.920   2.289  10.064  0.3502 -0.2959 -0.2836
  181SLPC   H8R20725   1.019   2.257  10.024  0.7254  1.0328 -0.4795
  181SLPC   H8S20726   0.921   2.400  10.069 -2.3366 -0.2205  0.0362
  181SLPC   C2920727   0.798   2.236   9.990  0.1250 -0.1159 -0.3491
  181SLPC   H9R20728   0.708   2.278  10.037  0.1891  1.1735 -1.3109
  181SLPC  C21020729   0.800   2.147   9.891  0.3780  0.1142 -1.0256
  181SLPC  H10R20730   0.705   2.110   9.849  0.8634 -0.3118 -1.7744
  181SLPC  C21120731   0.919   2.081   9.835 -0.4167  0.0735  0.6826
  181SLPC  H11R20732   1.010   2.145   9.845 -0.2404 -0.2809  1.3761
  181SLPC  H11S20733   0.897   2.067   9.727  0.4618  0.2086  0.4798
  181SLPC  C21220734   0.937   1.938   9.895 -0.2472 -0.4680 -0.0456
  181SLPC  H12R20735   0.954   1.943  10.004 -1.0209 -0.9941  0.1086
  181SLPC  C21320736   0.932   1.817   9.841  0.3964  0.0712  0.7091
  181SLPC  H13R20737   0.930   1.726   9.903 -0.4894 -1.1853 -1.0777
  181SLPC  C21420738   0.920   1.794   9.693 -0.7151  0.7708  0.6432
  181SLPC  H14R20739   0.911   1.886   9.633  1.8366  2.6154  2.8424
  181SLPC  H14S20740   0.830   1.734   9.669  1.9542 -2.5395 -2.1812
  181SLPC  C21520741   1.042   1.712   9.647 -0.0143 -0.4667 -0.3474
  181SLPC  H15R20742   1.078   1.640   9.724  0.8892  0.1510 -0.1772
  181SLPC  H15S20743   1.132   1.776   9.632  0.7328 -1.6795 -1.2877
  181SLPC  C21620744   1.012   1.617   9.533 -0.2355  0.0908  0.6273
  181SLPC  H16R20745   0.986   1.676   9.443 -1.6878  1.2032  1.7226
  181SLPC  H16S20746   0.919   1.559   9.551 -2.0076  2.4048 -0.5385
  181SLPC  C21720747   1.134   1.525   9.513 -0.4978  0.5608  0.0075
  181SLPC  H17R20748   1.155   1.469   9.607  0.8799 -0.3980 -0.8218
  181SLPC  H17S20749   1.225   1.587   9.499 -0.0222  0.3661  1.9228
  181SLPC  C21820750   1.125   1.419   9.399 -0.3388  0.2371 -0.0768
  181SLPC  H18R20751   1.174   1.453   9.305 -0.3788 -1.6452 -0.8339
  181SLPC  H18S20752   1.017   1.404   9.375 -0.1814 -0.7390 -0.2048
  181SLPC  H18T20753   1.173   1.322   9.424 -0.6332 -0.8143 -3.1114
  181SLPC   C3320754   0.407   2.346  10.190 -0.5598  0.0692  0.0750
  181SLPC   H3X20755   0.514   2.368  10.207 -0.6259  0.7182 -0.3032
  181SLPC   H3Y20756   0.355   2.444  10.200 -1.8544 -0.5001 -0.8024
  181SLPC   C3420757   0.403   2.297  10.047 -0.4549 -0.0437  0.2512
  181SLPC   H4X20758   0.298   2.290  10.013 -0.7370 -0.4230  1.1637
  181SLPC   H4Y20759   0.442   2.194  10.040 -0.6302 -0.0587 -0.5595
  181SLPC   C3520760   0.475   2.391   9.944  0.5591 -0.0820  0.7490
  181SLPC   H5X20761   0.580   2.404   9.978  1.9117 -1.4440 -2.4544
  181SLPC   H5Y20762   0.434   2.494   9.955  1.5494  0.4485 -0.2682
  181SLPC   C3620763   0.455   2.348   9.798  0.0800 -0.0259  0.3096
  181SLPC   H6X20764   0.346   2.342   9.779 -0.4523  1.3914  2.5847
  181SLPC   H6Y20765   0.500   2.247   9.787 -2.3492 -1.1108 -0.4039
  181SLPC   C3720766   0.532   2.433   9.699  0.4356  0.2962  0.3220
  181SLPC   H7X20767   0.630   2.444   9.750  0.9931 -0.1977 -0.6251
  181SLPC   H7Y20768   0.482   2.532   9.690 -0.4015 -0.0591  0.8855
  181SLPC   C3820769   0.551   2.366   9.559  0.5471 -0.8607  0.3598
  181SLPC   H8X20770   0.449   2.340   9.522 -0.2932  1.9721  0.4624
  181SLPC   H8Y20771   0.598   2.266   9.569  1.3038 -0.5779 -0.3225
  181SLPC   C3920772   0.636   2.460   9.467 -0.0743 -0.4689  0.0915
  181SLPC   H9X20773   0.722   2.495   9.529  0.5256 -0.9045 -0.4930
  181SLPC   H9Y20774   0.579   2.550   9.436  0.2540 -0.3935 -0.2893
  181SLPC  C31020775   0.688   2.394   9.335  1.1942 -0.3163  0.4536
  181SLPC  H10X20776   0.717   2.292   9.369  0.9650 -0.7004 -0.4814
  181SLPC  H10Y20777   0.777   2.441   9.288  0.6277  2.0411  1.5797
  181SLPC  C31120778   0.589   2.378   9.213  0.3617  0.0314 -0.0149
  181SLPC  H11X20779   0.530   2.472   9.203  0.9352  0.5927  1.5643
  181SLPC  H11Y20780   0.518   2.293   9.216  2.1800 -1.5518 -0.5905
  181SLPC  C31220781   0.657   2.340   9.086  0.1548 -0.0606 -0.0437
  181SLPC  H12X20782   0.737   2.409   9.053  0.9979 -1.5295 -1.1775
  181SLPC  H12Y20783   0.583   2.359   9.004  0.2593  2.2162  0.3221
  181SLPC  C31320784   0.708   2.194   9.073 -0.0615 -0.4166 -0.9255
  181SLPC  H13X20785   0.642   2.109   9.099  0.4664 -0.4811  0.2804
  181SLPC  H13Y20786   0.806   2.179   9.124 -0.5636 -0.4988  0.0440
  181SLPC  C31420787   0.757   2.165   8.934  0.0421  0.3292 -0.0625
  181SLPC  H14X20788   0.808   2.067   8.926 -0.6667 -0.1275  0.8061
  181SLPC  H14Y20789   0.835   2.243   8.923  0.0662  0.3860  0.4921
  181SLPC  C31520790   0.658   2.176   8.813  0.6965 -0.1051 -0.0039
  181SLPC  H15X20791   0.575   2.243   8.841  1.7555  0.0763  3.1494
  181SLPC  H15Y20792   0.612   2.075   8.811 -0.0235  0.1505  1.6325
  181SLPC  C31620793   0.737   2.192   8.681 -0.3779 -0.3395 -0.5547
  181SLPC  H16X20794   0.653   2.201   8.609 -0.9839  0.1326  0.1876
  181SLPC  H16Y20795   0.798   2.102   8.661  0.2325  0.1182 -0.7881
  181SLPC  C31720796   0.838   2.309   8.674  0.9487 -0.3822  0.4621
  181SLPC  H17X20797   0.884   2.313   8.573  2.2020 -1.1891  0.9723
  181SLPC  H17Y20798   0.926   2.297   8.741  0.7523  0.2567  0.8411
  181SLPC  C31820799   0.782   2.445   8.710 -0.9964 -0.1673 -0.3800
  181SLPC  H18X20800   0.864   2.520   8.699 -1.4401  0.4536  0.4370
  181SLPC  H18Y20801   0.745   2.444   8.815  1.1693 -3.3468  0.4947
  181SLPC  H18Z20802   0.704   2.471   8.635 -1.0914 -1.0326 -0.5866
  182SLPC     N20803   2.808   4.866  10.816 -0.0206 -0.6796 -0.1288
  182SLPC   C1320804   2.706   4.951  10.885  0.3459  0.6952  0.6457
  182SLPC  H13A20805   2.654   5.028  10.828  1.1974  0.4630 -0.4689
  182SLPC  H13B20806   2.626   4.885  10.917  2.0503 -1.3238  0.9355
  182SLPC  H13C20807   2.738   5.003  10.974  0.0760  1.0462  0.5428
  182SLPC   C1420808   2.755   4.789  10.703  0.2805  0.4531 -0.1987
  182SLPC  H14A20809   2.680   4.717  10.732  1.5192 -0.5406  0.6994
  182SLPC  H14B20810   2.710   4.853  10.630 -2.8909 -0.3662  0.8984
  182SLPC  H14C20811   2.832   4.727  10.658  1.2255  1.9266 -0.6706
  182SLPC   C1520812   2.860   4.772  10.921  0.7391  0.1085 -0.0479
  182SLPC  H15A20813   2.899   4.807  11.016  0.2976  0.0714  0.1513
  182SLPC  H15B20814   2.782   4.702  10.948 -0.2393  0.8787 -0.8241
  182SLPC  H15C20815   2.939   4.710  10.882  1.7410  1.7412 -0.6977
  182SLPC   C1220816   2.921   4.950  10.762 -0.1805  0.2523 -0.0188
  182SLPC  H12A20817   2.984   4.882  10.708 -0.7132 -0.8643  0.7251
  182SLPC  H12B20818   2.974   4.987  10.848  3.3209  0.2907 -2.0368
  182SLPC   C1120819   2.880   5.072  10.673 -0.7153  0.0008  0.4628
  182SLPC  H11A20820   2.821   5.144  10.734  0.1784  1.8185 -0.7386
  182SLPC  H11B20821   2.811   5.041  10.592  0.3794 -0.3067 -0.3766
  182SLPC     P20822   3.068   5.243  10.669  0.1485  0.1524 -0.2333
  182SLPC   O1320823   2.963   5.329  10.731  0.0285 -0.0715 -0.3431
  182SLPC   O1420824   3.179   5.203  10.757  0.1160 -0.0846  0.0134
  182SLPC   O1220825   2.999   5.114  10.612  0.9149 -0.3420 -0.1505
  182SLPC   O1120826   3.121   5.317  10.540 -0.1494 -0.1708  0.1256
  182SLPC    C120827   3.041   5.368  10.432  0.2444 -0.4766  0.0977
  182SLPC    HA20828   2.948   5.413  10.472  0.2319  1.1067 -1.5646
  182SLPC    HB20829   3.098   5.440  10.368  1.8721 -1.6343  0.1751
  182SLPC    C220830   2.996   5.256  10.329 -0.3842 -0.4876  0.5203
  182SLPC    HS20831   2.949   5.177  10.391  0.0592 -0.4942  0.8534
  182SLPC   O2120832   3.112   5.222  10.249  0.2475  0.1250  0.3863
  182SLPC   C2120833   3.162   5.106  10.260 -1.1764 -0.7176 -0.4186
  182SLPC   O2220834   3.122   5.020  10.335  0.5961  0.4926  0.3585
  182SLPC   C2220835   3.295   5.116  10.185  0.4707  0.0582  1.1811
  182SLPC   H2R20836   3.295   5.202  10.115  0.3767  0.4172  1.6183
  182SLPC   H2S20837   3.379   5.135  10.254  0.7546  2.3133  0.3065
  182SLPC    C320838   2.897   5.327  10.240 -0.9609  0.6845 -0.3241
  182SLPC    HX20839   2.967   5.400  10.194  0.3924  0.5448  1.3897
  182SLPC    HY20840   2.811   5.369  10.297 -0.4179 -1.3538  2.1948
  182SLPC   O3120841   2.845   5.227  10.139  0.5254 -0.5866 -0.3387
  182SLPC   C3120842   2.760   5.141  10.199 -0.3096 -0.0158  0.5635
  182SLPC   O3220843   2.702   5.164  10.301 -0.1192 -0.3250 -0.2598
  182SLPC   C3220844   2.724   5.024  10.102 -0.7669 -0.4666 -0.3986
  182SLPC   H2X20845   2.657   5.055  10.019 -1.4887 -0.6341  0.1118
  182SLPC   H2Y20846   2.668   4.947  10.158 -0.4124  0.1337  0.8150
  182SLPC   C2320847   3.331   4.987  10.110  0.3488  0.4516  0.3395
  182SLPC   H3R20848   3.241   4.963  10.049  1.0204 -1.0468 -0.1215
  182SLPC   H3S20849   3.336   4.900  10.180  1.4267  0.8494  0.7817
  182SLPC   C2420850   3.441   5.000  10.012  0.1920 -0.3679  0.0071
  182SLPC   H4R20851   3.532   5.039  10.061  1.1362  0.5075 -2.2665
  182SLPC   H4S20852   3.415   5.089   9.949  1.5727  0.7134  0.9027
  182SLPC   C2520853   3.454   4.889   9.908 -0.1186  0.5605 -0.2248
  182SLPC   H5R20854   3.365   4.891   9.843  0.2522  1.4760 -0.7238
  182SLPC   H5S20855   3.461   4.788   9.956  0.1951  2.0303  3.0892
  182SLPC   C2620856   3.587   4.909   9.833  0.4957 -1.1942  0.1879
  182SLPC   H6R20857   3.676   4.916   9.899  1.5804  0.9807 -1.3792
  182SLPC   H6S20858   3.584   5.007   9.780 -0.0842 -0.3497  1.7165
  182SLPC   C2720859   3.614   4.809   9.720  0.2948  0.1584  0.4895
  182SLPC   H7R20860   3.552   4.826   9.629 -2.3981 -1.3395  1.8964
  182SLPC   H7S20861   3.573   4.713   9.757  2.3746 -0.5842  0.9895
  182SLPC   C2820862   3.763   4.801   9.680 -0.0340  0.2260  0.3246
  182SLPC   H8R20863   3.819   4.783   9.774 -3.0570  1.8605  2.6241
  182SLPC   H8S20864   3.793   4.895   9.629 -0.6984 -0.8255 -2.1947
  182SLPC   C2920865   3.785   4.699   9.577  0.2230  0.3197  0.2215
  182SLPC   H9R20866   3.833   4.609   9.617 -0.1575  0.0427  0.0666
  182SLPC  C21020867   3.750   4.695   9.448  0.1776  0.1550  0.1919
  182SLPC  H10R20868   3.763   4.597   9.399 -1.3193 -2.8281  5.0087
  182SLPC  C21120869   3.676   4.799   9.371 -0.0636 -0.0214  0.3419
  182SLPC  H11R20870   3.645   4.879   9.441  1.8443  0.3928  0.7784
  182SLPC  H11S20871   3.584   4.743   9.345  2.3912 -3.4052 -2.0775
  182SLPC  C21220872   3.751   4.856   9.254 -0.8522 -0.1402  0.3631
  182SLPC  H12R20873   3.799   4.950   9.283  2.1308 -1.7938  1.2476
  182SLPC  C21320874   3.762   4.815   9.126  0.2484 -1.1305 -0.5013
  182SLPC  H13R20875   3.826   4.868   9.055 -1.1009 -1.4477 -2.0185
  182SLPC  C21420876   3.701   4.686   9.066 -0.4651 -0.8838  0.9673
  182SLPC  H14R20877   3.590   4.674   9.063 -0.5487 -0.3666 -2.1866
  182SLPC  H14S20878   3.740   4.593   9.113 -2.1209 -2.3203 -0.3284
  182SLPC  C21520879   3.747   4.677   8.914  0.2672 -0.7237  0.3237
  182SLPC  H15R20880   3.710   4.577   8.881  0.5695 -1.0099  0.8290
  182SLPC  H15S20881   3.854   4.672   8.886 -0.3409  1.1679 -2.8420
  182SLPC  C21620882   3.662   4.773   8.826 -0.4457  0.0036  0.0447
  182SLPC  H16R20883   3.701   4.877   8.819 -0.2826  0.0127  0.8858
  182SLPC  H16S20884   3.560   4.778   8.869 -0.9877  3.3308 -1.3088
  182SLPC  C21720885   3.651   4.734   8.678  0.2411 -0.1794  0.2452
  182SLPC  H17R20886   3.752   4.721   8.634 -0.5477 -1.5601 -1.2738
  182SLPC  H17S20887   3.612   4.821   8.621  0.5372 -0.4684 -0.4053
  182SLPC  C21820888   3.553   4.616   8.642  0.1897 -0.1581 -0.0253
  182SLPC  H18R20889   3.561   4.524   8.702 -2.0988  0.5464  1.4708
  182SLPC  H18S20890   3.570   4.588   8.536 -2.9716  3.0400 -1.6090
  182SLPC  H18T20891   3.444   4.637   8.651  0.5149  1.3616  0.6428
  182SLPC   C3320892   2.850   4.959  10.044 -0.2107  0.2718  0.1504
  182SLPC   H3X20893   2.929   4.957  10.122  1.5879 -0.0687 -1.5819
  182SLPC   H3Y20894   2.877   5.031   9.964 -0.2980  2.4159  1.9488
  182SLPC   C3420895   2.832   4.818   9.989 -0.6797 -0.8068  0.3729
  182SLPC   H4X20896   2.778   4.823   9.892  1.2698  0.7926 -0.7054
  182SLPC   H4Y20897   2.779   4.749  10.058 -2.1627  1.0721  1.2197
  182SLPC   C3520898   2.965   4.755   9.947 -0.4582  0.4695  0.1693
  182SLPC   H5X20899   3.009   4.721  10.043 -1.7611  0.3503  0.7407
  182SLPC   H5Y20900   3.028   4.830   9.895  0.2458 -1.2323 -1.5418
  182SLPC   C3620901   2.949   4.640   9.859 -0.3999 -0.2700  0.1980
  182SLPC   H6X20902   2.883   4.664   9.773  0.1977 -0.2992 -0.2754
  182SLPC   H6Y20903   2.903   4.553   9.910 -0.7666 -0.4549 -0.4443
  182SLPC   C3720904   3.089   4.598   9.799 -0.0646  0.3884 -0.6157
  182SLPC   H7X20905   3.075   4.496   9.756  1.8376  0.0078 -0.4097
  182SLPC   H7Y20906   3.155   4.577   9.886  0.1927 -1.4040 -1.1943
  182SLPC   C3820907   3.145   4.692   9.691 -0.1747  0.4758  0.3809
  182SLPC   H8X20908   3.183   4.788   9.730  0.3136  0.5262 -0.2142
  182SLPC   H8Y20909   3.057   4.702   9.624 -0.5535 -1.2746  0.5577
  182SLPC   C3920910   3.241   4.608   9.598  1.0932 -0.1132 -0.5921
  182SLPC   H9X20911   3.175   4.524   9.568  1.2870 -0.2949 -0.5094
  182SLPC   H9Y20912   3.328   4.567   9.653  0.6156 -0.1101  0.1762
  182SLPC  C31020913   3.292   4.685   9.470  0.2497 -0.0053 -0.2239
  182SLPC  H10X20914   3.347   4.617   9.402 -1.3892 -2.1550  0.4903
  182SLPC  H10Y20915   3.363   4.764   9.500 -0.4212  0.2245  0.8297
  182SLPC  C31120916   3.179   4.767   9.398  0.4223 -1.1444  0.1103
  182SLPC  H11X20917   3.120   4.822   9.474 -0.3122  0.0338 -1.2693
  182SLPC  H11Y20918   3.118   4.690   9.344  1.2948 -0.2324 -2.3298
  182SLPC  C31220919   3.237   4.874   9.294  1.0152  1.0474 -0.1057
  182SLPC  H12X20920   3.309   4.942   9.343 -0.8189  2.1070  1.2429
  182SLPC  H12Y20921   3.144   4.924   9.259  0.3760  0.3525  0.5429
  182SLPC  C31320922   3.310   4.810   9.172  0.0410  0.0234  0.3136
  182SLPC  H13X20923   3.398   4.758   9.215  0.3136  0.5848  0.4458
  182SLPC  H13Y20924   3.355   4.885   9.104  2.5138  0.8702  2.7143
  182SLPC  C31420925   3.229   4.703   9.091  0.4083  0.7538  0.5187
  182SLPC  H14X20926   3.148   4.753   9.033 -0.2130  0.6557  1.2681
  182SLPC  H14Y20927   3.170   4.630   9.151  1.6184 -0.9166 -0.2890
  182SLPC  C31520928   3.323   4.627   8.996 -0.1489 -0.0872  0.4699
  182SLPC  H15X20929   3.391   4.561   9.054 -0.8642 -1.8672 -0.6475
  182SLPC  H15Y20930   3.375   4.708   8.939  1.6539 -1.6390 -0.2059
  182SLPC  C31620931   3.255   4.527   8.897 -0.1751  0.4785  0.0343
  182SLPC  H16X20932   3.338   4.486   8.835  0.3875  3.0067 -1.0088
  182SLPC  H16Y20933   3.191   4.591   8.833 -1.6070 -0.2349  0.7251
  182SLPC  C31720934   3.182   4.417   8.969  0.2513  0.3812  0.8593
  182SLPC  H17X20935   3.074   4.436   8.985  0.3058  0.5964  0.9778
  182SLPC  H17Y20936   3.232   4.401   9.067  1.8696  0.7005  0.1158
  182SLPC  C31820937   3.188   4.276   8.898 -0.2611  0.2484  0.5602
  182SLPC  H18X20938   3.196   4.277   8.787 -0.0698 -4.5828  0.3232
  182SLPC  H18Y20939   3.092   4.225   8.920 -0.3392 -0.0294 -0.3936
  182SLPC  H18Z20940   3.276   4.224   8.939 -0.9783 -0.1908  1.5718
  183SLPC     N20941   5.993   5.893  10.734 -0.2815 -0.1755 -0.8498
  183SLPC   C1320942   5.978   5.844  10.877  0.2256  0.4081 -0.5135
  183SLPC  H13A20943   5.881   5.800  10.896  1.1972 -1.5245  0.2411
  183SLPC  H13B20944   6.044   5.760  10.892  2.3489  1.9754 -0.5162
  183SLPC  H13C20945   6.002   5.915  10.955 -2.1081 -0.5089  1.1559
  183SLPC   C1420946   6.129   5.951  10.724 -0.7083  0.1175 -0.1423
  183SLPC  H14A20947   6.144   5.973  10.619  0.5924  1.3265  0.2631
  183SLPC  H14B20948   6.145   6.051  10.762 -1.5882  0.7458 -1.3497
  183SLPC  H14C20949   6.215   5.893  10.752 -0.0645  1.6024  1.1214
  183SLPC   C1520950   5.898   6.009  10.705  0.8778  0.2033  0.7892
  183SLPC  H15A20951   5.886   6.037  10.602  0.6565  0.4318  0.8743
  183SLPC  H15B20952   5.805   6.003  10.760 -0.3727  1.1632 -1.1455
  183SLPC  H15C20953   5.945   6.095  10.751  1.0535  0.5032  0.0612
  183SLPC   C1220954   5.982   5.776  10.642  0.5678  0.1836 -0.2402
  183SLPC  H12A20955   5.978   5.804  10.537  2.7142 -2.3974 -1.1398
  183SLPC  H12B20956   5.883   5.736  10.659  1.7180 -2.6260  0.3980
  183SLPC   C1120957   6.083   5.654  10.658  0.5030  0.4625 -0.6403
  183SLPC  H11A20958   6.185   5.688  10.629 -0.6045  3.6879 -1.1250
  183SLPC  H11B20959   6.066   5.574  10.583  0.7495 -2.2710  2.0129
  183SLPC     P20960   5.961   5.483  10.814  0.4198 -0.0147 -0.0711
  183SLPC   O1320961   6.010   5.341  10.788  0.3105 -0.5190  0.6196
  183SLPC   O1420962   5.911   5.506  10.950  0.1683  0.0651 -0.0157
  183SLPC   O1220963   6.080   5.587  10.791  0.2814 -0.1807  0.4356
  183SLPC   O1120964   5.846   5.511  10.711  0.1973  0.0950 -0.5048
  183SLPC    C120965   5.706   5.495  10.737 -0.0237 -0.2324  0.2444
  183SLPC    HA20966   5.689   5.387  10.753  2.4353 -0.3100  3.2536
  183SLPC    HB20967   5.674   5.547  10.830  0.5761 -0.4894  0.5967
  183SLPC    C220968   5.611   5.546  10.615  0.0203 -0.0102  0.4531
  183SLPC    HS20969   5.515   5.491  10.619 -0.0583  0.0777 -0.1340
  183SLPC   O2120970   5.686   5.530  10.491 -0.0780  0.4384 -0.2194
  183SLPC   C2120971   5.702   5.411  10.464  0.2501  1.0187 -0.1111
  183SLPC   O2220972   5.648   5.308  10.517 -0.1930  0.0893  0.5585
  183SLPC   C2220973   5.811   5.392  10.362 -0.1677  0.0699 -0.3810
  183SLPC   H2R20974   5.895   5.444  10.412  1.5376 -3.0017  0.1942
  183SLPC   H2S20975   5.839   5.285  10.359  1.1041  0.3963 -0.7535
  183SLPC    C320976   5.590   5.696  10.636 -0.0677 -0.1288  0.4777
  183SLPC    HX20977   5.686   5.751  10.625 -0.9023  1.1454 -0.8983
  183SLPC    HY20978   5.559   5.718  10.740  0.4254  1.3393  0.3386
  183SLPC   O3120979   5.487   5.746  10.549 -0.2243  0.4662 -0.4701
  183SLPC   C3120980   5.521   5.848  10.477 -0.6671 -0.2162  0.1254
  183SLPC   O3220981   5.614   5.924  10.500 -0.0360 -0.2788  0.3486
  183SLPC   C3220982   5.449   5.839  10.342 -0.3809  0.5499  0.3417
  183SLPC   H2X20983   5.344   5.868  10.364 -0.4679 -0.7826  1.8962
  183SLPC   H2Y20984   5.458   5.736  10.302  0.3758  1.3982 -1.8158
  183SLPC   C2320985   5.789   5.456  10.222  0.6959  0.9138 -0.1819
  183SLPC   H3R20986   5.869   5.432  10.149 -0.6858 -1.1785 -1.1201
  183SLPC   H3S20987   5.792   5.566  10.237 -3.4484  1.4009 -1.5053
  183SLPC   C2420988   5.662   5.408  10.149  0.7981 -0.0361  0.4473
  183SLPC   H4R20989   5.575   5.415  10.218  0.8337 -0.2273  0.5125
  183SLPC   H4S20990   5.661   5.299  10.127 -2.0948 -0.4798  2.2142
  183SLPC   C2520991   5.628   5.492  10.027  0.3877 -0.2991 -0.1428
  183SLPC   H5R20992   5.697   5.468   9.944 -0.3527 -0.2688 -0.7742
  183SLPC   H5S20993   5.641   5.600  10.048 -0.3058  0.6373 -3.8853
  183SLPC   C2620994   5.490   5.474   9.973  0.3719  0.2705  0.4384
  183SLPC   H6R20995   5.417   5.533  10.033 -1.1172 -0.7708 -0.2654
  183SLPC   H6S20996   5.466   5.366   9.982 -0.2987  0.3666 -0.0720
  183SLPC   C2720997   5.469   5.519   9.819  0.5477 -0.2862  0.4278
  183SLPC   H7R20998   5.515   5.619   9.800 -0.8694  0.1643 -0.8191
  183SLPC   H7S20999   5.362   5.543   9.803  0.2779  0.8175  3.2593
  183SLPC   C2821000   5.520   5.410   9.732 -0.0403 -0.3411  0.7639
  183SLPC   H8R21001   5.451   5.323   9.741  1.2090 -1.3880  0.6028
  183SLPC   H8S21002   5.627   5.384   9.745  0.9886  4.2964  4.3777
  183SLPC   C2921003   5.516   5.455   9.590 -0.0355  0.2375 -0.5674
  183SLPC   H9R21004   5.601   5.523   9.570 -0.3520  0.6450 -0.5302
  183SLPC  C21021005   5.432   5.425   9.485 -0.3695  0.0013 -0.0487
  183SLPC  H10R21006   5.459   5.474   9.391  0.3417 -0.0549  0.1181
  183SLPC  C21121007   5.317   5.333   9.486  0.3352  0.2461  0.2610
  183SLPC  H11R21008   5.228   5.380   9.534  1.0256  0.1520  1.6573
  183SLPC  H11S21009   5.340   5.239   9.539  0.0324  0.7852  1.3810
  183SLPC  C21221010   5.299   5.285   9.349 -0.6465  0.1283 -0.1864
  183SLPC  H12R21011   5.375   5.215   9.312 -1.4175 -0.3471 -0.9188
  183SLPC  C21321012   5.180   5.305   9.283 -0.1228 -0.6692  0.0128
  183SLPC  H13R21013   5.177   5.279   9.176  1.1034 -2.6974  0.4132
  183SLPC  C21421014   5.058   5.385   9.331  0.1223 -0.0270  0.0562
  183SLPC  H14R21015   5.066   5.494   9.310 -0.8921 -0.5265 -3.8509
  183SLPC  H14S21016   5.031   5.356   9.434  0.6684 -2.4020 -0.4154
  183SLPC  C21521017   4.924   5.340   9.263 -0.5358  0.3844 -0.3085
  183SLPC  H15R21018   4.922   5.330   9.153 -1.8342 -0.8309 -0.2102
  183SLPC  H15S21019   4.847   5.415   9.290 -1.1082 -1.1684  3.0000
  183SLPC  C21621020   4.859   5.208   9.318  0.2270 -0.2399 -0.5273
  183SLPC  H16R21021   4.816   5.232   9.417  2.0237  1.9637 -0.2050
  183SLPC  H16S21022   4.942   5.138   9.342  0.4563  0.6125  1.3736
  183SLPC  C21721023   4.760   5.130   9.224 -0.1120 -0.3385 -0.3565
  183SLPC  H17R21024   4.806   5.130   9.123  2.2254 -0.2882  0.6406
  183SLPC  H17S21025   4.661   5.177   9.207  0.5153  2.0323  1.8992
  183SLPC  C21821026   4.740   4.979   9.241 -0.2897  0.6321 -0.3141
  183SLPC  H18R21027   4.670   4.943   9.163 -1.9176 -1.1065  1.8310
  183SLPC  H18S21028   4.687   4.949   9.334 -0.9884  1.5887 -0.3877
  183SLPC  H18T21029   4.836   4.927   9.221 -1.3639 -1.3642 -0.4396
  183SLPC   C3321030   5.503   5.942  10.237  0.4106 -0.0838 -0.5543
  183SLPC   H3X21031   5.604   5.903  10.213  1.0572  2.9746 -3.6046
  183SLPC   H3Y21032   5.507   6.042  10.286  1.1857  1.2564 -3.1765
  183SLPC   C3421033   5.418   5.942  10.108 -1.0938 -0.7027 -0.1964
  183SLPC   H4X21034   5.348   6.027  10.116 -0.1294  0.3125 -1.9087
  183SLPC   H4Y21035   5.356   5.850  10.101  0.9070 -2.0418 -1.8303
  183SLPC   C3521036   5.494   5.944   9.977 -0.4862  0.9236 -0.6058
  183SLPC   H5X21037   5.571   5.865   9.965 -1.3820 -0.1220  0.2848
  183SLPC   H5Y21038   5.551   6.039   9.964  0.2322  0.4528 -0.9425
  183SLPC   C3621039   5.401   5.939   9.858 -0.4174 -0.0021 -0.3461
  183SLPC   H6X21040   5.335   6.029   9.852 -0.4437 -0.1106 -2.2498
  183SLPC   H6Y21041   5.337   5.851   9.879 -0.7715  0.2708 -0.2782
  183SLPC   C3721042   5.481   5.912   9.727  0.4339 -0.0622 -0.1833
  183SLPC   H7X21043   5.544   5.823   9.747 -1.1987 -1.0727  0.7426
  183SLPC   H7Y21044   5.535   6.004   9.699 -1.1270  0.9928  0.1152
  183SLPC   C3821045   5.391   5.870   9.609 -0.2545  0.2798  0.0657
  183SLPC   H8X21046   5.305   5.939   9.590 -0.9072  1.0453  4.6434
  183SLPC   H8Y21047   5.343   5.772   9.630 -2.5999  1.2968 -0.2007
  183SLPC   C3921048   5.461   5.840   9.475 -0.9446  0.1766  0.2043
  183SLPC   H9X21049   5.554   5.784   9.496  0.7071  1.2543 -3.3256
  183SLPC   H9Y21050   5.507   5.932   9.434  0.1861 -0.2804  0.4234
  183SLPC  C31021051   5.375   5.779   9.371 -0.1016  0.2611  0.4566
  183SLPC  H10X21052   5.287   5.844   9.350  1.8439  2.3646 -1.7292
  183SLPC  H10Y21053   5.336   5.678   9.397  0.3072 -0.6405 -2.1612
  183SLPC  C31121054   5.442   5.740   9.241 -0.9355  0.4122  1.1343
  183SLPC  H11X21055   5.532   5.676   9.253 -0.0926  1.1475 -0.8425
  183SLPC  H11Y21056   5.488   5.833   9.201 -1.8983  1.3840  2.1944
  183SLPC  C31221057   5.354   5.663   9.138  0.1388 -0.4331  0.6226
  183SLPC  H12X21058   5.266   5.728   9.115  1.3172  0.6544 -1.0685
  183SLPC  H12Y21059   5.310   5.579   9.195  2.1992  0.2230  3.4067
  183SLPC  C31321060   5.405   5.633   8.993  0.0957  0.1971 -0.4700
  183SLPC  H13X21061   5.490   5.561   8.990 -0.9392 -1.1133 -3.6008
  183SLPC  H13Y21062   5.450   5.725   8.950 -2.4433  3.2896  2.8777
  183SLPC  C31421063   5.306   5.575   8.889 -0.1944 -0.2262  0.3562
  183SLPC  H14X21064   5.347   5.587   8.787 -0.1608 -1.0771  0.2647
  183SLPC  H14Y21065   5.205   5.622   8.897 -1.4366 -2.1733 -2.2584
  183SLPC  C31521066   5.282   5.425   8.900 -0.1453 -0.2950  0.2164
  183SLPC  H15X21067   5.279   5.390   9.005  0.7455 -1.5466 -0.1449
  183SLPC  H15Y21068   5.371   5.375   8.856 -1.2889 -0.0105 -2.6540
  183SLPC  C31621069   5.156   5.387   8.826 -0.1830 -0.6349 -0.4618
  183SLPC  H16X21070   5.168   5.422   8.721 -2.5724  0.6967 -0.3710
  183SLPC  H16Y21071   5.070   5.445   8.865 -0.2564 -0.1828 -1.2854
  183SLPC  C31721072   5.112   5.243   8.849 -0.1269  0.8188 -0.1866
  183SLPC  H17X21073   5.001   5.231   8.851 -0.0720  0.2257 -0.3554
  183SLPC  H17Y21074   5.145   5.199   8.946 -2.0590 -1.6216 -0.5236
  183SLPC  C31821075   5.168   5.145   8.741 -0.0958 -0.0283  0.3049
  183SLPC  H18X21076   5.274   5.168   8.714  0.2949 -3.1292 -1.2391
  183SLPC  H18Y21077   5.104   5.162   8.652  2.2770  0.5026 -1.3956
  183SLPC  H18Z21078   5.169   5.041   8.779  0.1579  0.4161  1.5848
  184SLPC     N21079   0.790   0.067  10.955 -0.2580 -0.0777  0.0257
  184SLPC   C1321080   0.732   0.185  11.021  0.5188  0.0475 -0.2338
  184SLPC  H13A21081   0.714   0.262  10.948  0.0981 -0.6289 -0.8446
  184SLPC  H13B21082   0.638   0.164  11.070  0.8818 -3.3934 -0.8026
  184SLPC  H13C21083   0.801   0.224  11.096  0.1569  0.7468 -0.2556
  184SLPC   C1421084   0.777  -0.057  11.038  0.0444 -0.1176  0.3785
  184SLPC  H14A21085   0.825  -0.047  11.134 -0.4873 -1.8553  0.8700
  184SLPC  H14B21086   0.672  -0.072  11.059  0.0981 -2.0099 -0.5042
  184SLPC  H14C21087   0.816  -0.145  10.990  0.0939 -0.9835  1.9314
  184SLPC   C1521088   0.938   0.089  10.929  1.0066  0.1333 -0.7944
  184SLPC  H15A21089   0.950   0.180  10.872  1.1695  1.0136  0.6128
  184SLPC  H15B21090   0.994   0.088  11.021 -0.1720 -0.0107 -0.0562
  184SLPC  H15C21091   0.979   0.011  10.866 -0.5390 -0.5025 -1.0455
  184SLPC   C1221092   0.735   0.032  10.827  0.5122 -0.0140  0.5754
  184SLPC  H12A21093   0.633   0.016  10.859  0.0988 -1.2742 -1.2039
  184SLPC  H12B21094   0.771  -0.062  10.789 -1.3661 -0.4390 -0.2888
  184SLPC   C1121095   0.733   0.137  10.714  0.3877  0.6181  0.0885
  184SLPC  H11A21096   0.698   0.086  10.622 -0.4992  1.9999 -0.3702
  184SLPC  H11B21097   0.837   0.170  10.689 -0.1583  0.9768 -1.9073
  184SLPC     P21098   0.694   0.391  10.702 -0.3731  0.1390  0.0972
  184SLPC   O1321099   0.574   0.477  10.704 -0.5927  0.8120 -0.1592
  184SLPC   O1421100   0.808   0.419  10.786  0.3747 -0.2008 -0.8566
  184SLPC   O1221101   0.646   0.246  10.737  0.1927 -0.4491  0.1847
  184SLPC   O1121102   0.747   0.388  10.547  0.4140 -0.3305 -0.1869
  184SLPC    C121103   0.657   0.405  10.438 -0.0917  0.2302  0.5140
  184SLPC    HA21104   0.569   0.338  10.448 -0.6728  0.5423 -1.8420
  184SLPC    HB21105   0.639   0.514  10.423  1.1333  0.1144 -2.4270
  184SLPC    C221106   0.711   0.354  10.301  0.0672  0.0096 -0.8962
  184SLPC    HS21107   0.800   0.417  10.277 -0.7967  1.3955 -0.5436
  184SLPC   O2121108   0.610   0.365  10.202  0.1116 -0.0785 -0.0993
  184SLPC   C2121109   0.654   0.374  10.078  0.6021  0.0578  0.5640
  184SLPC   O2221110   0.768   0.412  10.046  0.3805  0.4108  0.2288
  184SLPC   C2221111   0.537   0.353   9.981 -0.0073  0.8058 -0.2380
  184SLPC   H2R21112   0.451   0.300  10.028  1.1198 -1.1238 -0.2176
  184SLPC   H2S21113   0.509   0.457   9.954 -3.0124  0.0983 -0.1590
  184SLPC    C321114   0.750   0.203  10.318 -0.4253 -0.2365  0.2051
  184SLPC    HX21115   0.658   0.149  10.348 -0.4380  0.0026  0.5976
  184SLPC    HY21116   0.809   0.188  10.411  1.4019 -0.7203 -0.9732
  184SLPC   O3121117   0.823   0.139  10.209  0.1929 -0.9804  0.6754
  184SLPC   C3121118   0.947   0.133  10.212 -0.1457  0.5669  0.1207
  184SLPC   O3221119   1.022   0.170  10.298 -0.0912 -0.3205 -0.3087
  184SLPC   C3221120   0.981   0.068  10.081 -0.2938 -0.1614  0.3821
  184SLPC   H2X21121   1.003   0.146  10.005  1.2622  0.2241  1.2050
  184SLPC   H2Y21122   0.900   0.001  10.044  0.4785 -1.2508  0.6090
  184SLPC   C2321123   0.588   0.293   9.844  0.5006 -0.4235 -0.3051
  184SLPC   H3R21124   0.663   0.366   9.807  0.4560 -1.0810 -1.7669
  184SLPC   H3S21125   0.521   0.303   9.756  1.3998  0.7042 -0.8757
  184SLPC   C2421126   0.632   0.142   9.859  0.1316 -1.4422  0.6126
  184SLPC   H4R21127   0.549   0.094   9.915  1.2491 -0.8976  2.8515
  184SLPC   H4S21128   0.725   0.147   9.919  0.6024 -0.7358 -0.1510
  184SLPC   C2521129   0.680   0.076   9.731 -0.0740  0.1049 -0.1767
  184SLPC   H5R21130   0.602   0.083   9.652 -0.1728 -2.5169 -0.4252
  184SLPC   H5S21131   0.684  -0.029   9.768  0.5108 -0.2988 -1.3440
  184SLPC   C2621132   0.818   0.129   9.694  0.3999  0.1359  0.2169
  184SLPC   H6R21133   0.886   0.161   9.776 -0.4233  2.2401  0.1443
  184SLPC   H6S21134   0.791   0.225   9.645  0.8954  0.4697  0.5840
  184SLPC   C2721135   0.883   0.020   9.605 -0.1654  0.3017  0.7045
  184SLPC   H7R21136   0.806  -0.007   9.530  1.6511 -1.7753 -0.5113
  184SLPC   H7S21137   0.911  -0.068   9.667 -0.8622 -0.5702 -0.1846
  184SLPC   C2821138   1.004   0.076   9.519 -0.1049 -0.1423 -0.2260
  184SLPC   H8R21139   1.079   0.107   9.595 -0.9678  0.4287  0.4174
  184SLPC   H8S21140   0.958   0.167   9.477 -2.5743  0.2302  2.8995
  184SLPC   C2921141   1.047  -0.026   9.417  0.6037 -0.4872 -0.3617
  184SLPC   H9R21142   1.018  -0.131   9.434  0.4316 -0.7575 -2.1418
  184SLPC  C21021143   1.114  -0.003   9.311  0.2513 -0.2337  0.4765
  184SLPC  H10R21144   1.161  -0.086   9.256  0.6163  0.1919  0.1298
  184SLPC  C21121145   1.164   0.133   9.268 -0.2147 -0.8288  0.4570
  184SLPC  H11R21146   1.114   0.209   9.332 -0.1107  1.3789 -1.9189
  184SLPC  H11S21147   1.126   0.152   9.166  0.6694 -0.2421  0.2335
  184SLPC  C21221148   1.313   0.156   9.282 -0.3284  0.0882  0.2641
  184SLPC  H12R21149   1.323   0.167   9.391  0.1968 -2.8265  0.5877
  184SLPC  C21321150   1.414   0.128   9.200  0.6448 -0.5789  0.6923
  184SLPC  H13R21151   1.518   0.150   9.230  0.7234  1.6467 -0.9415
  184SLPC  C21421152   1.398   0.069   9.063  1.2123 -0.3589 -0.1831
  184SLPC  H14R21153   1.296   0.073   9.018  1.8921 -0.9804 -1.8330
  184SLPC  H14S21154   1.417  -0.040   9.069 -1.6829 -0.9820 -0.6297
  184SLPC  C21521155   1.495   0.134   8.965  0.0374 -0.1443 -0.3755
  184SLPC  H15R21156   1.598   0.095   8.982  0.3901  0.4691 -1.0245
  184SLPC  H15S21157   1.503   0.241   8.995  0.4883 -0.8338  2.2393
  184SLPC  C21621158   1.451   0.118   8.824  0.8263 -0.1013  0.5553
  184SLPC  H16R21159   1.521   0.172   8.758  0.7848  0.1166  0.6899
  184SLPC  H16S21160   1.348   0.149   8.798  1.1694 -0.4476 -1.3719
  184SLPC  C21721161   1.478  -0.028   8.785 -0.4944 -0.0502  0.2810
  184SLPC  H17R21162   1.444  -0.096   8.867 -2.0749 -0.1804 -0.4496
  184SLPC  H17S21163   1.585  -0.056   8.773  0.0821  1.3333  1.7725
  184SLPC  C21821164   1.405  -0.069   8.663  0.1557 -0.2327 -0.0208
  184SLPC  H18R21165   1.402  -0.180   8.662 -1.6576 -0.2251 -1.4328
  184SLPC  H18S21166   1.447  -0.034   8.566  0.5236 -0.2781  0.1219
  184SLPC  H18T21167   1.296  -0.051   8.675  0.3379 -0.1370  1.7523
  184SLPC   C3321168   1.098  -0.033  10.097  0.1888 -0.3132  0.4666
  184SLPC   H3X21169   1.059  -0.117  10.159 -1.4058 -0.3515 -0.5178
  184SLPC   H3Y21170   1.178   0.011  10.159 -1.1718  0.2274  1.9040
  184SLPC   C3421171   1.168  -0.076   9.965 -0.3442 -0.3878 -0.6757
  184SLPC   H4X21172   1.093  -0.126   9.900 -1.5081 -1.4674  1.3691
  184SLPC   H4Y21173   1.241  -0.154   9.993  0.5814  1.3032  2.0559
  184SLPC   C3521174   1.246   0.035   9.896 -0.4267 -0.1809 -0.4316
  184SLPC   H5X21175   1.288   0.103   9.973 -0.0669  0.1660 -0.9258
  184SLPC   H5Y21176   1.172   0.097   9.840 -0.8494 -0.8572 -0.6313
  184SLPC   C3621177   1.354  -0.013   9.803 -0.0690  0.0206  0.2674
  184SLPC   H6X21178   1.317  -0.089   9.731 -3.2124  2.1912 -0.6563
  184SLPC   H6Y21179   1.427  -0.059   9.873  0.8089 -0.2703 -0.8097
  184SLPC   C3721180   1.433   0.089   9.719  0.6808 -0.8886 -0.5920
  184SLPC   H7X21181   1.476   0.174   9.775  0.6874  0.7188 -2.9078
  184SLPC   H7Y21182   1.360   0.132   9.647  1.7224 -0.2075 -1.2632
  184SLPC   C3821183   1.532   0.020   9.635  0.1813  0.1756  0.1633
  184SLPC   H8X21184   1.609  -0.028   9.699 -0.3886  0.3340  0.9892
  184SLPC   H8Y21185   1.591   0.092   9.575 -0.1997 -0.2889 -0.7843
  184SLPC   C3921186   1.478  -0.083   9.532 -0.2445 -0.0310  0.4192
  184SLPC   H9X21187   1.401  -0.031   9.471  0.2365  0.6387  0.3696
  184SLPC   H9Y21188   1.434  -0.169   9.587  2.4415 -1.1956  0.8889
  184SLPC  C31021189   1.578  -0.142   9.429 -0.1993 -0.2666 -0.0405
  184SLPC  H10X21190   1.658  -0.201   9.478  1.8016  0.1756 -2.5604
  184SLPC  H10Y21191   1.632  -0.055   9.386 -4.0395  2.7206  0.5704
  184SLPC  C31121192   1.521  -0.229   9.318  0.4168 -0.0344 -0.7821
  184SLPC  H11X21193   1.424  -0.183   9.290 -1.9193 -2.2427  2.8186
  184SLPC  H11Y21194   1.503  -0.332   9.357 -1.1906  0.6390  0.4000
  184SLPC  C31221195   1.619  -0.221   9.201 -0.5646  0.2366  0.6420
  184SLPC  H12X21196   1.710  -0.280   9.222  0.0258  0.6075 -0.7007
  184SLPC  H12Y21197   1.654  -0.117   9.182 -1.2159  0.5009  0.8626
  184SLPC  C31321198   1.568  -0.297   9.074 -0.3956 -0.1976  0.1777
  184SLPC  H13X21199   1.626  -0.257   8.989 -1.0876 -0.6997 -0.5462
  184SLPC  H13Y21200   1.464  -0.269   9.050 -0.1311  2.2552  1.5942
  184SLPC  C31421201   1.603  -0.447   9.076 -0.4586  0.8267  0.1147
  184SLPC  H14X21202   1.572  -0.501   9.168 -1.7542 -2.3569 -1.9827
  184SLPC  H14Y21203   1.714  -0.453   9.082 -0.5011  1.7000  3.2051
  184SLPC  C31521204   1.534  -0.532   8.974 -0.3675  0.5174 -0.3000
  184SLPC  H15X21205   1.425  -0.513   8.974 -0.7562 -1.3561  1.4781
  184SLPC  H15Y21206   1.552  -0.640   8.993 -0.7081  0.1098 -2.1268
  184SLPC  C31621207   1.580  -0.509   8.835  0.3441 -0.0569 -0.3065
  184SLPC  H16X21208   1.683  -0.546   8.818  0.3504  0.3472 -1.2332
  184SLPC  H16Y21209   1.576  -0.399   8.818  0.3175  0.0897  0.6129
  184SLPC  C31721210   1.505  -0.587   8.726 -0.2926  0.4137  0.0407
  184SLPC  H17X21211   1.532  -0.695   8.728 -0.3836  0.4009  1.0383
  184SLPC  H17Y21212   1.541  -0.540   8.632  0.9582 -1.2875 -0.3908
  184SLPC  C31821213   1.353  -0.590   8.724  0.0573 -0.1018  0.3137
  184SLPC  H18X21214   1.308  -0.656   8.802  0.5281 -2.5642 -1.3927
  184SLPC  H18Y21215   1.321  -0.620   8.622  0.9525 -2.2527  0.6111
  184SLPC  H18Z21216   1.302  -0.492   8.732 -0.7860 -0.5154  0.0641
  185SLPC     N21217   1.497   4.935   5.960 -0.1139  0.2038 -0.1711
  185SLPC   C1321218   1.569   4.804   5.993  0.3736 -0.3745  0.0322
  185SLPC  H13A21219   1.656   4.825   6.055  0.6887  0.0602 -0.5515
  185SLPC  H13B21220   1.497   4.750   6.053 -0.3998 -0.3679 -0.8779
  185SLPC  H13C21221   1.608   4.748   5.910  2.6991 -0.5156  1.1371
  185SLPC   C1421222   1.382   4.913   5.872  0.4533 -1.2894  0.2384
  185SLPC  H14A21223   1.346   5.010   5.844  1.2578 -1.4135 -1.3771
  185SLPC  H14B21224   1.401   4.850   5.786  0.9344 -0.3180 -0.3841
  185SLPC  H14C21225   1.303   4.874   5.934  0.2797 -1.3134  0.0008
  185SLPC   C1521226   1.583   5.011   5.875 -0.0600 -0.3161 -0.1430
  185SLPC  H15A21227   1.677   5.036   5.924 -0.6895  0.7659  0.5492
  185SLPC  H15B21228   1.605   4.962   5.781 -3.0747  1.2931 -1.8356
  185SLPC  H15C21229   1.546   5.111   5.858  2.0052  0.1430 -2.6087
  185SLPC   C1221230   1.456   5.008   6.086  0.0859  0.1035 -0.1211
  185SLPC  H12A21231   1.422   5.108   6.062 -0.2941  0.0292  0.0881
  185SLPC  H12B21232   1.544   5.025   6.146  0.0590  0.1792 -0.1029
  185SLPC   C1121233   1.350   4.943   6.182 -0.6095  0.0804  0.1601
  185SLPC  H11A21234   1.364   4.987   6.283  0.2202 -0.9132  0.4933
  185SLPC  H11B21235   1.384   4.838   6.188  4.3667  1.2292 -2.3811
  185SLPC     P21236   1.131   5.082   6.136 -0.4346 -0.1109  0.1063
  185SLPC   O1321237   1.204   5.194   6.072  0.1343  0.9105 -0.4875
  185SLPC   O1421238   1.003   5.048   6.070  0.2623  0.0086 -0.3579
  185SLPC   O1221239   1.220   4.954   6.122 -0.0959 -0.0962 -0.6519
  185SLPC   O1121240   1.119   5.116   6.286  0.2865 -0.0480 -0.1594
  185SLPC    C121241   1.075   5.016   6.378 -0.2962 -0.9711 -0.8554
  185SLPC    HA21242   0.977   4.971   6.351  0.0358 -2.5868  0.4784
  185SLPC    HB21243   1.157   4.943   6.392  0.0507 -0.3542  0.5399
  185SLPC    C221244   1.056   5.070   6.522  0.3338 -0.0304 -0.4262
  185SLPC    HS21245   0.989   5.158   6.512  1.6246  1.1367  0.8221
  185SLPC   O2121246   1.186   5.102   6.578  0.1558 -0.3936  0.0994
  185SLPC   C2121247   1.186   5.222   6.638 -0.3429  0.9986  0.3766
  185SLPC   O2221248   1.089   5.289   6.660  0.4516  0.4649 -0.0208
  185SLPC   C2221249   1.342   5.253   6.650  1.0661 -0.0267  0.0554
  185SLPC   H2R21250   1.386   5.151   6.663 -1.2986 -0.9335  1.5906
  185SLPC   H2S21251   1.374   5.298   6.554  1.1151 -1.7732 -0.7968
  185SLPC    C321252   1.000   4.958   6.609  0.3891  0.1015 -0.0645
  185SLPC    HX21253   1.056   4.864   6.594  0.4184  0.3853 -1.9817
  185SLPC    HY21254   0.899   4.927   6.576  0.1408 -0.0681  0.8230
  185SLPC   O3121255   1.003   5.004   6.746 -0.0342  0.1097  0.1206
  185SLPC   C3121256   0.899   5.049   6.800  0.5779  0.0170 -0.4032
  185SLPC   O3221257   0.788   5.051   6.754 -0.0681  0.7453  0.7000
  185SLPC   C3221258   0.943   5.091   6.942 -0.0736  0.2088  0.0256
  185SLPC   H2X21259   1.016   5.173   6.923  0.0943 -0.1823 -1.0717
  185SLPC   H2Y21260   0.994   5.001   6.985 -0.6836  0.1597  0.6573
  185SLPC   C2321261   1.375   5.345   6.766  0.3154 -0.4433  0.2953
  185SLPC   H3R21262   1.304   5.430   6.765 -1.2396 -1.6773 -0.7669
  185SLPC   H3S21263   1.469   5.392   6.730  0.4426 -1.2683 -0.5040
  185SLPC   C2421264   1.393   5.282   6.903 -0.6286 -0.1846  0.6590
  185SLPC   H4R21265   1.474   5.205   6.900 -1.0468 -0.6410  0.9283
  185SLPC   H4S21266   1.298   5.238   6.941 -1.4700 -0.4069 -1.5620
  185SLPC   C2521267   1.447   5.384   7.006  0.0541 -0.5848 -0.0095
  185SLPC   H5R21268   1.367   5.459   7.029  0.1667  0.0340 -1.4837
  185SLPC   H5S21269   1.534   5.440   6.966  0.1058  0.0074  0.9241
  185SLPC   C2621270   1.502   5.328   7.139 -0.2206  0.3468  0.1208
  185SLPC   H6R21271   1.600   5.379   7.156 -0.0684  0.5344 -1.2098
  185SLPC   H6S21272   1.533   5.221   7.138  0.5169  0.5619 -0.5446
  185SLPC   C2721273   1.406   5.352   7.257 -0.5505 -0.6356  0.5014
  185SLPC   H7R21274   1.383   5.461   7.257 -1.1828 -0.7025 -2.0187
  185SLPC   H7S21275   1.462   5.322   7.348  2.4346 -4.2020 -2.2243
  185SLPC   C2821276   1.275   5.274   7.246  0.0264 -0.5289 -0.5632
  185SLPC   H8R21277   1.313   5.170   7.244  1.0387 -0.1940  0.1502
  185SLPC   H8S21278   1.239   5.287   7.142  1.4205  1.2737 -0.8759
  185SLPC   C2921279   1.170   5.305   7.350  0.0585  0.1953 -0.3106
  185SLPC   H9R21280   1.092   5.370   7.309  1.1028  1.9245  0.3264
  185SLPC  C21021281   1.159   5.262   7.477 -0.1047 -0.1640  0.7085
  185SLPC  H10R21282   1.080   5.303   7.542 -0.4017  4.2601 -2.0922
  185SLPC  C21121283   1.244   5.156   7.543 -0.5316  0.7982 -0.4149
  185SLPC  H11R21284   1.325   5.125   7.474 -0.6544 -0.1326 -0.1549
  185SLPC  H11S21285   1.186   5.062   7.546 -0.8263  0.9635 -0.7994
  185SLPC  C21221286   1.295   5.198   7.681 -0.0725 -0.1717 -0.2710
  185SLPC  H12R21287   1.389   5.254   7.686  1.0788 -1.9680 -0.8045
  185SLPC  C21321288   1.255   5.171   7.808  0.2964 -0.1550  0.4101
  185SLPC  H13R21289   1.313   5.225   7.885  1.4146  1.5257 -1.5044
  185SLPC  C21421290   1.122   5.102   7.831 -0.3764 -0.1057  0.5847
  185SLPC  H14R21291   1.118   5.044   7.925  2.1725 -2.7480 -0.7621
  185SLPC  H14S21292   1.114   5.021   7.755  1.8134 -2.3055  2.5001
  185SLPC  C21521293   0.993   5.189   7.830 -1.1497 -0.2398 -0.6275
  185SLPC  H15R21294   1.003   5.276   7.762  1.5464 -0.0047 -0.0509
  185SLPC  H15S21295   0.990   5.224   7.935  0.2763  0.9278 -0.9353
  185SLPC  C21621296   0.878   5.099   7.793  0.0187 -0.2080  0.1449
  185SLPC  H16R21297   0.784   5.143   7.834 -0.2699  0.0353 -0.7507
  185SLPC  H16S21298   0.885   4.998   7.839  0.6926 -0.4387 -0.4423
  185SLPC  C21721299   0.869   5.088   7.638 -0.9108  0.4242 -0.0179
  185SLPC  H17R21300   0.964   5.047   7.597 -0.2803  1.2539  0.5902
  185SLPC  H17S21301   0.854   5.189   7.594  1.5582  0.2000 -1.5410
  185SLPC  C21821302   0.750   5.005   7.602  0.1306 -0.4007  0.3407
  185SLPC  H18R21303   0.649   5.035   7.637  0.2349  0.8402 -0.3824
  185SLPC  H18S21304   0.758   4.904   7.648 -0.8596 -0.1333  1.1127
  185SLPC  H18T21305   0.738   4.993   7.492 -0.2006  2.6042 -0.0275
  185SLPC   C3321306   0.837   5.137   7.031 -0.1691 -0.4710 -0.2379
  185SLPC   H3X21307   0.778   5.053   7.073 -2.2819 -0.0899 -2.2244
  185SLPC   H3Y21308   0.764   5.211   6.989 -1.0108 -1.2923 -0.2500
  185SLPC   C3421309   0.896   5.213   7.149  0.3836  0.0592  0.9594
  185SLPC   H4X21310   0.947   5.303   7.109  1.6734 -0.5238  1.2558
  185SLPC   H4Y21311   0.975   5.147   7.190 -1.8815 -1.9858  2.2811
  185SLPC   C3521312   0.796   5.255   7.260  0.4982 -0.0284  0.4378
  185SLPC   H5X21313   0.852   5.306   7.341 -1.1872  2.8805 -0.0771
  185SLPC   H5Y21314   0.747   5.168   7.310  1.7255 -0.5016  0.8495
  185SLPC   C3621315   0.686   5.359   7.224  0.0672  0.1192  0.6050
  185SLPC   H6X21316   0.600   5.301   7.184  0.2566  0.6430 -0.6168
  185SLPC   H6Y21317   0.723   5.429   7.146 -1.0232 -1.5296 -1.4795
  185SLPC   C3721318   0.632   5.435   7.347  0.2372 -0.1863  0.2459
  185SLPC   H7X21319   0.587   5.532   7.315  1.3037  0.2935  0.1638
  185SLPC   H7Y21320   0.710   5.464   7.421  0.6479  0.1534 -0.3135
  185SLPC   C3821321   0.522   5.345   7.406  0.5007  0.2030 -0.3790
  185SLPC   H8X21322   0.574   5.263   7.459  0.2929 -0.1353 -0.6981
  185SLPC   H8Y21323   0.453   5.297   7.333 -1.0789  1.2988  0.3294
  185SLPC   C3921324   0.431   5.410   7.509 -0.0175  0.4327  0.8593
  185SLPC   H9X21325   0.340   5.346   7.519  0.5191 -0.4314  0.2911
  185SLPC   H9Y21326   0.388   5.511   7.492  0.9237  1.5933  4.4294
  185SLPC  C31021327   0.485   5.424   7.654 -0.2586 -0.1351  0.2691
  185SLPC  H10X21328   0.576   5.487   7.647 -0.3173 -0.0146  0.5715
  185SLPC  H10Y21329   0.501   5.327   7.707 -1.0429  0.4640  1.6498
  185SLPC  C31121330   0.365   5.488   7.737 -0.0571 -0.3710 -0.0760
  185SLPC  H11X21331   0.270   5.436   7.714 -1.0778  1.7263 -0.8410
  185SLPC  H11Y21332   0.353   5.595   7.712  1.3063 -0.6288 -2.1133
  185SLPC  C31221333   0.376   5.481   7.887  0.5817 -0.7528 -0.1080
  185SLPC  H12X21334   0.478   5.502   7.925  1.2787 -2.4240 -0.8936
  185SLPC  H12Y21335   0.351   5.378   7.922  0.0004 -0.7140 -0.3876
  185SLPC  C31321336   0.270   5.570   7.966 -0.7989  0.4226  0.6902
  185SLPC  H13X21337   0.169   5.552   7.922 -0.2908 -1.0690  0.0594
  185SLPC  H13Y21338   0.310   5.672   7.947 -0.8421  0.3107 -0.0689
  185SLPC  C31421339   0.275   5.534   8.114 -0.3566  0.2497 -0.1812
  185SLPC  H14X21340   0.379   5.513   8.147 -0.7849 -1.6949  0.0442
  185SLPC  H14Y21341   0.211   5.445   8.131  0.2670  0.0883  1.4946
  185SLPC  C31521342   0.216   5.646   8.199  0.3301 -0.1097  0.6191
  185SLPC  H15X21343   0.129   5.677   8.137 -1.1427 -1.3438  1.9675
  185SLPC  H15Y21344   0.287   5.730   8.209 -0.1279  0.0356  3.2504
  185SLPC  C31621345   0.171   5.614   8.339 -0.3201 -0.6464 -0.3318
  185SLPC  H16X21346   0.137   5.703   8.396  0.3317  0.2806 -1.3469
  185SLPC  H16Y21347   0.262   5.573   8.387 -0.6166  1.0909  1.8957
  185SLPC  C31721348   0.045   5.529   8.351  1.0056 -0.1461 -0.4387
  185SLPC  H17X21349   0.089   5.431   8.377  0.0727  0.2026  3.0164
  185SLPC  H17Y21350  -0.014   5.525   8.257  0.2257  1.0479 -0.0418
  185SLPC  C31821351  -0.041   5.570   8.474 -0.4532  0.1223 -0.1145
  185SLPC  H18X21352   0.025   5.588   8.562 -1.0349 -1.3507  0.6569
  185SLPC  H18Y21353  -0.119   5.492   8.488 -0.8878  0.1262 -2.2209
  185SLPC  H18Z21354  -0.093   5.667   8.456 -1.0345  0.0540  1.0931
  186SLPC     N21355   3.254   2.957   6.228  0.2249  0.4745  0.3092
  186SLPC   C1321356   3.287   2.821   6.282  0.2180  0.1685  0.8774
  186SLPC  H13A21357   3.357   2.783   6.209 -1.2275  1.3727 -1.2618
  186SLPC  H13B21358   3.335   2.836   6.378  0.1843  2.4851  0.5941
  186SLPC  H13C21359   3.207   2.752   6.303  0.6391 -0.7378 -0.3879
  186SLPC   C1421360   3.389   3.027   6.198  0.1379  0.4575  0.4907
  186SLPC  H14A21361   3.380   3.129   6.164 -0.4457  0.5966  1.0448
  186SLPC  H14B21362   3.454   3.032   6.284  0.3671  2.9517  0.2459
  186SLPC  H14C21363   3.439   2.969   6.121 -0.5960  0.3025  0.1212
  186SLPC   C1521364   3.179   3.047   6.324  1.1456 -0.3123  0.1736
  186SLPC  H15A21365   3.145   3.132   6.267  0.9020  0.2099  1.0824
  186SLPC  H15B21366   3.085   3.008   6.361 -0.3492  2.4276 -0.5060
  186SLPC  H15C21367   3.237   3.072   6.412 -2.3877  0.4585  2.5158
  186SLPC   C1221368   3.165   2.937   6.105 -0.9473  0.4509  0.7451
  186SLPC  H12A21369   3.062   2.919   6.132 -1.8263  1.1906 -1.7945
  186SLPC  H12B21370   3.196   2.856   6.040  1.1203  2.2792 -0.6995
  186SLPC   C1121371   3.144   3.051   6.013  0.2470 -0.2699  0.5456
  186SLPC  H11A21372   3.088   3.016   5.924 -2.6826  0.8744  1.8074
  186SLPC  H11B21373   3.243   3.082   5.972 -0.5053 -1.6709 -2.6439
  186SLPC     P21374   2.927   3.162   6.092 -0.0397 -0.1072 -0.4854
  186SLPC   O1321375   2.857   3.264   6.007 -0.4482 -0.1840  0.0228
  186SLPC   O1421376   2.878   3.025   6.084 -0.0811 -0.5103 -0.2980
  186SLPC   O1221377   3.080   3.164   6.067 -0.2657  0.5179 -0.0537
  186SLPC   O1121378   2.909   3.200   6.246  0.4789 -0.4931  0.2164
  186SLPC    C121379   2.938   3.333   6.289  0.3031  0.0598  0.0477
  186SLPC    HA21380   3.023   3.373   6.230  1.3088 -0.7515  0.9033
  186SLPC    HB21381   2.850   3.401   6.284  1.0902  1.4343  2.9580
  186SLPC    C221382   2.988   3.343   6.439  0.1994  0.5334  0.4719
  186SLPC    HS21383   3.089   3.296   6.435 -0.8166 -1.7780 -0.3134
  186SLPC   O2121384   2.892   3.261   6.516 -0.6535 -0.4104  0.3373
  186SLPC   C2121385   2.952   3.187   6.599 -0.3351  0.3781  0.6518
  186SLPC   O2221386   3.075   3.174   6.612 -0.2049  0.3950  0.5051
  186SLPC   C2221387   2.853   3.145   6.712 -0.2338  0.0353 -0.5774
  186SLPC   H2R21388   2.857   3.035   6.726  1.2701 -0.2851 -2.8511
  186SLPC   H2S21389   2.904   3.195   6.797 -1.1941  1.7031 -0.9300
  186SLPC    C321390   3.010   3.483   6.506 -0.1373 -0.3605 -0.3415
  186SLPC    HX21391   3.072   3.543   6.437  0.6457  1.0327  1.5108
  186SLPC    HY21392   3.067   3.461   6.598  0.7624  1.4376 -0.4338
  186SLPC   O3121393   2.892   3.561   6.527 -0.0511 -0.3968 -0.2041
  186SLPC   C3121394   2.852   3.585   6.647  0.3002 -0.0676  0.2349
  186SLPC   O3221395   2.889   3.532   6.749 -0.1061  0.1349 -0.2501
  186SLPC   C3221396   2.741   3.697   6.641  0.3004  1.0328  0.8401
  186SLPC   H2X21397   2.657   3.650   6.587  0.4301 -0.1470  1.6281
  186SLPC   H2Y21398   2.774   3.785   6.582 -2.5385  0.9498 -1.0199
  186SLPC   C2321399   2.701   3.191   6.696  0.1021  0.3328  0.1887
  186SLPC   H3R21400   2.655   3.157   6.601  0.0979  2.7635 -0.7404
  186SLPC   H3S21401   2.707   3.300   6.676 -1.8734  0.6922  1.2399
  186SLPC   C2421402   2.611   3.167   6.825  0.5587  0.1167 -0.2103
  186SLPC   H4R21403   2.635   3.067   6.866  1.2177 -0.5992 -2.2246
  186SLPC   H4S21404   2.502   3.177   6.805  0.1057 -2.0639  0.9335
  186SLPC   C2521405   2.663   3.253   6.944  0.2818  0.0397  0.3696
  186SLPC   H5R21406   2.773   3.244   6.944  0.4195  0.8669 -2.5987
  186SLPC   H5S21407   2.618   3.204   7.033 -0.6690 -0.1464 -0.2003
  186SLPC   C2621408   2.606   3.402   6.945  0.1019 -0.3295 -0.6713
  186SLPC   H6R21409   2.495   3.400   6.936  0.0692  0.2998 -0.4760
  186SLPC   H6S21410   2.646   3.462   6.861  0.4673  1.1764  0.5384
  186SLPC   C2721411   2.639   3.471   7.073 -0.9089 -0.1520  0.3624
  186SLPC   H7R21412   2.659   3.577   7.048 -2.2348 -0.6529 -3.6724
  186SLPC   H7S21413   2.740   3.426   7.085 -0.3205  1.2475  0.7994
  186SLPC   C2821414   2.544   3.447   7.195  0.1381 -0.2988  0.1078
  186SLPC   H8R21415   2.550   3.338   7.217  0.6200 -0.4962 -0.9484
  186SLPC   H8S21416   2.438   3.468   7.169 -0.3824 -0.9506  1.5997
  186SLPC   C2921417   2.574   3.529   7.318 -0.1767 -0.4951  0.0484
  186SLPC   H9R21418   2.554   3.635   7.298 -1.2445 -1.1842 -3.1969
  186SLPC  C21021419   2.635   3.488   7.432  0.0388 -0.0601  0.0662
  186SLPC  H10R21420   2.653   3.564   7.510 -2.2129 -0.4084  0.9862
  186SLPC  C21121421   2.671   3.348   7.468 -0.3532 -0.0392  0.5559
  186SLPC  H11R21422   2.732   3.296   7.391  0.3878  0.5591  0.7301
  186SLPC  H11S21423   2.583   3.281   7.472 -2.3205  2.2466 -1.3368
  186SLPC  C21221424   2.745   3.327   7.602 -0.5916  0.2161  0.2259
  186SLPC  H12R21425   2.846   3.286   7.588 -0.4944  1.1890 -2.6479
  186SLPC  C21321426   2.707   3.360   7.727  0.2272  0.0293 -0.0748
  186SLPC  H13R21427   2.776   3.335   7.809 -1.9855 -3.5647  0.8756
  186SLPC  C21421428   2.583   3.424   7.784 -0.8390  0.4061  0.0297
  186SLPC  H14R21429   2.519   3.448   7.696 -1.4522 -1.0445  0.0374
  186SLPC  H14S21430   2.611   3.518   7.834  0.6356 -0.3205  0.6017
  186SLPC  C21521431   2.508   3.335   7.886  0.6758 -0.3696  0.4877
  186SLPC  H15R21432   2.482   3.236   7.844 -0.4580  1.0860 -2.5967
  186SLPC  H15S21433   2.408   3.383   7.902  0.8815 -0.1154  1.0583
  186SLPC  C21621434   2.582   3.320   8.019  0.3375  0.3316  1.1755
  186SLPC  H16R21435   2.681   3.274   8.001  0.0567  0.5172 -1.2253
  186SLPC  H16S21436   2.535   3.245   8.086 -0.3015  1.1270  1.6460
  186SLPC  C21721437   2.584   3.451   8.102 -0.3578 -0.3068  0.4208
  186SLPC  H17R21438   2.584   3.417   8.208  0.5814  0.4337  0.6804
  186SLPC  H17S21439   2.493   3.512   8.086 -0.2373 -0.3131 -0.3429
  186SLPC  C21821440   2.710   3.538   8.085  0.1388 -0.6108  0.0374
  186SLPC  H18R21441   2.786   3.518   8.164 -0.4756  1.8252  1.3553
  186SLPC  H18S21442   2.672   3.640   8.108 -0.2581 -0.6600 -0.3802
  186SLPC  H18T21443   2.749   3.544   7.981 -0.4287  1.2168 -0.1083
  186SLPC   C3321444   2.695   3.744   6.776  0.1659  0.0681 -0.8631
  186SLPC   H3X21445   2.673   3.661   6.847  2.0471 -0.7590 -1.1890
  186SLPC   H3Y21446   2.597   3.793   6.755  0.0098  0.4335  0.5748
  186SLPC   C3421447   2.792   3.842   6.844  0.0360 -0.1290  0.4358
  186SLPC   H4X21448   2.830   3.926   6.782 -0.4163  0.7446  1.3144
  186SLPC   H4Y21449   2.875   3.782   6.888 -0.8120 -0.5305  1.5277
  186SLPC   C3521450   2.747   3.890   6.978  0.1044 -0.3732  0.2019
  186SLPC   H5X21451   2.726   3.805   7.046  0.2652 -0.1918  0.4815
  186SLPC   H5Y21452   2.648   3.937   6.961 -0.8599 -2.1375  0.6841
  186SLPC   C3621453   2.835   3.993   7.059  0.0095 -0.2792 -0.5579
  186SLPC   H6X21454   2.838   4.092   7.009 -0.7262 -0.1305 -0.3256
  186SLPC   H6Y21455   2.933   3.945   7.078 -0.1818 -0.5378 -0.2141
  186SLPC   C3721456   2.777   4.008   7.203  0.4205  0.2564  0.4225
  186SLPC   H7X21457   2.749   3.909   7.245 -2.3158  0.9941  0.5581
  186SLPC   H7Y21458   2.677   4.056   7.188  1.8099  3.1400 -0.3353
  186SLPC   C3821459   2.848   4.097   7.304 -0.3762  0.1048  0.0432
  186SLPC   H8X21460   2.861   4.198   7.261  3.9515 -0.6337 -0.7826
  186SLPC   H8Y21461   2.944   4.047   7.329  0.3120  1.0379 -0.6580
  186SLPC   C3921462   2.761   4.103   7.438 -0.0313 -0.1416  0.0800
  186SLPC   H9X21463   2.778   4.010   7.496 -2.6752  0.9385  2.8420
  186SLPC   H9Y21464   2.651   4.111   7.423 -0.1730 -2.1334 -0.1581
  186SLPC  C31021465   2.822   4.213   7.531  0.3757  1.1262 -0.7150
  186SLPC  H10X21466   2.796   4.313   7.489 -0.4395  1.1396 -0.2068
  186SLPC  H10Y21467   2.933   4.202   7.529  0.4027  1.2843 -0.1769
  186SLPC  C31121468   2.774   4.186   7.673  0.0765 -0.1978 -0.1748
  186SLPC  H11X21469   2.807   4.087   7.710 -0.6404 -0.2301  0.4059
  186SLPC  H11Y21470   2.663   4.177   7.671 -0.0639  0.8611  1.1548
  186SLPC  C31221471   2.826   4.294   7.768 -0.6295  0.4968  0.7650
  186SLPC  H12X21472   2.782   4.393   7.742 -4.7035 -0.8871  1.5589
  186SLPC  H12Y21473   2.936   4.302   7.764 -0.5682 -0.6503 -0.9196
  186SLPC  C31321474   2.772   4.261   7.909  0.1697 -0.4079 -0.4291
  186SLPC  H13X21475   2.799   4.158   7.938  1.7951  0.0327 -0.2826
  186SLPC  H13Y21476   2.662   4.277   7.912  0.1152 -0.7073 -0.7955
  186SLPC  C31421477   2.827   4.350   8.023 -0.3137 -0.3119 -0.2844
  186SLPC  H14X21478   2.795   4.452   7.996  0.8755 -0.2360 -1.5221
  186SLPC  H14Y21479   2.938   4.359   8.020 -0.2538 -1.1254 -1.0602
  186SLPC  C31521480   2.772   4.305   8.161 -0.1133 -0.2866  0.1934
  186SLPC  H15X21481   2.809   4.202   8.179 -0.2824 -0.4915 -0.5884
  186SLPC  H15Y21482   2.661   4.300   8.158 -0.3184  2.7858 -1.4227
  186SLPC  C31621483   2.805   4.408   8.260  0.0160  0.0164 -0.0925
  186SLPC  H16X21484   2.770   4.507   8.223 -0.9104 -0.2916 -0.0729
  186SLPC  H16Y21485   2.915   4.404   8.273  0.6137  0.8793 -3.5931
  186SLPC  C31721486   2.733   4.375   8.397  0.5193  0.3170  0.1626
  186SLPC  H17X21487   2.623   4.385   8.392 -0.0701 -4.1829  0.1002
  186SLPC  H17Y21488   2.763   4.458   8.464 -0.5517  1.2471 -0.4860
  186SLPC  C31821489   2.778   4.235   8.439 -0.1932  0.2169 -0.1083
  186SLPC  H18X21490   2.887   4.219   8.422  0.1099  1.3847  0.5891
  186SLPC  H18Y21491   2.718   4.157   8.389  0.7025 -0.5179 -0.0668
  186SLPC  H18Z21492   2.758   4.222   8.548 -1.5943  1.2868 -0.2062
  187SLPC     N21493   6.674   3.879   6.267 -0.1197 -0.3992  0.3809
  187SLPC   C1321494   6.715   3.761   6.180  0.0129 -0.0114 -0.1851
  187SLPC  H13A21495   6.646   3.678   6.189  2.6258 -2.4351 -1.1541
  187SLPC  H13B21496   6.731   3.788   6.076 -2.6262  0.3175 -0.5836
  187SLPC  H13C21497   6.807   3.728   6.224  0.4015  0.3532 -0.7015
  187SLPC   C1421498   6.546   3.914   6.207  0.5074 -0.1580  0.2156
  187SLPC  H14A21499   6.479   3.833   6.229  1.1853 -0.0979  2.7136
  187SLPC  H14B21500   6.500   4.000   6.253  2.1001  0.7082  0.2639
  187SLPC  H14C21501   6.546   3.928   6.099  0.0953 -3.5699 -0.3415
  187SLPC   C1521502   6.767   3.991   6.226  0.2920 -1.1763 -0.5510
  187SLPC  H15A21503   6.778   4.009   6.120  3.1735  1.0997 -0.0116
  187SLPC  H15B21504   6.733   4.079   6.279 -2.5349 -1.2819 -2.0286
  187SLPC  H15C21505   6.862   3.961   6.269 -0.4400 -3.4804 -0.4592
  187SLPC   C1221506   6.651   3.850   6.413 -0.3043 -0.0305  0.0387
  187SLPC  H12A21507   6.645   3.939   6.475 -0.3873 -1.2022  1.7953
  187SLPC  H12B21508   6.746   3.810   6.447 -0.6546  0.4217  1.6843
  187SLPC   C1121509   6.539   3.758   6.455 -0.9250 -0.1265 -0.0378
  187SLPC  H11A21510   6.568   3.754   6.562  1.6552  1.7414 -0.5490
  187SLPC  H11B21511   6.548   3.660   6.404  0.8299  0.4197 -0.8871
  187SLPC     P21512   6.287   3.713   6.449  0.0563 -0.1520 -0.0422
  187SLPC   O1321513   6.166   3.795   6.468 -0.5584 -0.3918  0.8133
  187SLPC   O1421514   6.295   3.629   6.326 -0.0222 -0.4663 -0.0345
  187SLPC   O1221515   6.414   3.815   6.440 -0.0367  0.2924 -0.4371
  187SLPC   O1121516   6.320   3.635   6.585 -0.2933 -0.2017 -0.2832
  187SLPC    C121517   6.244   3.657   6.700  0.6641 -0.1378  0.3042
  187SLPC    HA21518   6.136   3.664   6.677  1.1200 -0.6723 -2.2233
  187SLPC    HB21519   6.261   3.572   6.770  2.2316  0.4670  0.7131
  187SLPC    C221520   6.291   3.785   6.780 -0.3861 -0.3291  1.5885
  187SLPC    HS21521   6.275   3.867   6.706  0.0119 -1.0102  0.7304
  187SLPC   O2121522   6.430   3.771   6.824  0.8556  0.4683  0.5115
  187SLPC   C2121523   6.498   3.881   6.822 -0.2040 -0.2214 -0.7044
  187SLPC   O2221524   6.462   3.993   6.782  0.5048  0.2614  0.4989
  187SLPC   C2221525   6.632   3.859   6.889  0.0349  0.6015  0.1323
  187SLPC   H2R21526   6.669   3.754   6.893 -1.1342  0.2081  2.2132
  187SLPC   H2S21527   6.697   3.923   6.826  0.2361 -0.6879 -1.0207
  187SLPC    C321528   6.185   3.818   6.892  0.2295 -0.3371  0.1163
  187SLPC    HX21529   6.171   3.722   6.946  0.9897  0.2916  1.4660
  187SLPC    HY21530   6.091   3.846   6.839  0.9578 -1.0259 -1.6434
  187SLPC   O3121531   6.233   3.923   6.977  0.2032 -0.0096  0.7178
  187SLPC   C3121532   6.154   4.023   7.005 -0.1591 -0.7412  0.2113
  187SLPC   O3221533   6.037   4.024   6.977 -0.1369  0.1736  0.9064
  187SLPC   C3221534   6.239   4.136   7.059 -0.0635 -0.2555 -1.0923
  187SLPC   H2X21535   6.189   4.235   7.051  1.1301  0.8012  2.6268
  187SLPC   H2Y21536   6.331   4.142   6.996  0.4194 -0.2707 -0.3947
  187SLPC   C2321537   6.619   3.909   7.037 -0.0281 -0.1090 -0.2748
  187SLPC   H3R21538   6.560   4.003   7.042 -0.8029 -0.6199  0.7514
  187SLPC   H3S21539   6.726   3.926   7.060  0.3394 -1.6266 -0.7245
  187SLPC   C2421540   6.558   3.807   7.140  0.6071 -0.2171 -0.7145
  187SLPC   H4R21541   6.627   3.720   7.139 -0.4074 -1.0475 -0.2771
  187SLPC   H4S21542   6.456   3.785   7.102  1.2309  0.0620 -2.6402
  187SLPC   C2521543   6.555   3.868   7.282  0.0804  1.0117 -0.4879
  187SLPC   H5R21544   6.466   3.826   7.333  2.1334 -2.6828  0.4083
  187SLPC   H5S21545   6.549   3.979   7.289 -1.2185  0.9054  0.4853
  187SLPC   C2621546   6.673   3.814   7.362 -0.4371 -0.7598 -0.4896
  187SLPC   H6R21547   6.761   3.864   7.317 -0.0951 -0.9393 -0.0206
  187SLPC   H6S21548   6.686   3.704   7.360  0.9697 -0.6132 -0.0535
  187SLPC   C2721549   6.675   3.852   7.515  0.4956 -0.0006 -0.7567
  187SLPC   H7R21550   6.585   3.808   7.563  0.5851  1.4143  0.7987
  187SLPC   H7S21551   6.648   3.959   7.523  1.2146  0.0612  1.4574
  187SLPC   C2821552   6.800   3.822   7.587 -0.1203 -0.1150 -1.0249
  187SLPC   H8R21553   6.802   3.878   7.683 -0.9779 -0.9675 -0.4969
  187SLPC   H8S21554   6.884   3.866   7.530  0.3541 -0.6718 -0.7723
  187SLPC   C2921555   6.832   3.676   7.608  0.3301  0.1364  0.1132
  187SLPC   H9R21556   6.813   3.604   7.527 -2.1738  1.2346 -0.3591
  187SLPC  C21021557   6.875   3.624   7.730  0.1185  0.2369 -0.3848
  187SLPC  H10R21558   6.888   3.515   7.736  2.8364  0.5527  1.0197
  187SLPC  C21121559   6.890   3.708   7.858  0.5686 -0.7454  0.4877
  187SLPC  H11R21560   6.797   3.768   7.872  1.7161  0.3893  4.9212
  187SLPC  H11S21561   6.968   3.787   7.844 -3.0191  3.5187  2.0510
  187SLPC  C21221562   6.925   3.644   7.995 -0.0569  0.5068  0.3231
  187SLPC  H12R21563   7.031   3.640   8.025  0.2190 -1.0078 -0.7281
  187SLPC  C21321564   6.831   3.580   8.063  0.3262 -0.4645 -0.9961
  187SLPC  H13R21565   6.856   3.537   8.161 -1.5797  1.4939  0.4246
  187SLPC  C21421566   6.684   3.563   8.031  0.3415 -0.1598  0.3977
  187SLPC  H14R21567   6.647   3.463   8.062  1.5031 -1.0870 -1.0791
  187SLPC  H14S21568   6.666   3.565   7.921 -0.3167  2.1629  0.5002
  187SLPC  C21521569   6.603   3.679   8.084 -0.3326 -0.5728 -0.4485
  187SLPC  H15R21570   6.500   3.669   8.043 -0.5880  0.3477 -0.0625
  187SLPC  H15S21571   6.634   3.781   8.054  1.3200 -0.3892  1.6110
  187SLPC  C21621572   6.593   3.680   8.235  0.9004  0.5028 -0.2254
  187SLPC  H16R21573   6.695   3.714   8.264  1.3139  1.1619 -2.2873
  187SLPC  H16S21574   6.582   3.573   8.264  2.4820  0.4557  0.2919
  187SLPC  C21721575   6.478   3.772   8.286  0.0613  0.0834  0.1967
  187SLPC  H17R21576   6.381   3.761   8.234 -0.4775 -0.4013  1.2645
  187SLPC  H17S21577   6.509   3.878   8.276  0.3541  0.1472  1.5398
  187SLPC  C21821578   6.450   3.737   8.435 -0.5949  0.1141 -0.7753
  187SLPC  H18R21579   6.539   3.763   8.495 -2.2168  3.3289  0.5134
  187SLPC  H18S21580   6.413   3.633   8.449 -0.7852  0.4206  1.3571
  187SLPC  H18T21581   6.372   3.803   8.478 -2.6016 -1.3208 -1.9998
  187SLPC   C3321582   6.268   4.126   7.213  0.1205  0.0923 -0.3650
  187SLPC   H3X21583   6.336   4.208   7.244 -1.3231  1.2430 -0.1522
  187SLPC   H3Y21584   6.324   4.032   7.229 -1.7906 -0.9773  0.3385
  187SLPC   C3421585   6.157   4.130   7.307 -0.1979 -0.3087 -0.5668
  187SLPC   H4X21586   6.096   4.040   7.281 -0.5687 -0.3531  0.4068
  187SLPC   H4Y21587   6.082   4.210   7.290  0.8804  1.0904  0.9760
  187SLPC   C3521588   6.179   4.139   7.462 -0.0070 -0.0793 -0.0128
  187SLPC   H5X21589   6.243   4.049   7.478  0.8879  0.4722 -0.4155
  187SLPC   H5Y21590   6.084   4.118   7.515 -0.4182  2.5451  0.3957
  187SLPC   C3621591   6.236   4.270   7.510 -0.2722 -0.3598  0.4633
  187SLPC   H6X21592   6.175   4.356   7.475  1.7240  0.4421 -1.2583
  187SLPC   H6Y21593   6.340   4.288   7.476 -0.8755  0.3400 -1.1318
  187SLPC   C3721594   6.243   4.280   7.668  0.0144 -0.0367  0.6994
  187SLPC   H7X21595   6.293   4.379   7.673  0.2939 -0.1061 -0.5043
  187SLPC   H7Y21596   6.144   4.287   7.718 -1.0604 -2.5357 -0.8695
  187SLPC   C3821597   6.325   4.170   7.739 -0.1661  0.4351 -0.0376
  187SLPC   H8X21598   6.422   4.161   7.686  0.4225 -1.5252  1.2522
  187SLPC   H8Y21599   6.275   4.072   7.730  1.7444 -0.4471 -1.7804
  187SLPC   C3921600   6.366   4.199   7.884 -0.8531 -0.5897 -0.5897
  187SLPC   H9X21601   6.274   4.240   7.930 -0.2835  1.7540 -1.3753
  187SLPC   H9Y21602   6.440   4.282   7.890 -0.5752 -0.8572 -0.2260
  187SLPC  C31021603   6.429   4.080   7.967 -0.8568  0.5207 -0.1532
  187SLPC  H10X21604   6.525   4.046   7.923 -1.4662 -0.5423 -0.7224
  187SLPC  H10Y21605   6.353   3.998   7.965  0.5338 -0.8529  0.8305
  187SLPC  C31121606   6.464   4.118   8.111 -0.5187  0.9288  0.2779
  187SLPC  H11X21607   6.543   4.194   8.130 -0.1789  0.6485 -0.0129
  187SLPC  H11Y21608   6.508   4.028   8.158 -2.8196  0.0851  0.9363
  187SLPC  C31221609   6.343   4.152   8.196  0.3245 -0.4026 -0.3850
  187SLPC  H12X21610   6.272   4.067   8.183 -0.4391 -0.0629  1.3206
  187SLPC  H12Y21611   6.299   4.244   8.152  1.5684 -0.2213 -1.3073
  187SLPC  C31321612   6.376   4.175   8.348  0.0202 -0.9326 -0.2408
  187SLPC  H13X21613   6.407   4.073   8.380 -0.7811 -1.1668 -0.2039
  187SLPC  H13Y21614   6.281   4.218   8.386  1.8169  2.5860  0.6964
  187SLPC  C31421615   6.476   4.285   8.379  0.3783 -0.4409 -0.4258
  187SLPC  H14X21616   6.440   4.384   8.344  0.1878 -0.8703 -1.4730
  187SLPC  H14Y21617   6.569   4.258   8.325  1.0538  0.5009  0.2323
  187SLPC  C31521618   6.521   4.279   8.527  0.3039 -0.5108  0.1563
  187SLPC  H15X21619   6.592   4.363   8.539 -1.7210  0.8675  4.0751
  187SLPC  H15Y21620   6.582   4.188   8.548  0.9338 -0.7936 -2.5857
  187SLPC  C31621621   6.412   4.297   8.636  0.5439 -0.4135  0.0600
  187SLPC  H16X21622   6.334   4.218   8.626  0.1397 -0.3334  2.2492
  187SLPC  H16Y21623   6.353   4.387   8.609 -0.9684 -1.9679 -2.2373
  187SLPC  C31721624   6.454   4.301   8.773  0.0680  0.0295 -0.6646
  187SLPC  H17X21625   6.375   4.326   8.847  0.1912 -0.7877 -0.2484
  187SLPC  H17Y21626   6.537   4.372   8.798 -0.9407  0.8436  0.4621
  187SLPC  C31821627   6.494   4.158   8.830  0.3198  0.1775 -0.1571
  187SLPC  H18X21628   6.546   4.171   8.927  1.6633  1.2541 -0.9724
  187SLPC  H18Y21629   6.564   4.105   8.762  0.5668 -2.6758  2.1358
  187SLPC  H18Z21630   6.403   4.099   8.853  1.2240 -1.0160  0.4259
  188SLPC     N21631   2.795   0.573   5.778 -0.2492 -0.0808  0.4119
  188SLPC   C1321632   2.833   0.466   5.870  0.3240  0.1437  0.4416
  188SLPC  H13A21633   2.936   0.437   5.856 -0.2577 -1.9349  0.2549
  188SLPC  H13B21634   2.816   0.502   5.971 -1.7768  0.3794  0.0474
  188SLPC  H13C21635   2.775   0.376   5.863 -0.2944  0.6265 -0.8719
  188SLPC   C1421636   2.810   0.516   5.637  0.4000 -0.2330 -0.6579
  188SLPC  H14A21637   2.803   0.594   5.562  1.0179  2.2747  1.7075
  188SLPC  H14B21638   2.903   0.463   5.619  1.1608  1.5585 -2.5408
  188SLPC  H14C21639   2.737   0.438   5.625 -0.9487  1.2034 -2.4711
  188SLPC   C1521640   2.872   0.699   5.801 -0.1782  0.0747  0.7824
  188SLPC  H15A21641   2.843   0.774   5.729 -1.9137  1.1661  2.5474
  188SLPC  H15B21642   2.849   0.741   5.898 -0.0434 -0.0856  0.8839
  188SLPC  H15C21643   2.978   0.681   5.787 -0.4297 -1.5316  0.8113
  188SLPC   C1221644   2.653   0.614   5.808 -0.5198  0.5996 -0.5641
  188SLPC  H12A21645   2.581   0.534   5.802 -1.2064  1.2303 -0.8132
  188SLPC  H12B21646   2.623   0.681   5.729  1.4583  0.6245 -1.3431
  188SLPC   C1121647   2.624   0.674   5.953  0.0504 -0.2366  0.8443
  188SLPC  H11A21648   2.653   0.594   6.025  1.6165 -1.1938 -0.7707
  188SLPC  H11B21649   2.514   0.692   5.949  0.0751 -0.2351 -2.7119
  188SLPC     P21650   2.724   0.850   6.114  0.4187  0.2473 -0.1520
  188SLPC   O1321651   2.690   0.989   6.118 -0.1730 -0.0475  0.1507
  188SLPC   O1421652   2.660   0.755   6.206  0.5326 -0.5037 -0.6844
  188SLPC   O1221653   2.688   0.797   5.969 -0.3528  0.3382  0.2385
  188SLPC   O1121654   2.881   0.842   6.110  0.3009 -0.6602  0.1024
  188SLPC    C121655   2.958   0.725   6.133  0.2009 -0.4732  0.0202
  188SLPC    HA21656   2.896   0.635   6.114  0.0587 -0.7779  1.7763
  188SLPC    HB21657   3.048   0.714   6.069 -0.0907 -1.4601 -0.2351
  188SLPC    C221658   3.025   0.732   6.280 -0.0151  0.4450  0.6653
  188SLPC    HS21659   3.111   0.661   6.282 -1.2245 -1.1633 -0.9717
  188SLPC   O2121660   2.925   0.684   6.372  0.0451 -0.2882 -0.1634
  188SLPC   C2121661   2.879   0.562   6.369 -0.7885 -0.5165  0.0291
  188SLPC   O2221662   2.902   0.471   6.289 -0.4133 -0.2474  0.1911
  188SLPC   C2221663   2.788   0.545   6.491 -0.3986 -0.4111 -0.3375
  188SLPC   H2R21664   2.781   0.640   6.548  0.0496 -0.3320 -0.4092
  188SLPC   H2S21665   2.682   0.519   6.467 -1.1687 -0.3734  2.6445
  188SLPC    C321666   3.075   0.869   6.328  0.0042  0.5096 -0.0058
  188SLPC    HX21667   3.003   0.952   6.310  0.6825  1.7419  2.5172
  188SLPC    HY21668   3.169   0.893   6.274  0.9525  1.0554  1.8294
  188SLPC   O3121669   3.116   0.867   6.473  0.3250  0.2477 -0.3337
  188SLPC   C3121670   3.017   0.910   6.562  0.2482 -0.1141 -0.7581
  188SLPC   O3221671   2.907   0.949   6.528  0.7452  0.1037  0.4259
  188SLPC   C3221672   3.066   0.897   6.702  0.6589  0.1196  0.2232
  188SLPC   H2X21673   3.100   0.998   6.735  1.7162 -1.2884  3.8412
  188SLPC   H2Y21674   3.144   0.818   6.705  0.0971 -0.5054 -0.7645
  188SLPC   C2321675   2.857   0.446   6.590 -0.2787  0.6633 -1.3779
  188SLPC   H3R21676   2.954   0.482   6.630 -0.1318 -2.0961  1.0549
  188SLPC   H3S21677   2.872   0.346   6.544  0.2827 -2.1275  4.1352
  188SLPC   C2421678   2.758   0.413   6.704  0.0171  0.2954  0.1485
  188SLPC   H4R21679   2.679   0.339   6.678  0.4382 -0.2865  0.5282
  188SLPC   H4S21680   2.708   0.510   6.727  0.6540  0.5068  0.6654
  188SLPC   C2521681   2.830   0.369   6.826  0.7893 -0.4836  0.3259
  188SLPC   H5R21682   2.912   0.299   6.802  0.6242 -0.9703  1.1171
  188SLPC   H5S21683   2.752   0.303   6.870 -0.6497  0.8929 -0.0692
  188SLPC   C2621684   2.869   0.469   6.932 -0.6970  0.0526 -0.3588
  188SLPC   H6R21685   2.789   0.546   6.941 -1.5139 -0.6521 -1.3593
  188SLPC   H6S21686   2.966   0.517   6.908 -0.2792  0.4081  1.7935
  188SLPC   C2721687   2.893   0.394   7.067  0.3615 -0.3291 -0.4768
  188SLPC   H7R21688   2.960   0.309   7.042  2.0346  0.2908  1.6421
  188SLPC   H7S21689   2.788   0.365   7.090  0.7917 -0.3224  1.6238
  188SLPC   C2821690   2.952   0.484   7.176  0.5317  0.4578 -0.4047
  188SLPC   H8R21691   3.034   0.534   7.119 -0.5764  1.8780 -0.8192
  188SLPC   H8S21692   3.004   0.412   7.243  0.1810 -1.2922 -1.9355
  188SLPC   C2921693   2.856   0.581   7.240  0.0315 -0.3526  0.0493
  188SLPC   H9R21694   2.782   0.622   7.170 -3.1716 -1.2386  2.6234
  188SLPC  C21021695   2.837   0.598   7.375  0.5641 -0.3401 -0.2546
  188SLPC  H10R21696   2.746   0.650   7.407 -0.4249 -0.6959 -2.3354
  188SLPC  C21121697   2.910   0.537   7.491  0.4134 -0.6739  0.6552
  188SLPC  H11R21698   2.988   0.474   7.445  0.9156 -0.0898  0.6892
  188SLPC  H11S21699   2.834   0.484   7.553 -0.3972 -0.0860  0.1886
  188SLPC  C21221700   2.959   0.643   7.591  0.5186 -0.2921  0.4322
  188SLPC  H12R21701   3.024   0.715   7.541 -0.0708  0.1958  0.3626
  188SLPC  C21321702   2.940   0.644   7.729 -0.8388 -0.2426  0.8742
  188SLPC  H13R21703   2.967   0.741   7.774 -0.2127  0.7183 -1.4481
  188SLPC  C21421704   2.877   0.547   7.822 -0.2137 -0.6908 -1.0056
  188SLPC  H14R21705   2.828   0.465   7.765  0.1765 -0.2844 -1.9367
  188SLPC  H14S21706   2.792   0.589   7.880  1.3576 -0.5776  1.3717
  188SLPC  C21521707   2.974   0.487   7.924  0.4123  0.0484  0.7220
  188SLPC  H15R21708   3.063   0.456   7.865  1.4450  0.5600  1.9536
  188SLPC  H15S21709   2.933   0.391   7.960  0.7649 -0.0098  0.9653
  188SLPC  C21621710   3.020   0.566   8.046 -0.0595  0.2202  0.0873
  188SLPC  H16R21711   3.084   0.499   8.105 -1.6734 -0.4548  1.1368
  188SLPC  H16S21712   2.940   0.604   8.113  1.2601 -1.9223  3.0824
  188SLPC  C21721713   3.106   0.689   8.007  0.1495 -0.1065 -0.4025
  188SLPC  H17R21714   3.035   0.768   7.973  1.5531  2.3614  1.9835
  188SLPC  H17S21715   3.182   0.660   7.930  1.3092 -2.7743  1.6030
  188SLPC  C21821716   3.179   0.753   8.131  0.3970  0.3347 -0.2179
  188SLPC  H18R21717   3.214   0.858   8.117  1.3200  0.0800  0.0677
  188SLPC  H18S21718   3.265   0.683   8.132  0.0493 -0.2599 -2.8867
  188SLPC  H18T21719   3.112   0.755   8.219  0.3504  0.1387 -0.2500
  188SLPC   C3321720   2.944   0.851   6.783  0.3761  0.2537 -0.2151
  188SLPC   H3X21721   2.905   0.758   6.737  0.5594 -0.1602  0.4446
  188SLPC   H3Y21722   2.858   0.922   6.786  1.3080  1.4699 -1.2541
  188SLPC   C3421723   2.978   0.827   6.931 -0.3884  0.4072 -0.2304
  188SLPC   H4X21724   3.064   0.757   6.937  0.2877  1.3029  1.1111
  188SLPC   H4Y21725   2.894   0.769   6.976 -0.5473  0.7429 -0.0895
  188SLPC   C3521726   3.022   0.944   7.011  0.6417 -0.2025 -1.0627
  188SLPC   H5X21727   2.947   1.025   7.014 -0.7230 -1.4413  0.6249
  188SLPC   H5Y21728   3.117   0.983   6.969  1.4737 -1.4332 -0.3994
  188SLPC   C3621729   3.062   0.900   7.154 -0.0251 -0.6430  0.5857
  188SLPC   H6X21730   3.136   0.817   7.153 -0.7883 -1.3372 -0.5488
  188SLPC   H6Y21731   2.973   0.851   7.200 -0.1292 -0.8419  0.1752
  188SLPC   C3721732   3.094   1.017   7.253  0.5325 -0.5145  0.0161
  188SLPC   H7X21733   3.010   1.088   7.235  0.0164 -0.7668  1.2861
  188SLPC   H7Y21734   3.189   1.072   7.233 -0.0237  1.6663  2.7501
  188SLPC   C3821735   3.085   0.978   7.404 -0.8099  0.2255 -0.7653
  188SLPC   H8X21736   3.155   0.895   7.426  2.0986  1.5440 -3.9931
  188SLPC   H8Y21737   2.980   0.947   7.422 -0.3295 -1.9756 -1.4489
  188SLPC   C3921738   3.101   1.100   7.497 -0.2983 -0.1923 -0.5927
  188SLPC   H9X21739   3.014   1.169   7.502 -1.8243 -2.0869  0.2490
  188SLPC   H9Y21740   3.197   1.149   7.473  0.5245  0.0861  2.8277
  188SLPC  C31021741   3.113   1.052   7.641 -0.4421  0.5114  0.1458
  188SLPC  H10X21742   3.203   0.987   7.650 -1.1265 -0.5194 -0.2001
  188SLPC  H10Y21743   3.029   0.981   7.657 -0.1269 -0.7517 -2.9136
  188SLPC  C31121744   3.107   1.163   7.744 -0.0217 -0.1277 -0.1510
  188SLPC  H11X21745   3.008   1.213   7.737  0.5255  1.4472  2.1119
  188SLPC  H11Y21746   3.182   1.239   7.711  1.9923 -1.7303  0.5544
  188SLPC  C31221747   3.141   1.119   7.889  0.1287 -0.2707  0.6091
  188SLPC  H12X21748   3.227   1.050   7.883  0.0687 -0.2174 -2.1798
  188SLPC  H12Y21749   3.062   1.052   7.929 -0.8542  1.4462  1.6659
  188SLPC  C31321750   3.159   1.238   7.985 -0.4026 -0.3801  0.1105
  188SLPC  H13X21751   3.063   1.290   8.002 -0.6240 -0.9801  0.7488
  188SLPC  H13Y21752   3.218   1.313   7.928 -1.9836  1.4135  0.7409
  188SLPC  C31421753   3.216   1.190   8.124 -1.0121 -0.7220  0.5257
  188SLPC  H14X21754   3.303   1.123   8.107 -1.6993 -1.5223  0.0937
  188SLPC  H14Y21755   3.144   1.112   8.159  1.6087 -3.4161  0.3460
  188SLPC  C31521756   3.239   1.303   8.228  0.3464 -0.6953 -0.1401
  188SLPC  H15X21757   3.144   1.360   8.242  1.6055  1.4798 -0.0059
  188SLPC  H15Y21758   3.326   1.371   8.212  2.0312 -2.2354  1.8951
  188SLPC  C31621759   3.264   1.261   8.371  0.2361  0.2890 -0.0797
  188SLPC  H16X21760   3.340   1.181   8.363 -0.0616 -0.0397  0.3667
  188SLPC  H16Y21761   3.170   1.232   8.422 -0.8930  1.0842 -1.6290
  188SLPC  C31721762   3.321   1.379   8.453 -0.1220  0.2395 -0.0033
  188SLPC  H17X21763   3.236   1.450   8.453  0.0813  0.4884 -0.8863
  188SLPC  H17Y21764   3.405   1.430   8.402 -0.9282  0.2477 -1.3725
  188SLPC  C31821765   3.358   1.331   8.588 -1.0401 -0.2467  0.6851
  188SLPC  H18X21766   3.375   1.426   8.642  1.2248  0.1852 -0.6652
  188SLPC  H18Y21767   3.450   1.270   8.579 -0.3031  0.8642  0.5481
  188SLPC  H18Z21768   3.283   1.270   8.643 -0.3979  1.3711  3.5560
  189SLPC     N21769   5.999   1.959   6.095 -0.6058 -0.3542 -0.5264
  189SLPC   C1321770   6.113   1.915   6.006 -0.0908  0.6197 -0.9673
  189SLPC  H13A21771   6.202   1.906   6.065 -0.3737  1.5999 -0.3688
  189SLPC  H13B21772   6.090   1.814   5.976 -2.4258  1.0960 -0.9664
  189SLPC  H13C21773   6.132   1.989   5.929  1.8716  0.7947 -0.3721
  189SLPC   C1421774   5.877   1.990   6.013 -0.1820 -0.0205 -0.3025
  189SLPC  H14A21775   5.900   2.066   5.940  0.4568  0.0547 -0.0269
  189SLPC  H14B21776   5.852   1.899   5.959 -0.5069  0.2053 -0.5409
  189SLPC  H14C21777   5.783   2.017   6.060 -1.5961 -1.5238 -2.0591
  189SLPC   C1521778   6.044   2.082   6.159 -0.0749 -0.0652 -0.4762
  189SLPC  H15A21779   6.073   2.150   6.079  0.3961 -2.1681 -2.1752
  189SLPC  H15B21780   5.975   2.125   6.230  0.9137  0.8962 -0.0725
  189SLPC  H15C21781   6.138   2.068   6.211 -0.3954 -1.0879 -0.1683
  189SLPC   C1221782   5.961   1.864   6.197 -0.6056  0.3308  0.4808
  189SLPC  H12A21783   5.878   1.906   6.252 -1.6456 -1.4618  0.3874
  189SLPC  H12B21784   6.043   1.849   6.265 -0.1354 -1.6304 -0.4375
  189SLPC   C1121785   5.909   1.721   6.156  0.3414  0.5766  0.4733
  189SLPC  H11A21786   5.828   1.731   6.080  1.6532 -2.0101 -1.4417
  189SLPC  H11B21787   5.870   1.671   6.247 -0.0578 -1.1470 -0.5793
  189SLPC     P21788   6.124   1.555   6.162 -0.1661 -0.3487  0.1578
  189SLPC   O1321789   6.099   1.417   6.108  0.3776 -0.1936 -0.7942
  189SLPC   O1421790   6.263   1.599   6.129 -0.0041  0.0685  0.0990
  189SLPC   O1221791   6.010   1.643   6.097 -0.2838  0.1530  0.6561
  189SLPC   O1121792   6.097   1.566   6.318 -0.4427  0.0213 -0.3542
  189SLPC    C121793   6.006   1.480   6.381 -0.3650 -1.2831 -0.7725
  189SLPC    HA21794   5.930   1.546   6.427  2.5635  1.9146 -0.0778
  189SLPC    HB21795   5.955   1.411   6.311 -3.0195 -2.6285  2.2526
  189SLPC    C221796   6.069   1.396   6.491 -0.4413 -0.1540 -0.0994
  189SLPC    HS21797   5.982   1.345   6.538 -0.1049  0.4829  1.2495
  189SLPC   O2121798   6.136   1.475   6.587  1.0033  0.0826  0.6582
  189SLPC   C2121799   6.066   1.534   6.687  0.4115  0.3545  0.7860
  189SLPC   O2221800   5.944   1.523   6.701 -0.0217  0.0279  0.0020
  189SLPC   C2221801   6.169   1.612   6.774 -0.0599 -0.8842 -0.4340
  189SLPC   H2R21802   6.266   1.558   6.770 -0.0355 -0.7688 -1.6125
  189SLPC   H2S21803   6.184   1.708   6.721 -0.1744 -1.6685 -1.9321
  189SLPC    C321804   6.158   1.285   6.426  0.3559  0.8688 -0.5003
  189SLPC    HX21805   6.249   1.318   6.371  2.9013  2.1993  4.0190
  189SLPC    HY21806   6.103   1.228   6.348 -0.5663 -0.8432  1.3103
  189SLPC   O3121807   6.179   1.189   6.532 -0.4032 -0.5578 -0.3089
  189SLPC   C3121808   6.289   1.188   6.600 -0.6493 -0.2194  0.5445
  189SLPC   O3221809   6.395   1.244   6.571 -0.0268  0.5999  0.4129
  189SLPC   C3221810   6.265   1.102   6.725 -0.2610 -0.8743  0.1803
  189SLPC   H2X21811   6.360   1.083   6.779  0.6865  0.5861 -0.8933
  189SLPC   H2Y21812   6.232   1.001   6.693 -0.6021 -0.3928 -1.0428
  189SLPC   C2321813   6.121   1.629   6.918 -0.6538  0.4454 -0.4657
  189SLPC   H3R21814   6.013   1.658   6.921 -0.4092  1.4451 -1.0100
  189SLPC   H3S21815   6.174   1.717   6.959 -0.3525 -0.3213  0.8236
  189SLPC   C2421816   6.149   1.515   7.018 -1.1798  0.0924  0.5057
  189SLPC   H4R21817   6.259   1.506   7.032 -0.9068  1.0080 -0.8947
  189SLPC   H4S21818   6.101   1.418   6.990  0.2519 -0.3066 -0.7028
  189SLPC   C2521819   6.096   1.559   7.152 -0.0851 -0.4961 -0.2138
  189SLPC   H5R21820   5.985   1.573   7.155 -0.3562 -1.6574 -2.5090
  189SLPC   H5S21821   6.134   1.660   7.176 -1.1382 -0.9589  4.2514
  189SLPC   C2621822   6.122   1.473   7.286 -0.3116  0.2861  0.4113
  189SLPC   H6R21823   6.231   1.453   7.283 -0.6464 -1.8270 -2.2133
  189SLPC   H6S21824   6.064   1.379   7.272 -0.3854  0.3114  0.5448
  189SLPC   C2721825   6.079   1.538   7.412 -1.0377 -0.8854 -0.4692
  189SLPC   H7R21826   5.970   1.561   7.412 -1.4890 -2.5903  1.7423
  189SLPC   H7S21827   6.132   1.633   7.433  1.0726 -1.7581 -1.6031
  189SLPC   C2821828   6.080   1.444   7.536  0.1649 -0.4516  0.3366
  189SLPC   H8R21829   6.013   1.360   7.506  0.6698 -1.7930  2.7448
  189SLPC   H8S21830   6.011   1.489   7.611  0.6754  2.2205 -0.6559
  189SLPC   C2921831   6.208   1.392   7.597  0.2209  0.3520  0.4789
  189SLPC   H9R21832   6.269   1.333   7.526 -0.5210  1.0552 -0.7802
  189SLPC  C21021833   6.249   1.415   7.724  0.1427  0.8694 -0.5034
  189SLPC  H10R21834   6.348   1.376   7.753 -0.1111  1.2137  0.8795
  189SLPC  C21121835   6.178   1.497   7.829 -0.6115 -0.3950 -0.6048
  189SLPC  H11R21836   6.091   1.439   7.867 -1.6826  1.3712 -0.3031
  189SLPC  H11S21837   6.143   1.589   7.779  1.6982  0.5145 -0.6763
  189SLPC  C21221838   6.262   1.546   7.947 -0.9585  0.4225  0.2632
  189SLPC  H12R21839   6.296   1.650   7.946 -1.5672  0.9335  5.0820
  189SLPC  C21321840   6.307   1.470   8.045 -0.4879  0.0091 -0.4006
  189SLPC  H13R21841   6.362   1.514   8.129  0.6098 -2.0185  0.0279
  189SLPC  C21421842   6.282   1.326   8.078 -0.0539  0.6001 -0.7182
  189SLPC  H14R21843   6.365   1.262   8.039 -0.3148 -0.4920  0.4575
  189SLPC  H14S21844   6.184   1.294   8.037 -0.1347  1.3956 -1.1740
  189SLPC  C21521845   6.275   1.279   8.225  0.0085  0.2167 -0.7082
  189SLPC  H15R21846   6.220   1.183   8.229 -1.3202  0.8771 -1.8974
  189SLPC  H15S21847   6.212   1.357   8.272  1.2161  0.9754 -0.2973
  189SLPC  C21621848   6.411   1.277   8.295  0.8391  0.3397  0.1521
  189SLPC  H16R21849   6.463   1.371   8.266  0.7052  1.1086  2.2398
  189SLPC  H16S21850   6.476   1.194   8.260  0.6915 -0.6004  1.9722
  189SLPC  C21721851   6.388   1.275   8.452 -0.4646 -0.1836  1.0428
  189SLPC  H17R21852   6.369   1.171   8.488 -0.5558  0.0640  1.7324
  189SLPC  H17S21853   6.303   1.343   8.475 -1.1096  0.1949 -2.0286
  189SLPC  C21821854   6.508   1.320   8.530  0.3324  0.1103  0.0630
  189SLPC  H18R21855   6.500   1.290   8.637 -0.9428  1.3833  0.3655
  189SLPC  H18S21856   6.525   1.429   8.518  0.7291 -0.1074 -1.6923
  189SLPC  H18T21857   6.602   1.271   8.498  0.6601 -0.9196  2.3908
  189SLPC   C3321858   6.154   1.161   6.812  0.5100 -0.1073  0.4669
  189SLPC   H3X21859   6.056   1.160   6.758  0.2409 -0.3045  0.9523
  189SLPC   H3Y21860   6.169   1.268   6.834  0.2957  0.1417 -0.5308
  189SLPC   C3421861   6.146   1.072   6.934 -0.2986 -0.1232  0.1024
  189SLPC   H4X21862   6.128   0.965   6.911  1.4147 -0.1899 -1.1655
  189SLPC   H4Y21863   6.049   1.101   6.978 -0.6929 -0.6915 -0.3798
  189SLPC   C3521864   6.250   1.091   7.038  0.7087  0.9348 -0.8019
  189SLPC   H5X21865   6.271   1.199   7.055  1.5083  0.5236  1.2085
  189SLPC   H5Y21866   6.345   1.041   7.008  0.1589 -0.5470 -0.1577
  189SLPC   C3621867   6.203   1.024   7.174  0.1465 -0.7173  1.3759
  189SLPC   H6X21868   6.176   0.918   7.153 -3.4900  0.5360 -1.4663
  189SLPC   H6Y21869   6.100   1.050   7.207 -1.4004 -3.5018 -0.8199
  189SLPC   C3721870   6.300   1.033   7.289 -0.6830 -0.0404 -0.1752
  189SLPC   H7X21871   6.331   1.139   7.308 -1.1716  0.2504 -0.9645
  189SLPC   H7Y21872   6.398   0.984   7.269 -0.6312  0.4152 -1.0953
  189SLPC   C3821873   6.238   0.986   7.425  0.6978  0.3435 -0.1481
  189SLPC   H8X21874   6.208   0.879   7.429  1.8123  0.0318  0.1498
  189SLPC   H8Y21875   6.150   1.046   7.458  1.0240  0.7633 -0.0342
  189SLPC   C3921876   6.342   0.997   7.536  0.3149  0.5860  0.4199
  189SLPC   H9X21877   6.383   1.100   7.538 -0.1459  0.8263 -1.3291
  189SLPC   H9Y21878   6.419   0.922   7.509  1.4288  0.3587  3.7111
  189SLPC  C31021879   6.285   0.960   7.676 -0.9849  0.4731 -0.1132
  189SLPC  H10X21880   6.232   0.862   7.672 -0.2544  0.0298  0.7059
  189SLPC  H10Y21881   6.206   1.035   7.701 -0.9670  0.7274 -0.8095
  189SLPC  C31121882   6.401   0.966   7.785  0.2529 -0.0804  0.3299
  189SLPC  H11X21883   6.451   1.065   7.785 -1.4248  0.8053  0.1065
  189SLPC  H11Y21884   6.478   0.894   7.747 -0.2862  0.0326 -1.0380
  189SLPC  C31221885   6.344   0.927   7.928  0.2094 -0.3370  0.2770
  189SLPC  H12X21886   6.279   0.837   7.936 -0.0899 -0.0422  1.2928
  189SLPC  H12Y21887   6.283   1.017   7.950  0.9370  0.4122 -0.7365
  189SLPC  C31321888   6.461   0.912   8.024  0.7102  0.2419 -0.4732
  189SLPC  H13X21889   6.519   1.007   8.031  1.1276  0.1443 -2.1374
  189SLPC  H13Y21890   6.528   0.831   7.987  0.4403  0.0745 -0.5982
  189SLPC  C31421891   6.423   0.893   8.168 -0.3375 -0.2551 -0.3340
  189SLPC  H14X21892   6.378   0.792   8.181 -0.2643 -0.0367  2.1192
  189SLPC  H14Y21893   6.351   0.969   8.208  0.2556  0.3889 -0.4744
  189SLPC  C31521894   6.551   0.896   8.256  0.1700 -0.3589 -0.3310
  189SLPC  H15X21895   6.615   0.977   8.216  3.4643 -2.1698  0.8536
  189SLPC  H15Y21896   6.612   0.806   8.234 -0.0900 -0.7780  0.5727
  189SLPC  C31621897   6.526   0.914   8.409  0.3652 -0.1441  0.2124
  189SLPC  H16X21898   6.450   0.842   8.445  0.9422 -0.5488  0.6364
  189SLPC  H16Y21899   6.491   1.020   8.411  1.2280  0.3416 -3.5970
  189SLPC  C31721900   6.662   0.900   8.487 -0.2652 -0.9383 -0.6332
  189SLPC  H17X21901   6.734   0.980   8.459 -0.9265 -0.0894  0.0452
  189SLPC  H17Y21902   6.715   0.806   8.462  0.7264 -0.2891 -1.0421
  189SLPC  C31821903   6.656   0.908   8.640  0.3674 -0.1795  0.7496
  189SLPC  H18X21904   6.611   0.810   8.669  2.0520 -1.2319 -0.0577
  189SLPC  H18Y21905   6.578   0.983   8.666 -0.3723  1.2247 -4.3890
  189SLPC  H18Z21906   6.760   0.924   8.676  0.6425  1.5534 -0.6905
  190SLPC     N21907   1.233   6.241   6.431 -1.3679  1.1823 -0.1780
  190SLPC   C1321908   1.275   6.264   6.289  0.3416  0.3411 -0.6055
  190SLPC  H13A21909   1.344   6.183   6.271 -0.6566 -0.4198 -1.0370
  190SLPC  H13B21910   1.197   6.241   6.219 -0.6668 -1.9615  1.1428
  190SLPC  H13C21911   1.311   6.362   6.261  0.3235  0.3411 -0.6288
  190SLPC   C1421912   1.122   6.338   6.457 -0.0651 -0.1764  0.1619
  190SLPC  H14A21913   1.148   6.438   6.426 -0.5280 -0.2093 -0.3554
  190SLPC  H14B21914   1.033   6.305   6.406  0.4935 -0.3084 -0.7545
  190SLPC  H14C21915   1.086   6.330   6.558 -2.7830 -1.8138 -0.8399
  190SLPC   C1521916   1.346   6.269   6.533  0.1081  0.4070  0.4031
  190SLPC  H15A21917   1.421   6.195   6.512 -0.7217 -0.3510  0.0271
  190SLPC  H15B21918   1.390   6.367   6.524  1.8836 -0.4386 -0.7492
  190SLPC  H15C21919   1.309   6.257   6.634  1.7191  1.1592  1.1150
  190SLPC   C1221920   1.172   6.101   6.440 -0.2228  0.2549  0.4522
  190SLPC  H12A21921   1.112   6.084   6.352  0.9670  0.0577 -0.3407
  190SLPC  H12B21922   1.109   6.090   6.528  0.0338 -1.8668  0.4263
  190SLPC   C1121923   1.274   5.981   6.449  0.4429 -1.3610  0.3033
  190SLPC  H11A21924   1.208   5.892   6.442 -0.1953 -0.7965 -1.4600
  190SLPC  H11B21925   1.323   6.001   6.547  1.0104  0.9698 -0.3789
  190SLPC     P21926   1.518   6.010   6.339 -0.4181 -0.0679  0.3526
  190SLPC   O1321927   1.596   5.888   6.306 -0.3134  0.6862 -0.3305
  190SLPC   O1421928   1.542   6.133   6.259  0.3720 -0.2673  0.6289
  190SLPC   O1221929   1.368   5.970   6.333  0.7608  0.3776 -0.1129
  190SLPC   O1121930   1.545   6.047   6.485  0.3226  0.6388 -0.4235
  190SLPC    C121931   1.676   6.071   6.532  0.1963  0.1360  0.5247
  190SLPC    HA21932   1.723   5.971   6.545  0.1188  0.3551  2.9728
  190SLPC    HB21933   1.729   6.138   6.462 -1.7817  0.0721 -1.1087
  190SLPC    C221934   1.674   6.143   6.672 -0.3968 -0.7961 -1.0675
  190SLPC    HS21935   1.755   6.100   6.734 -1.6903  0.2887  1.5170
  190SLPC   O2121936   1.557   6.120   6.744  0.3982  0.2783  0.1573
  190SLPC   C2121937   1.540   5.994   6.785  0.9038 -0.5693  0.0068
  190SLPC   O2221938   1.616   5.904   6.782 -0.2563  0.5103  0.1541
  190SLPC   C2221939   1.392   5.976   6.834 -0.4520 -0.6410  0.4064
  190SLPC   H2R21940   1.381   6.063   6.902  0.0926  0.3080 -0.6841
  190SLPC   H2S21941   1.318   5.997   6.754 -1.4711  0.5178  1.6088
  190SLPC    C321942   1.698   6.297   6.650  1.0443  0.1186  0.0118
  190SLPC    HX21943   1.601   6.339   6.616 -0.5276 -3.4172 -0.3041
  190SLPC    HY21944   1.772   6.322   6.572  1.7315 -0.2060  0.5418
  190SLPC   O3121945   1.741   6.359   6.772  0.0675  0.5045  0.3157
  190SLPC   C3121946   1.875   6.369   6.788 -0.3175  0.1144  0.4612
  190SLPC   O3221947   1.962   6.308   6.732 -0.8128  0.5738 -0.0175
  190SLPC   C3221948   1.904   6.456   6.908 -0.5790 -0.4953  0.3217
  190SLPC   H2X21949   1.808   6.475   6.961  0.0859 -1.7565  2.0837
  190SLPC   H2Y21950   1.942   6.549   6.861  2.4042 -2.0493 -0.5428
  190SLPC   C2321951   1.366   5.845   6.906  0.2391 -0.5265 -0.1736
  190SLPC   H3R21952   1.408   5.759   6.851  0.6879 -1.0838  0.9999
  190SLPC   H3S21953   1.256   5.834   6.914  0.3803 -0.6881  2.9467
  190SLPC   C2421954   1.433   5.843   7.045  0.5443  0.4759 -0.5093
  190SLPC   H4R21955   1.537   5.877   7.022  0.3026  1.6872  0.0978
  190SLPC   H4S21956   1.427   5.741   7.090 -0.9180  0.3904 -0.8520
  190SLPC   C2521957   1.363   5.934   7.148  0.0330 -0.5161  0.0069
  190SLPC   H5R21958   1.258   5.904   7.132 -0.3055  0.7969 -0.3710
  190SLPC   H5S21959   1.381   6.039   7.118 -1.6880  0.2916  1.5923
  190SLPC   C2621960   1.392   5.917   7.298 -0.4459 -0.2230 -0.6067
  190SLPC   H6R21961   1.330   5.979   7.366 -3.4127 -1.3626 -2.1246
  190SLPC   H6S21962   1.502   5.930   7.308 -0.4387 -0.3231 -0.5592
  190SLPC   C2721963   1.365   5.774   7.353 -0.0122  0.0722  0.7814
  190SLPC   H7R21964   1.357   5.697   7.273  0.0862  0.0264  0.8157
  190SLPC   H7S21965   1.263   5.784   7.397  0.5543 -0.0427  2.1555
  190SLPC   C2821966   1.470   5.738   7.454  0.0516  0.0827 -0.2269
  190SLPC   H8R21967   1.496   5.826   7.516  0.1341  0.3936 -0.6937
  190SLPC   H8S21968   1.568   5.715   7.405  0.7183  0.2069  1.0015
  190SLPC   C2921969   1.419   5.630   7.547  0.0709  0.2095 -0.3673
  190SLPC   H9R21970   1.420   5.535   7.492  0.3127 -0.2402  0.4042
  190SLPC  C21021971   1.378   5.642   7.678  0.0643  0.4758  0.3720
  190SLPC  H10R21972   1.346   5.553   7.734  2.4912 -0.9241 -0.3299
  190SLPC  C21121973   1.371   5.775   7.752  0.0463 -0.0989  0.1661
  190SLPC  H11R21974   1.267   5.807   7.769  0.5821  2.8940 -1.5893
  190SLPC  H11S21975   1.409   5.867   7.703 -1.4981  2.2916  3.1076
  190SLPC  C21221976   1.432   5.777   7.888 -0.6607 -0.0718 -0.2584
  190SLPC  H12R21977   1.503   5.861   7.882 -1.9630  1.0820  0.0484
  190SLPC  C21321978   1.399   5.714   8.010 -0.5075  0.3372  0.4718
  190SLPC  H13R21979   1.453   5.738   8.103 -0.6297 -1.4428  1.0250
  190SLPC  C21421980   1.283   5.619   8.036  0.0213 -0.5287 -0.8359
  190SLPC  H14R21981   1.211   5.657   7.961 -0.2868 -1.5202 -1.0531
  190SLPC  H14S21982   1.242   5.642   8.137  0.6753 -1.4632 -0.3359
  190SLPC  C21521983   1.320   5.472   8.043  0.1890  1.0280  0.7282
  190SLPC  H15R21984   1.379   5.438   7.955 -0.9103  1.3999 -0.1748
  190SLPC  H15S21985   1.228   5.410   8.043  1.5177 -1.1514 -1.6802
  190SLPC  C21621986   1.420   5.438   8.158  0.0559 -0.2875  0.4653
  190SLPC  H16R21987   1.372   5.452   8.258  1.1771  0.1931  0.9470
  190SLPC  H16S21988   1.490   5.524   8.163  2.0334 -1.7853 -0.4212
  190SLPC  C21721989   1.484   5.297   8.154  0.0527  0.1184 -0.2273
  190SLPC  H17R21990   1.563   5.295   8.233  1.6913  2.9360 -1.6231
  190SLPC  H17S21991   1.541   5.282   8.060  1.3162 -2.2898  0.8320
  190SLPC  C21821992   1.396   5.172   8.159  0.5106  0.1438  0.3374
  190SLPC  H18R21993   1.466   5.087   8.139  0.6517 -0.3239  2.5449
  190SLPC  H18S21994   1.311   5.175   8.088  1.4130 -1.3087 -0.8673
  190SLPC  H18T21995   1.362   5.165   8.265  0.3041  2.5162  0.4852
  190SLPC   C3321996   2.000   6.393   7.013  0.0177  0.1682 -0.2252
  190SLPC   H3X21997   2.109   6.408   6.997  0.0029 -1.4105 -2.2387
  190SLPC   H3Y21998   1.989   6.283   7.015 -0.2604  0.2035  0.2253
  190SLPC   C3421999   1.956   6.439   7.157  1.0139 -0.0711  0.2243
  190SLPC   H4X22000   1.846   6.423   7.157  0.7515  1.4054 -1.5774
  190SLPC   H4Y22001   1.963   6.549   7.168 -0.1754  0.1129 -0.6331
  190SLPC   C3522002   2.024   6.363   7.266  0.5319 -0.3222 -0.1815
  190SLPC   H5X22003   2.133   6.379   7.256  0.6406 -0.1728  1.1430
  190SLPC   H5Y22004   2.010   6.253   7.252  1.0062 -0.4520  0.3188
  190SLPC   C3622005   1.963   6.406   7.403 -0.0725 -0.6016  0.7384
  190SLPC   H6X22006   1.854   6.388   7.394  0.1119 -0.6359 -2.3649
  190SLPC   H6Y22007   1.974   6.516   7.405 -3.2549 -0.1657 -0.8051
  190SLPC   C3722008   2.024   6.319   7.516  0.5714  0.3129 -0.4162
  190SLPC   H7X22009   2.130   6.352   7.516  0.6925 -0.0555  0.4189
  190SLPC   H7Y22010   2.026   6.209   7.495 -0.3936 -0.1555  1.6786
  190SLPC   C3822011   1.966   6.344   7.656  0.5702 -1.2538 -0.7208
  190SLPC   H8X22012   1.856   6.336   7.659  0.2212  2.0607 -0.4687
  190SLPC   H8Y22013   1.980   6.451   7.683 -2.6732 -0.6502 -1.1277
  190SLPC   C3922014   2.028   6.255   7.761 -0.0086  0.3628 -0.2240
  190SLPC   H9X22015   2.139   6.250   7.753 -0.1315 -3.3860 -1.4155
  190SLPC   H9Y22016   1.997   6.152   7.732 -0.3275  0.4175 -0.0760
  190SLPC  C31022017   1.977   6.291   7.904 -0.0880 -0.1163  0.2303
  190SLPC  H10X22018   1.866   6.284   7.907 -0.1338 -0.2641 -1.2645
  190SLPC  H10Y22019   1.994   6.399   7.926  1.1897  0.3012 -2.3991
  190SLPC  C31122020   2.041   6.206   8.017 -0.1993 -0.0080 -0.1976
  190SLPC  H11X22021   2.150   6.225   8.027 -0.2800 -0.1658  1.1869
  190SLPC  H11Y22022   2.030   6.103   7.977 -0.9995  0.4056 -1.0873
  190SLPC  C31222023   1.969   6.226   8.156  0.0027  0.8206 -0.1447
  190SLPC  H12X22024   1.862   6.209   8.131 -0.0564 -2.0410  1.6196
  190SLPC  H12Y22025   1.992   6.329   8.190  1.2671  0.1130  1.2289
  190SLPC  C31322026   1.992   6.117   8.261 -0.5468 -0.3412  0.3921
  190SLPC  H13X22027   1.956   6.021   8.219 -1.9968  0.2315  0.2762
  190SLPC  H13Y22028   1.931   6.141   8.351  0.1126 -0.5621  0.9086
  190SLPC  C31422029   2.135   6.093   8.317 -0.2456 -0.7172  0.2769
  190SLPC  H14X22030   2.214   6.071   8.242  1.3648  0.2315  1.6487
  190SLPC  H14Y22031   2.143   6.007   8.386  0.1991  0.1553  1.3283
  190SLPC  C31522032   2.191   6.217   8.391 -0.2803  0.1126  0.3837
  190SLPC  H15X22033   2.114   6.262   8.456 -1.7777 -0.0019 -1.2381
  190SLPC  H15Y22034   2.216   6.294   8.315  2.1818 -0.7343  0.2139
  190SLPC  C31622035   2.325   6.193   8.467  0.3698 -0.0346  0.0053
  190SLPC  H16X22036   2.414   6.170   8.406 -0.0482 -2.0628  0.0938
  190SLPC  H16Y22037   2.312   6.113   8.543  0.3787 -0.3617 -0.3357
  190SLPC  C31722038   2.364   6.314   8.561  0.4421  0.5223  0.2069
  190SLPC  H17X22039   2.378   6.407   8.501 -2.7210  1.5869  0.9633
  190SLPC  H17Y22040   2.460   6.291   8.613  0.9520  1.5023 -0.2556
  190SLPC  C31822041   2.265   6.343   8.668  0.5612 -0.5452  0.3307
  190SLPC  H18X22042   2.159   6.353   8.638  1.0955  0.6345 -1.3415
  190SLPC  H18Y22043   2.276   6.444   8.714 -0.0806  0.3249 -1.3406
  190SLPC  H18Z22044   2.275   6.278   8.757 -0.9085 -1.6271 -0.2421
  191SLPC     N22045   3.810   5.817   5.643  0.0758 -0.5164  0.7328
  191SLPC   C1322046   3.723   5.932   5.689 -0.7692 -0.9399  0.1601
  191SLPC  H13A22047   3.719   5.908   5.794 -2.4091 -2.0978 -0.1362
  191SLPC  H13B22048   3.781   6.022   5.673  1.3094 -1.9222  1.6436
  191SLPC  H13C22049   3.621   5.938   5.653 -0.4931 -0.4859 -0.5764
  191SLPC   C1422050   3.947   5.832   5.679  0.0984 -0.5810  0.0877
  191SLPC  H14A22051   3.964   5.840   5.785  1.9071  2.5874 -0.3117
  191SLPC  H14B22052   4.007   5.750   5.642  1.0633  0.6127 -1.0714
  191SLPC  H14C22053   3.995   5.917   5.632 -0.2010  0.5733  1.8041
  191SLPC   C1522054   3.800   5.802   5.488  0.4444  0.3412 -0.3626
  191SLPC  H15A22055   3.842   5.893   5.447  0.1248 -0.2093 -1.9874
  191SLPC  H15B22056   3.867   5.724   5.453 -1.5604 -0.8709 -1.7353
  191SLPC  H15C22057   3.700   5.791   5.450  0.7559  0.4425 -1.2376
  191SLPC   C1222058   3.767   5.686   5.710 -0.0052 -0.0035  0.5713
  191SLPC  H12A22059   3.819   5.598   5.675 -1.3447 -1.4886  2.1541
  191SLPC  H12B22060   3.667   5.664   5.675 -0.0606  0.1298  0.6458
  191SLPC   C1122061   3.775   5.681   5.862 -0.0915 -0.3720  0.4277
  191SLPC  H11A22062   3.883   5.705   5.873  0.5203 -1.6606 -2.1067
  191SLPC  H11B22063   3.765   5.577   5.899  1.3936 -0.3360  1.0344
  191SLPC     P22064   3.714   5.782   6.090  0.1623 -0.0752 -0.3384
  191SLPC   O1322065   3.831   5.880   6.116  0.1666  0.0622 -0.1517
  191SLPC   O1422066   3.584   5.820   6.149  0.5359  0.6126 -0.3540
  191SLPC   O1222067   3.694   5.777   5.928 -0.1109 -0.3471 -0.2430
  191SLPC   O1122068   3.758   5.636   6.122 -0.1653  0.6276 -0.3041
  191SLPC    C122069   3.862   5.607   6.225 -0.2563  0.0323 -0.8926
  191SLPC    HA22070   3.946   5.551   6.178 -1.8775 -2.8223 -0.5832
  191SLPC    HB22071   3.911   5.699   6.265 -0.9270  0.1222 -0.2530
  191SLPC    C222072   3.797   5.524   6.338  0.1409  0.5750 -1.1525
  191SLPC    HS22073   3.728   5.591   6.393 -0.4058 -0.3248 -0.7220
  191SLPC   O2122074   3.900   5.465   6.425  0.2482  0.5235  0.7636
  191SLPC   C2122075   3.948   5.560   6.505  0.3245 -0.0754 -0.6031
  191SLPC   O2222076   3.903   5.674   6.515  0.4657  0.2903 -0.3712
  191SLPC   C2222077   4.082   5.506   6.572  0.8683 -0.2136  0.4339
  191SLPC   H2R22078   4.069   5.400   6.604 -0.4218 -0.3187 -0.3457
  191SLPC   H2S22079   4.166   5.510   6.499  1.0251  3.2466  0.6233
  191SLPC    C322080   3.700   5.413   6.283 -0.8462  0.8533 -0.2852
  191SLPC    HX22081   3.785   5.347   6.255 -1.1858 -1.5535  3.6808
  191SLPC    HY22082   3.636   5.460   6.205  0.6144  1.7840 -0.9906
  191SLPC   O3122083   3.624   5.341   6.388  0.5646 -0.0185  0.0644
  191SLPC   C3122084   3.502   5.293   6.350  0.2964 -0.1145 -0.1848
  191SLPC   O3222085   3.448   5.327   6.250 -0.3659  0.2436 -0.1526
  191SLPC   C3222086   3.463   5.189   6.456  0.1996  0.5146 -0.3387
  191SLPC   H2X22087   3.456   5.254   6.545  0.1433 -0.9123  0.7276
  191SLPC   H2Y22088   3.550   5.120   6.449  0.5764  1.0150 -0.7443
  191SLPC   C2322089   4.128   5.578   6.703  0.5596 -0.1682  0.4697
  191SLPC   H3R22090   4.130   5.687   6.683 -0.2294 -0.0697  0.8765
  191SLPC   H3S22091   4.230   5.551   6.736  1.7113  2.7140 -0.4258
  191SLPC   C2422092   4.034   5.550   6.812 -0.1623  0.4204 -0.3849
  191SLPC   H4R22093   4.030   5.441   6.837 -1.7152 -0.0290 -2.3002
  191SLPC   H4S22094   3.928   5.567   6.785 -0.7605 -1.1530  0.7669
  191SLPC   C2522095   4.075   5.608   6.944  0.0817  0.1006  0.6200
  191SLPC   H5R22096   4.074   5.719   6.939 -3.3391  0.1612 -0.1358
  191SLPC   H5S22097   4.172   5.563   6.974  1.5175  2.0099 -0.8753
  191SLPC   C2622098   3.966   5.576   7.046 -0.6475 -0.0985 -0.1311
  191SLPC   H6R22099   3.938   5.469   7.047  0.0057 -0.2743  0.2251
  191SLPC   H6S22100   3.871   5.627   7.019  0.3734  2.2782  0.4717
  191SLPC   C2722101   4.017   5.614   7.188  0.4383 -0.2823  0.0422
  191SLPC   H7R22102   4.012   5.725   7.196 -0.6980 -0.1161 -2.0395
  191SLPC   H7S22103   4.114   5.563   7.204 -0.3878 -1.8764  0.1149
  191SLPC   C2822104   3.929   5.565   7.312  0.1143 -0.1891  0.1583
  191SLPC   H8R22105   3.991   5.590   7.401  0.9803 -2.0422  0.1300
  191SLPC   H8S22106   3.916   5.456   7.299  0.8309  0.0125 -2.8279
  191SLPC   C2922107   3.796   5.636   7.316  0.3423 -0.7489  0.2681
  191SLPC   H9R22108   3.759   5.670   7.218  0.7381 -2.5797 -0.5607
  191SLPC  C21022109   3.731   5.663   7.423  0.4117  0.0838 -0.0607
  191SLPC  H10R22110   3.633   5.712   7.415  0.1048 -0.2270  1.4463
  191SLPC  C21122111   3.773   5.629   7.565  0.0778 -0.4489  0.0849
  191SLPC  H11R22112   3.866   5.686   7.587 -0.4173  0.9246 -1.2209
  191SLPC  H11S22113   3.816   5.526   7.560 -1.0707 -0.9014 -1.0880
  191SLPC  C21222114   3.666   5.648   7.670  0.1270  0.4599 -0.8351
  191SLPC  H12R22115   3.610   5.555   7.687  0.5588  0.4089  0.4815
  191SLPC  C21322116   3.639   5.763   7.731 -0.2401 -0.8223  0.2194
  191SLPC  H13R22117   3.566   5.774   7.812  0.8539 -0.7534  1.2196
  191SLPC  C21422118   3.709   5.896   7.712  0.3250 -0.2214  0.5396
  191SLPC  H14R22119   3.628   5.965   7.680 -1.0456 -2.8558 -2.2318
  191SLPC  H14S22120   3.768   5.905   7.618  2.0012 -0.9065  1.4892
  191SLPC  C21522121   3.799   5.943   7.833 -0.0283 -0.1847  0.5638
  191SLPC  H15R22122   3.727   5.979   7.909 -0.6089  3.1085 -1.3419
  191SLPC  H15S22123   3.850   6.031   7.788  0.7033 -0.9560 -0.1446
  191SLPC  C21622124   3.901   5.835   7.873 -0.4634  0.2634  0.5499
  191SLPC  H16R22125   3.957   5.800   7.784 -0.7631  0.3106  0.3416
  191SLPC  H16S22126   3.852   5.748   7.921 -1.4770  0.2169 -0.5091
  191SLPC  C21722127   4.014   5.881   7.963 -0.0878  0.3880 -0.3752
  191SLPC  H17R22128   3.985   5.956   8.041  0.9492  1.5070 -1.0288
  191SLPC  H17S22129   4.094   5.918   7.896  1.6189 -2.8971 -0.3167
  191SLPC  C21822130   4.073   5.763   8.045  0.2201  0.0637 -0.7842
  191SLPC  H18R22131   3.999   5.708   8.107  0.0161  1.6766  0.4957
  191SLPC  H18S22132   4.154   5.804   8.110  0.2705  4.1312 -3.0458
  191SLPC  H18T22133   4.121   5.681   7.988  0.0964 -0.3699 -0.2737
  191SLPC   C3322134   3.334   5.111   6.412 -0.1194  0.5312  0.3557
  191SLPC   H3X22135   3.357   5.083   6.307 -1.6912  0.8781 -0.0990
  191SLPC   H3Y22136   3.243   5.173   6.400 -1.3926 -1.4193 -0.4166
  191SLPC   C3422137   3.300   4.985   6.488 -0.8673  0.1162  0.5524
  191SLPC   H4X22138   3.386   4.915   6.484 -0.0494  1.1627 -0.5615
  191SLPC   H4Y22139   3.208   4.939   6.445 -0.1810 -1.7278  0.9592
  191SLPC   C3522140   3.265   5.027   6.637 -0.0677  0.0883 -0.0009
  191SLPC   H5X22141   3.193   5.111   6.630  0.0495  0.2643  0.8440
  191SLPC   H5Y22142   3.346   5.076   6.694  0.9145  0.7527 -1.8971
  191SLPC   C3622143   3.197   4.916   6.705 -0.2007  0.8567 -0.6717
  191SLPC   H6X22144   3.267   4.830   6.702 -1.1662  0.0788 -3.3614
  191SLPC   H6Y22145   3.115   4.885   6.638 -0.1721 -1.2567  0.1759
  191SLPC   C3722146   3.157   4.935   6.855  0.0750 -0.6778 -0.2270
  191SLPC   H7X22147   3.069   4.872   6.882 -1.1956  0.0609 -2.3624
  191SLPC   H7Y22148   3.130   5.041   6.874 -0.8754 -0.9013 -0.2395
  191SLPC   C3822149   3.261   4.895   6.956  0.1253 -0.2859 -0.5202
  191SLPC   H8X22150   3.352   4.959   6.946  0.2577 -0.5638 -1.1387
  191SLPC   H8Y22151   3.277   4.786   6.949 -1.2918 -0.4979 -0.7552
  191SLPC   C3922152   3.211   4.903   7.103  0.4370  0.2198 -0.1549
  191SLPC   H9X22153   3.122   4.839   7.120  1.6956 -2.3439 -2.4295
  191SLPC   H9Y22154   3.188   5.011   7.111 -1.2968 -0.1369  0.0048
  191SLPC  C31022155   3.322   4.841   7.191  0.5827  0.3006  0.0168
  191SLPC  H10X22156   3.418   4.896   7.189  1.0844 -0.5583 -2.6811
  191SLPC  H10Y22157   3.347   4.737   7.159  1.5433  0.7870 -0.8300
  191SLPC  C31122158   3.267   4.839   7.338 -0.2949  0.4860 -0.7239
  191SLPC  H11X22159   3.255   4.940   7.382  1.8587  0.0710  0.9632
  191SLPC  H11Y22160   3.352   4.806   7.402 -0.4394  1.8569  0.2169
  191SLPC  C31222161   3.135   4.759   7.371 -0.3392  0.0231  0.5869
  191SLPC  H12X22162   3.157   4.658   7.332 -2.1296  0.5027 -1.8578
  191SLPC  H12Y22163   3.046   4.787   7.312 -1.0471  0.5141  1.8323
  191SLPC  C31322164   3.102   4.744   7.520  0.2614  0.2953  0.7862
  191SLPC  H13X22165   3.023   4.667   7.532  2.9191 -2.5242  1.5311
  191SLPC  H13Y22166   3.069   4.842   7.561 -1.6777  0.7259 -1.5702
  191SLPC  C31422167   3.222   4.706   7.610 -0.1862  0.2285  0.1188
  191SLPC  H14X22168   3.297   4.788   7.616 -1.1600  1.2235 -0.7097
  191SLPC  H14Y22169   3.267   4.624   7.550  0.3989  0.5436  0.1253
  191SLPC  C31522170   3.179   4.636   7.739  0.5349 -0.0770  0.0590
  191SLPC  H15X22171   3.274   4.606   7.786  1.6203 -0.0998 -2.0138
  191SLPC  H15Y22172   3.117   4.550   7.706 -0.6465  0.9851 -0.6333
  191SLPC  C31622173   3.090   4.725   7.832  0.5034 -0.1595 -0.3406
  191SLPC  H16X22174   2.996   4.735   7.773 -1.2561  0.5840  2.4174
  191SLPC  H16Y22175   3.140   4.824   7.846 -0.1709 -0.0021  1.1280
  191SLPC  C31722176   3.064   4.666   7.974 -0.4418  0.3515  0.0695
  191SLPC  H17X22177   3.162   4.663   8.027  0.1764  0.0061 -1.0543
  191SLPC  H17Y22178   3.017   4.566   7.959 -0.2424  0.1255  0.8484
  191SLPC  C31822179   2.971   4.758   8.055 -0.8242 -0.4218 -0.0037
  191SLPC  H18X22180   3.035   4.843   8.085 -1.1279 -0.3914  0.5508
  191SLPC  H18Y22181   2.946   4.698   8.145 -0.2255 -0.5143  0.1100
  191SLPC  H18Z22182   2.884   4.784   7.991  0.1771  1.9718 -0.5213
  192SLPC     N22183   4.619   6.280   6.373 -0.3474 -0.5396  0.5255
  192SLPC   C1322184   4.477   6.314   6.422  0.2283 -0.0622  0.1102
  192SLPC  H13A22185   4.401   6.292   6.348  0.1592 -0.1103  0.1969
  192SLPC  H13B22186   4.451   6.248   6.503  0.7400 -1.2620 -0.6836
  192SLPC  H13C22187   4.467   6.420   6.440 -0.4535 -0.1306  0.1639
  192SLPC   C1422188   4.651   6.370   6.253  0.1776 -0.2416 -0.6268
  192SLPC  H14A22189   4.754   6.355   6.226  0.6598 -2.0487  1.8435
  192SLPC  H14B22190   4.588   6.344   6.169 -0.5085  1.0893 -0.5549
  192SLPC  H14C22191   4.655   6.474   6.281  0.7408  0.3251 -2.7132
  192SLPC   C1522192   4.618   6.148   6.312  0.1409 -0.4014 -0.6586
  192SLPC  H15A22193   4.555   6.140   6.225  0.1797 -0.2178 -0.7036
  192SLPC  H15B22194   4.722   6.122   6.294  0.9748  0.2148  2.5732
  192SLPC  H15C22195   4.586   6.068   6.378  1.9435 -0.9856 -0.4284
  192SLPC   C1222196   4.731   6.295   6.482  0.2958  0.1049  0.6145
  192SLPC  H12A22197   4.710   6.215   6.551 -2.4262 -0.0617 -0.2596
  192SLPC  H12B22198   4.715   6.382   6.545  2.0788  0.9760 -0.0580
  192SLPC   C1122199   4.875   6.283   6.442 -0.1757  0.9698 -1.1545
  192SLPC  H11A22200   4.941   6.263   6.529 -0.4561  0.6540 -1.0131
  192SLPC  H11B22201   4.917   6.382   6.413  2.8029 -0.0700 -0.7976
  192SLPC     P22202   5.034   6.103   6.332 -0.0416  0.2063  0.2149
  192SLPC   O1322203   5.018   6.011   6.223  0.1262  0.2209 -0.2025
  192SLPC   O1422204   5.150   6.191   6.326  0.0289 -0.3946  0.5798
  192SLPC   O1222205   4.900   6.186   6.342 -0.1674 -0.4055 -0.9639
  192SLPC   O1122206   5.038   6.021   6.467  0.2213  0.8576 -0.0432
  192SLPC    C122207   4.932   5.938   6.509 -0.1573 -0.5636 -0.2194
  192SLPC    HA22208   4.865   6.002   6.571  0.0592 -1.7249  1.2428
  192SLPC    HB22209   4.873   5.885   6.431 -0.3317 -0.2052 -0.3384
  192SLPC    C222210   4.987   5.828   6.596  0.5981  0.0537 -0.3145
  192SLPC    HS22211   4.900   5.765   6.624  0.7713 -0.1116 -0.1469
  192SLPC   O2122212   5.058   5.879   6.717  0.2211 -0.3384  0.6450
  192SLPC   C2122213   4.978   5.906   6.823  0.1510  0.9124 -0.5668
  192SLPC   O2222214   4.858   5.893   6.825  0.5325  0.1664  0.5555
  192SLPC   C2222215   5.086   5.953   6.932  0.4168  0.2683  0.4324
  192SLPC   H2R22216   5.159   5.869   6.934 -1.8748 -1.8349  0.1786
  192SLPC   H2S22217   5.143   6.041   6.894  0.9816  0.1649  1.0195
  192SLPC    C322218   5.087   5.730   6.526 -0.0949  0.5912  0.6802
  192SLPC    HX22219   5.172   5.788   6.485  1.3632 -0.7228  1.7143
  192SLPC    HY22220   5.037   5.693   6.434  0.9048  0.0213  0.3503
  192SLPC   O3122221   5.133   5.617   6.607  0.1968  0.2323  0.1897
  192SLPC   C3122222   5.051   5.511   6.616 -0.2551 -0.4002  0.9461
  192SLPC   O3222223   4.936   5.507   6.582  0.0158 -0.4988 -0.2273
  192SLPC   C3222224   5.115   5.403   6.697 -0.2963 -0.0607  0.2491
  192SLPC   H2X22225   5.216   5.441   6.727 -0.4188  2.3044 -1.9347
  192SLPC   H2Y22226   5.141   5.316   6.633 -0.2730  1.1361 -1.4500
  192SLPC   C2322227   5.051   5.965   7.077  0.4228  0.8548  0.2308
  192SLPC   H3R22228   4.992   5.875   7.105  0.6537 -0.0189 -1.9341
  192SLPC   H3S22229   4.992   6.057   7.091 -0.1346  0.5967 -0.3917
  192SLPC   C2422230   5.174   5.959   7.170 -0.5657  0.8370 -0.2651
  192SLPC   H4R22231   5.240   6.048   7.165  0.0160  0.5101  1.2863
  192SLPC   H4S22232   5.245   5.880   7.138 -2.1984 -1.4148  1.4318
  192SLPC   C2522233   5.139   5.922   7.313  0.0469  0.1121  0.0069
  192SLPC   H5R22234   5.228   5.862   7.344  0.6098  1.1760  0.4807
  192SLPC   H5S22235   5.054   5.851   7.324 -2.0574  2.5170  0.2082
  192SLPC   C2622236   5.104   6.045   7.400  0.2180  0.4929  0.3617
  192SLPC   H6R22237   5.019   6.099   7.354  1.7817  1.9205 -0.9558
  192SLPC   H6S22238   5.197   6.106   7.405 -1.7502  3.6749  0.5554
  192SLPC   C2722239   5.071   6.006   7.541  0.2279 -0.0426 -0.9351
  192SLPC   H7R22240   5.147   5.940   7.588  0.8401  0.8783 -0.6098
  192SLPC   H7S22241   4.973   5.955   7.554  0.4694 -0.0678  1.1657
  192SLPC   C2822242   5.054   6.135   7.627 -0.0400  1.0095 -0.5569
  192SLPC   H8R22243   4.947   6.167   7.619 -0.6272 -0.1006  1.9037
  192SLPC   H8S22244   5.127   6.211   7.593  1.7711 -1.7854 -3.4200
  192SLPC   C2922245   5.067   6.115   7.779 -0.5287 -0.4155  0.0285
  192SLPC   H9R22246   5.092   6.017   7.822 -0.6142 -0.3544  0.2170
  192SLPC  C21022247   5.026   6.206   7.870 -0.1711  0.9255 -0.1671
  192SLPC  H10R22248   5.031   6.189   7.979 -0.7071  0.5949 -0.1893
  192SLPC  C21122249   4.983   6.341   7.829 -0.1344  0.0891  0.1524
  192SLPC  H11R22250   5.017   6.377   7.730  2.5945 -0.5297  0.7737
  192SLPC  H11S22251   5.032   6.418   7.894  1.1965 -1.0304  0.5328
  192SLPC  C21222252   4.834   6.350   7.825  0.0599  0.2287  0.7183
  192SLPC  H12R22253   4.788   6.295   7.741  0.0744  0.1807  0.7419
  192SLPC  C21322254   4.755   6.405   7.918  0.0126 -0.5485 -0.4591
  192SLPC  H13R22255   4.646   6.404   7.901  0.1319 -0.9276 -1.2475
  192SLPC  C21422256   4.789   6.462   8.053  0.3592 -0.1770  0.0278
  192SLPC  H14R22257   4.892   6.435   8.085  0.0024 -0.6798  0.7849
  192SLPC  H14S22258   4.723   6.404   8.122  0.0080 -1.5669 -1.4217
  192SLPC  C21522259   4.749   6.611   8.062  0.7049  0.3250  0.8685
  192SLPC  H15R22260   4.642   6.622   8.035  0.5009 -0.1693  1.4747
  192SLPC  H15S22261   4.808   6.679   7.996 -2.5318  1.1860 -1.3698
  192SLPC  C21622262   4.751   6.669   8.200 -0.5477  0.2896  0.7668
  192SLPC  H16R22263   4.851   6.671   8.248 -0.1456  2.7435 -0.0337
  192SLPC  H16S22264   4.691   6.609   8.271 -0.7692 -2.2659 -1.4464
  192SLPC  C21722265   4.695   6.807   8.211  0.7666  0.0897  0.5742
  192SLPC  H17R22266   4.754   6.872   8.143  1.5144  0.2993  1.4124
  192SLPC  H17S22267   4.592   6.799   8.171  1.4714  1.4439 -1.6608
  192SLPC  C21822268   4.683   6.867   8.353 -0.7014 -0.2134  0.4087
  192SLPC  H18R22269   4.782   6.856   8.404 -0.4859  0.5378  0.1592
  192SLPC  H18S22270   4.606   6.815   8.414  0.5599 -0.8266  1.5545
  192SLPC  H18T22271   4.663   6.976   8.361  2.0966  0.4030  0.2527
  192SLPC   C3322272   5.034   5.358   6.825  0.5471 -0.5651  0.2368
  192SLPC   H3X22273   5.071   5.262   6.868 -0.9668 -0.6089  1.5368
  192SLPC   H3Y22274   4.933   5.333   6.787  1.3754 -0.8119 -1.9811
  192SLPC   C3422275   5.044   5.462   6.941  0.2215 -0.1871  0.4265
  192SLPC   H4X22276   4.986   5.555   6.917 -0.2874 -0.5007  0.4290
  192SLPC   H4Y22277   5.146   5.505   6.948 -0.2400  0.7258  2.5551
  192SLPC   C3522278   4.980   5.424   7.073 -0.2672 -0.0562 -0.3045
  192SLPC   H5X22279   5.038   5.348   7.129 -1.7733 -1.8835 -1.1258
  192SLPC   H5Y22280   4.876   5.387   7.061  0.5973 -1.9749 -2.6641
  192SLPC   C3622281   4.973   5.538   7.170 -0.3664 -0.1699 -0.7808
  192SLPC   H6X22282   4.892   5.599   7.125 -0.2755  1.4288  1.0979
  192SLPC   H6Y22283   5.068   5.596   7.168 -1.2280  1.2748 -1.9896
  192SLPC   C3722284   4.947   5.507   7.315  0.2282  0.1103  0.0949
  192SLPC   H7X22285   5.021   5.437   7.359 -0.0599  0.3068  0.9008
  192SLPC   H7Y22286   4.845   5.463   7.321 -0.1359  0.7688 -0.9332
  192SLPC   C3822287   4.939   5.630   7.409  0.5393 -0.3404 -0.9434
  192SLPC   H8X22288   4.861   5.692   7.361 -0.4058 -1.8348 -1.3888
  192SLPC   H8Y22289   5.041   5.677   7.406  1.3819 -1.9722  0.4270
  192SLPC   C3922290   4.897   5.589   7.553 -0.1920 -0.5477 -0.2234
  192SLPC   H9X22291   4.982   5.523   7.579 -0.1672  0.0347  1.2825
  192SLPC   H9Y22292   4.802   5.532   7.562 -1.3869  1.6588  2.6625
  192SLPC  C31022293   4.904   5.696   7.662 -0.2939  0.5453 -0.4035
  192SLPC  H10X22294   4.800   5.735   7.671 -0.2523  0.2070  2.7891
  192SLPC  H10Y22295   4.965   5.777   7.616 -2.6760  3.6513  1.4693
  192SLPC  C31122296   4.962   5.656   7.795  0.2982  0.2105 -0.0501
  192SLPC  H11X22297   5.072   5.650   7.790  0.1854 -1.0332 -1.6504
  192SLPC  H11Y22298   4.932   5.552   7.818  0.8796 -0.1148 -0.7213
  192SLPC  C31222299   4.921   5.753   7.912  0.3637 -0.0157 -0.1810
  192SLPC  H12X22300   4.815   5.786   7.914  0.4017  0.0929  0.9274
  192SLPC  H12Y22301   5.000   5.830   7.907  2.0251 -1.4903  1.5380
  192SLPC  C31322302   4.946   5.692   8.054 -0.3311 -0.7484 -0.3665
  192SLPC  H13X22303   4.887   5.599   8.063  1.0337 -1.5664  0.4503
  192SLPC  H13Y22304   4.894   5.764   8.122  2.3118 -0.8477  1.9625
  192SLPC  C31422305   5.093   5.671   8.092 -0.7563  0.7047 -0.0322
  192SLPC  H14X22306   5.136   5.771   8.110  0.4649  0.3459 -0.8649
  192SLPC  H14Y22307   5.142   5.618   8.008 -0.2578 -0.4623  0.9527
  192SLPC  C31522308   5.118   5.585   8.219  0.4440 -0.3150 -0.0467
  192SLPC  H15X22309   5.052   5.499   8.194  0.6257  0.5044 -4.1063
  192SLPC  H15Y22310   5.079   5.629   8.313 -1.9061 -0.7881 -0.7478
  192SLPC  C31622311   5.260   5.553   8.231 -0.1147  0.9141  0.1363
  192SLPC  H16X22312   5.319   5.647   8.232  1.1397  0.1749  1.6737
  192SLPC  H16Y22313   5.286   5.497   8.139 -0.7676  2.0110 -0.7469
  192SLPC  C31722314   5.315   5.462   8.341  1.2580  0.3059 -1.0266
  192SLPC  H17X22315   5.329   5.517   8.437  0.1116  0.4845 -0.9471
  192SLPC  H17Y22316   5.415   5.420   8.315  0.8163 -0.6145 -1.2792
  192SLPC  C31822317   5.219   5.342   8.370 -0.5849  0.1611 -0.2405
  192SLPC  H18X22318   5.259   5.275   8.448 -0.9627  1.2590  0.9327
  192SLPC  H18Y22319   5.197   5.290   8.274  2.4472  0.0523 -0.9786
  192SLPC  H18Z22320   5.129   5.392   8.413 -0.8991  0.5939 -1.3494
  193SOD    SOD22321   5.993   3.839  15.126  0.0321  0.0108 -0.0557
  194SOD    SOD22322   1.135   5.151   0.517  0.0823  0.8032 -0.7604
  195SOD    SOD22323   2.079   1.606   2.030  0.3014  0.2847  0.2447
  196SOD    SOD22324   5.202   1.354   0.306  0.2975  0.0352 -0.1150
  197SOD    SOD22325   4.313   0.357  11.093  0.1898  0.1424  0.1163
  198SOD    SOD22326   0.871   3.936  16.620  0.2933  0.0799 -0.0085
  199SOD    SOD22327   5.934   1.983  14.628  0.1826 -0.0085 -0.8042
  200SOD    SOD22328   5.031   0.969  12.097  0.2269  0.4374 -0.0042
  201SOD    SOD22329   0.201   3.515   2.380 -0.3587  0.2769  0.1287
  202SOD    SOD22330   4.005   1.764  12.658 -0.4142 -0.0293  0.1981
  203SOD    SOD22331   3.518   3.311   0.754 -0.3226 -0.6021  0.1509
  204SOD    SOD22332   4.082   2.369   2.025 -0.1098  0.3495 -0.4340
  205SOD    SOD22333   1.464   1.071   4.926 -0.3943  0.2997  0.0147
  206SOD    SOD22334   1.602   1.543   4.043 -0.0850  0.0607  0.6399
  207SOD    SOD22335   5.367   4.264   1.415  0.1018  0.0719  0.5629
  208SOD    SOD22336   6.205   0.159  10.872 -0.2561 -0.3214 -0.3403
  209SOD    SOD22337   3.209   5.112   4.884  0.1764  0.1582 -0.1712
  210SOD    SOD22338   0.893   0.146   3.580  0.2841 -0.2664  0.3074
  211SOD    SOD22339   1.000   1.137  14.728 -0.1653 -0.6622  0.3201
  212SOD    SOD22340   0.202   3.344   3.165 -0.3588  0.2463  0.0428
  213SOD    SOD22341   6.760   2.701   5.318 -0.1125 -0.1649 -0.0535
  214SOD    SOD22342   4.327   0.733  15.316  0.3930 -0.2196  0.1658
  215SOD    SOD22343   5.719   1.191   6.114 -0.2470 -0.4003  0.6876
  216SOD    SOD22344   1.779   1.492  11.273 -0.4016 -0.0405 -0.1530
  217SOD    SOD22345   2.767   6.336  13.315  0.5666  0.1231 -0.3603
  218SOD    SOD22346   5.736   5.689  13.163 -0.1137  0.3310  0.2919
  219SOD    SOD22347   2.835   1.437   4.615  0.1644  0.0396  0.1993
  220SOD    SOD22348   0.824   1.979   1.208  0.1530  0.4754 -0.3019
  221SOD    SOD22349   6.534   0.963  14.348  0.1697 -0.5226  0.2519
  222SOD    SOD22350   1.889   0.012   0.860 -0.3835  0.0425 -0.7016
  223SOD    SOD22351   6.402   4.580  11.738  0.0688 -0.6098 -0.0995
  224SOD    SOD22352   2.299   5.969   5.072 -0.5870  0.0411 -0.0215
  225SOD    SOD22353   5.656   5.254  15.479 -0.0412 -0.2773 -0.1782
  226SOD    SOD22354   6.102   1.720  12.144  0.0370  0.2383  0.7079
  227SOD    SOD22355   2.499   5.340  10.689  0.4246 -0.1438 -0.5684
  228SOD    SOD22356   2.767   4.540   2.115  0.5039 -0.3731  0.2149
  229SOD    SOD22357   2.577   1.212  17.156 -0.3470 -0.0861 -0.2369
  230SOD    SOD22358   1.867   2.036  14.401  0.0494  0.5730 -0.1667
  231SOD    SOD22359   3.024   3.940  16.646 -0.3459 -0.2002 -0.0045
  232SOD    SOD22360   4.637   2.747   5.345 -0.7434 -0.0454  0.3573
  233SOD    SOD22361   4.978   4.086   6.185 -0.0222  0.4172  0.3663
  234SOD    SOD22362   4.635   4.814   2.537  0.1781 -0.2916 -0.7240
  235SOD    SOD22363   3.274   6.384  12.213  0.0529 -0.0676  0.0901
  236SOD    SOD22364   5.279   2.306  16.624 -0.1493 -0.1454 -0.1192
  237SOD    SOD22365   2.086   3.481  15.448  0.0517 -0.2302  0.5370
  238SOD    SOD22366   1.539   5.487  11.200 -0.0777 -0.0014  0.6425
  239SOD    SOD22367   0.320   0.378  10.946 -0.5110  0.6019  0.0047
  240SOD    SOD22368   4.769   4.259  13.391  0.0372 -0.3094  0.4187
  241SOD    SOD22369   1.232   1.380   0.835  0.2462 -0.0741  0.3732
  242SOD    SOD22370   5.719   6.172   5.800 -0.3967  0.0599  0.2316
  243SOD    SOD22371   3.495   0.850  10.501 -0.1090  0.0576 -0.0662
  244SOD    SOD22372   0.954   0.351  14.607  0.7326 -0.5603  0.2260
  245SOD    SOD22373   5.840   0.860  10.950  0.0301  0.1097  0.2442
  246SOD    SOD22374   6.641   1.287   4.031 -0.1247 -0.1753  0.0036
  247SOD    SOD22375   6.511   2.976  12.166  0.1556 -0.0110 -0.1546
  248SOD    SOD22376   0.289   5.008  13.734 -0.5511 -0.5656 -0.2321
  249SOD    SOD22377   0.369   5.387  16.750 -0.2762 -0.5461  0.3822
  250SOD    SOD22378   2.602   5.392  15.828 -0.6888  0.0266  0.2574
  251SOD    SOD22379   2.329   2.035   2.436 -0.0201  0.3843 -0.4028
  252SOD    SOD22380   3.763   3.123   1.328 -0.3862  0.1915 -0.1898
  253SOD    SOD22381   2.619   5.280   5.436 -0.2697 -0.2183 -0.3187
  254SOD    SOD22382   1.414   6.740   6.033  0.5041 -0.1367 -0.3451
  255SOD    SOD22383   1.609   6.776   2.250 -0.2407  0.1593 -0.3948
  256SOD    SOD22384   4.910   4.946  12.188 -0.4229 -0.3885  0.2998
  257SOD    SOD22385   3.497   0.353  14.933  0.1129  0.7951 -0.0252
  258SOD    SOD22386   3.655   5.672   0.279 -0.3057  0.0240  0.3555
  259SOD    SOD22387   6.409   4.285   6.379 -0.6939  0.5394 -0.1049
  260SOD    SOD22388   0.466   4.460  10.924  0.1013  0.0813  0.2835
  261SOD    SOD22389   3.595   6.130   0.556 -0.0905 -0.3613  0.0275
  262SOD    SOD22390   4.131   6.336   6.143 -0.1296  0.1690 -0.3752
  263SOD    SOD22391   6.034   4.226   3.851 -0.1455  0.3433 -0.2306
  264SOD    SOD22392   6.828   6.772  14.376 -0.0950 -0.6241  0.3612
  265SOD    SOD22393   0.476   4.225  15.695  0.1009  0.2387  0.4137
  266CLA    CLA22394   5.582   4.539  14.365 -0.1876  0.0177 -0.0233
  267CLA    CLA22395   3.642   6.561   3.202 -0.3396  0.2269  0.1241
  268CLA    CLA22396   2.754   3.824  11.325 -0.4331 -0.1481  0.2998
  269CLA    CLA22397   4.281   5.904  16.054 -0.6631  0.2638  0.5778
  270CLA    CLA22398   3.010   6.692  13.817 -0.6733  0.0745  0.0314
  271CLA    CLA22399   4.182   4.477   0.944  0.0558  0.3762  0.0067
  272CLA    CLA22400   1.227   1.763  13.751 -0.5060  0.0087 -0.4033
  273CLA    CLA22401   3.676   0.066  16.756 -0.4279  0.0107 -0.1041
  274CLA    CLA22402   5.537   1.738  12.039  0.1754  0.4215 -0.0870
  275CLA    CLA22403   3.385   0.944   4.108 -0.0867  0.1673 -0.2992
  276CLA    CLA22404   4.581   2.050  13.734 -0.1212  0.2187  0.1425
  277CLA    CLA22405   2.294   6.651   2.790 -0.2600 -0.1113  0.0631
  278CLA    CLA22406   6.501   0.299   2.191  0.2448 -0.3164 -0.4287
  279CLA    CLA22407   0.888   4.044   2.559  0.1150 -0.6062  0.0173
  280CLA    CLA22408   2.549   5.976   4.955  0.1584 -0.2946 -0.6835
  281CLA    CLA22409   3.999   5.177   4.998  0.0781 -0.0446 -0.4664
  282CLA    CLA22410   0.987   2.143  16.550 -0.3365 -0.1649  0.1944
  283CLA    CLA22411   6.181   1.564  15.469  0.4388  0.3496  0.1792
  284CLA    CLA22412   1.940   4.757   0.378 -0.2979  0.0757  0.3759
  285CLA    CLA22413   3.220   5.735   1.330  0.0642 -0.2299  0.0928
  286CLA    CLA22414   2.864   3.888  17.152  0.1747 -0.0310  0.1221
  287CLA    CLA22415   1.098   2.819  14.581 -0.1851 -0.3849 -0.0195
  288CLA    CLA22416   6.570   4.685  14.399 -0.3090 -0.2263  0.1469
  289CLA    CLA22417   0.130   6.010  14.223  0.1965 -0.1953  0.1890
  290CLA    CLA22418   6.282   2.972   0.076  0.0283  0.2576  0.1115
  291CLA    CLA22419   3.869   2.816  17.033  0.1243 -0.1785 -0.0472
  292CLA    CLA22420   5.133   4.087  13.315  0.2412 -0.0759 -0.1353
  293CLA    CLA22421   3.292   4.102   2.534  0.0282  0.1638 -0.0440
  294CLA    CLA22422   1.880   0.298  11.163 -0.0857  0.2951  0.0690
  295CLA    CLA22423   0.026   0.146  13.770  0.1269  0.0886  0.0740
  296CLA    CLA22424   1.018   6.132   5.226  0.1962  0.1946  0.0053
  297CLA    CLA22425   1.528   4.700  15.534  0.2763  0.0396 -0.5216
  298CLA    CLA22426   2.896   4.337  14.432  0.4733  0.2731  0.1616
  299CLA    CLA22427   5.902   0.884   5.167 -0.1833 -0.3322  0.0574
  300CLA    CLA22428   4.048   2.470   1.780  0.7771  0.1259 -0.2088
  301CLA    CLA22429   5.769   4.394   0.738 -0.1676  0.0055 -0.0113
  302CLA    CLA22430   0.496   4.472   0.566  0.0047 -0.2038  0.3317
  303CLA    CLA22431   6.393   3.373  16.894 -0.2962 -0.2752  0.0458
  304CLA    CLA22432   2.611   6.748   0.336  0.2375  0.2271 -0.3296
  305CLA    CLA22433   1.106   0.025  16.790  0.2078 -0.1357  0.2791
  306CLA    CLA22434   6.568   5.588  12.993  0.6050  0.0649  0.1174
  307CLA    CLA22435   2.378   0.647   4.167  0.1647  0.0158  0.0423
  308CLA    CLA22436   1.396   3.315   0.988  0.1314  0.4346  0.0873
  309CLA    CLA22437   1.158   1.943   1.521  0.1437  0.3777  0.0638
  310CLA    CLA22438   0.288   3.267  14.498 -0.0738  0.1905  0.3718
  311CLA    CLA22439   3.850   1.876   1.425  0.1170 -0.0022 -0.4252
  312CLA    CLA22440   1.390   0.873  11.905  0.2164 -0.2660 -0.0820
  313CLA    CLA22441   5.133   1.410  16.335 -0.0209  0.0298  0.0782
  314CLA    CLA22442   6.302   3.027   2.901 -0.3576 -0.0834  0.1065
  315CLA    CLA22443   6.068   6.119  14.631 -0.5432  0.0597  0.1566
  316CLA    CLA22444   1.769   6.445  14.000 -0.2008  0.3131  0.2466
  317CLA    CLA22445   3.667   4.450  16.915  0.5630  0.1555  0.0508
  318CLA    CLA22446   5.284   1.526   0.916  0.0913 -0.0017  0.1831
  319TIP3   OH222447   3.678   1.422  13.765  0.6015  0.7622  0.1288
  319TIP3    H122448   3.660   1.372  13.845 -0.9738  1.8141  0.4860
  319TIP3    H222449   3.773   1.433  13.765  0.6790  0.3884  1.6470
  320TIP3   OH222450   5.239   3.836   3.760  0.1462  0.2753 -0.6476
  320TIP3    H122451   5.182   3.772   3.802 -1.0281 -0.0590 -2.6192
  320TIP3    H222452   5.274   3.790   3.684  2.2543  0.8286 -0.0726
  321TIP3   OH222453   6.215   0.884   6.313  0.5579 -0.1709  0.0711
  321TIP3    H122454   6.299   0.901   6.355 -0.6108  1.1156  2.1040
  321TIP3    H222455   6.192   0.967   6.271 -1.1147  0.6307  2.3577
  322TIP3   OH222456   6.502   4.176  15.287  0.9506 -0.0496 -0.1300
  322TIP3    H122457   6.456   4.249  15.327 -1.8851 -0.0842 -2.9403
  322TIP3    H222458   6.488   4.102  15.347 -1.1452  0.4099  0.0145
  323TIP3   OH222459   5.944   2.353  13.629 -0.3970 -0.5752  0.1842
  323TIP3    H122460   6.006   2.426  13.628 -0.6534 -0.3380  0.6797
  323TIP3    H222461   5.929   2.332  13.537  0.4245 -0.6501  0.0607
  324TIP3   OH222462   6.300   3.073   3.703  0.0962  0.1179 -0.1436
  324TIP3    H122463   6.358   2.999   3.720  1.4065  0.7273 -1.6141
  324TIP3    H222464   6.276   3.064   3.610 -2.5723 -0.3392  0.5146
  325TIP3   OH222465   5.332   4.788   4.493 -0.6396 -0.1674  0.0966
  325TIP3    H122466   5.376   4.724   4.437  0.1889 -0.3327  0.9216
  325TIP3    H222467   5.393   4.803   4.565 -0.8495  1.5105 -0.0442
  326TIP3   OH222468   5.442   6.503  11.295 -0.8846 -0.6991 -0.2545
  326TIP3    H122469   5.538   6.494  11.301 -0.7221 -1.5086 -2.6856
  326TIP3    H222470   5.408   6.445  11.363  0.3766 -1.7218 -0.4465
  327TIP3   OH222471   0.172   6.183   4.790 -0.1555  0.0761  0.4408
  327TIP3    H122472   0.112   6.193   4.865 -1.3768 -0.9825 -0.3628
  327TIP3    H222473   0.216   6.268   4.784 -0.2933  0.3136  2.1213
  328TIP3   OH222474   0.713   3.364   0.767  0.0960  0.2238 -0.3874
  328TIP3    H122475   0.657   3.394   0.696 -0.1166 -0.3431 -0.4638
  328TIP3    H222476   0.800   3.356   0.728  0.4874  2.1543 -0.0059
  329TIP3   OH222477   6.704   4.609   0.261 -0.0776 -0.4008  0.0339
  329TIP3    H122478   6.769   4.553   0.305 -0.0792  0.3515  1.0230
  329TIP3    H222479   6.622   4.559   0.267  0.0168 -0.5076  0.4905
  330TIP3   OH222480   1.776   4.470   5.145 -0.4345 -0.3731  0.0964
  330TIP3    H122481   1.829   4.540   5.183 -0.4037 -0.5617  0.3985
  330TIP3    H222482   1.834   4.394   5.142 -1.1699 -1.0563  1.9817
  331TIP3   OH222483   2.536   0.799  14.157  0.4563  0.1018  0.4252
  331TIP3    H122484   2.629   0.784  14.143  0.1408 -0.4157 -1.2477
  331TIP3    H222485   2.513   0.868  14.094 -0.1671  0.7006  1.2778
  332TIP3   OH222486   2.715   2.515  13.301 -0.5695  0.0907 -0.2538
  332TIP3    H122487   2.772   2.441  13.280  1.5506  1.7382 -0.6891
  332TIP3    H222488   2.666   2.487  13.377  1.7932 -1.0039  0.9659
  333TIP3   OH222489   2.055   0.752   4.896  0.1119  0.4169 -0.4516
  333TIP3    H122490   2.096   0.743   4.982  0.1144 -0.0119 -0.4956
  333TIP3    H222491   2.059   0.664   4.858 -0.0660  0.5611 -0.8098
  334TIP3   OH222492   4.779   0.683   2.919  0.1111 -0.3814 -0.1045
  334TIP3    H122493   4.717   0.625   2.964  2.3381 -0.3854  3.2656
  334TIP3    H222494   4.861   0.635   2.917  0.9215  0.9602 -1.3271
  335TIP3   OH222495   0.961   4.443   1.087  0.3473 -0.1020 -0.8149
  335TIP3    H122496   0.894   4.409   1.145  1.8775 -0.1343  1.0384
  335TIP3    H222497   0.980   4.531   1.120  3.3219 -1.1849  0.7696
  336TIP3   OH222498   2.645   0.230   4.789  0.6261 -0.1458 -0.3440
  336TIP3    H122499   2.636   0.285   4.867 -0.2901 -0.2059 -0.3867
  336TIP3    H222500   2.557   0.229   4.751  0.4913 -2.0388 -0.0777
  337TIP3   OH222501   1.282   1.226  16.914 -0.0060  0.0655  0.4193
  337TIP3    H122502   1.352   1.216  16.979 -0.9759  1.0125  1.6709
  337TIP3    H222503   1.293   1.152  16.855  1.4723 -0.3245  1.1247
  338TIP3   OH222504   1.505   6.665  15.809 -0.3761  0.1633 -0.0649
  338TIP3    H122505   1.545   6.747  15.781 -0.3132  0.5773  1.1951
  338TIP3    H222506   1.456   6.687  15.888  2.3362 -1.6076  2.2847
  339TIP3   OH222507   1.998   0.633  16.892 -0.2516 -0.3151 -0.1196
  339TIP3    H122508   2.075   0.577  16.898 -0.6784 -1.1096 -1.6200
  339TIP3    H222509   1.980   0.659  16.983  0.0394 -2.5134  0.6149
  340TIP3   OH222510   3.073   0.148   2.181 -1.0389 -0.0531  0.0674
  340TIP3    H122511   3.058   0.241   2.164  0.0074  0.1853  0.3765
  340TIP3    H222512   3.062   0.106   2.096  1.5772  0.7770 -0.7814
  341TIP3   OH222513   2.347   0.039  12.467  0.0179  0.4927 -0.0734
  341TIP3    H122514   2.376   0.038  12.376 -0.0398  0.6919 -0.0944
  341TIP3    H222515   2.406   0.101  12.510 -0.3909  0.9139 -0.1184
  342TIP3   OH222516   3.918   0.134  14.857 -0.4288  0.2555 -0.9849
  342TIP3    H122517   3.943   0.042  14.867 -2.5894 -0.3390 -0.6827
  342TIP3    H222518   3.880   0.139  14.769 -0.4846  0.8202 -0.9324
  343TIP3   OH222519   3.123   2.122  11.597 -0.5484 -0.7874  0.5287
  343TIP3    H122520   3.123   2.212  11.629 -0.0669 -0.5901 -0.0152
  343TIP3    H222521   3.038   2.112  11.555 -0.2966 -0.3250 -0.1096
  344TIP3   OH222522   6.790   1.198   1.086 -0.3125  0.2481  0.7900
  344TIP3    H122523   6.715   1.141   1.067 -0.0265  0.0535  0.2117
  344TIP3    H222524   6.866   1.142   1.072 -0.0468  0.5190  1.1255
  345TIP3   OH222525   5.607   1.266   3.134  0.2260 -0.2565 -0.4452
  345TIP3    H122526   5.597   1.344   3.080  0.8683 -1.0117 -1.6934
  345TIP3    H222527   5.522   1.223   3.128 -0.6524  1.0643  1.4890
  346TIP3   OH222528   3.206   6.234   0.495 -0.6657 -0.3292 -0.0296
  346TIP3    H122529   3.268   6.268   0.560  0.7103 -0.2935 -1.3123
  346TIP3    H222530   3.119   6.254   0.532  0.0669  2.1233  0.5544
  347TIP3   OH222531   1.168   5.870  12.277  0.2683  0.5725 -0.3853
  347TIP3    H122532   1.148   5.887  12.368  1.6245 -0.0375  0.0487
  347TIP3    H222533   1.084   5.878  12.232 -0.5945 -0.0492  1.0569
  348TIP3   OH222534   2.771   0.677  14.105  0.4400  0.4854  0.2178
  348TIP3    H122535   2.810   0.653  14.190 -1.8763 -1.0187  0.9824
  348TIP3    H222536   2.739   0.594  14.070 -1.4338  1.4939 -0.6149
  349TIP3   OH222537   3.048   0.741  16.765  0.1678  0.7886  0.5895
  349TIP3    H122538   3.084   0.764  16.851 -0.2526 -0.0249  0.9931
  349TIP3    H222539   3.113   0.682  16.727  0.3272  1.1046  0.3678
  350TIP3   OH222540   2.931   1.398  13.825 -0.2122  0.2288  0.0282
  350TIP3    H122541   2.878   1.478  13.828 -1.0852 -0.3669  1.1768
  350TIP3    H222542   3.005   1.421  13.769 -1.0221  1.4868 -0.5731
  351TIP3   OH222543   2.501   2.742   0.056  0.2870  0.3900 -0.1419
  351TIP3    H122544   2.485   2.767   0.147 -0.2522  0.9797 -0.3901
  351TIP3    H222545   2.595   2.725   0.052  0.0947 -1.1539  0.8790
  352TIP3   OH222546   2.874   0.053  10.610  0.5611  0.2304 -0.0839
  352TIP3    H122547   2.800   0.050  10.671  0.5488 -1.0919 -0.1253
  352TIP3    H222548   2.921   0.132  10.633  0.4073 -0.1063  1.4832
  353TIP3   OH222549   5.546   5.825   2.253 -0.0271  0.4671  0.2010
  353TIP3    H122550   5.505   5.760   2.196  0.4797  1.6766 -1.6338
  353TIP3    H222551   5.635   5.792   2.267 -0.0270  0.3528 -0.0620
  354TIP3   OH222552   0.881   2.742  16.597  0.1086 -0.1380 -0.1481
  354TIP3    H122553   0.949   2.796  16.558  0.0539 -0.2774 -0.4436
  354TIP3    H222554   0.859   2.679  16.528  1.8664 -2.1050  0.9752
  355TIP3   OH222555   5.809   1.815  17.078 -0.0499  0.6079  0.4891
  355TIP3    H122556   5.796   1.839  16.986 -0.4698  0.2544  0.4549
  355TIP3    H222557   5.830   1.898  17.121 -1.9057  1.1373  0.4534
  356TIP3   OH222558   4.430   5.997  11.631 -0.6706 -0.1996 -0.5078
  356TIP3    H122559   4.367   5.927  11.617 -3.6704  2.3320 -0.8513
  356TIP3    H222560   4.466   5.979  11.718 -1.4324 -2.0506 -0.5216
  357TIP3   OH222561   5.148   2.898   0.695  0.5290  0.3520  0.0977
  357TIP3    H122562   5.136   2.960   0.623  0.3583  1.4135  1.0208
  357TIP3    H222563   5.170   2.952   0.770  0.8691 -0.7572  0.8202
  358TIP3   OH222564   4.895   3.577  16.595  0.4295  0.3055  0.2898
  358TIP3    H122565   4.982   3.565  16.556  0.1966 -1.1894  0.1625
  358TIP3    H222566   4.834   3.558  16.523  0.0026 -0.4209  0.8341
  359TIP3   OH222567   5.324   1.005   5.452  0.2944  0.3694  0.0764
  359TIP3    H122568   5.250   1.031   5.397  0.1750 -0.7653 -0.3156
  359TIP3    H222569   5.394   1.067   5.429  0.7124 -0.9335 -2.4428
  360TIP3   OH222570   0.938   0.740  10.232 -0.1066  0.2430  0.1855
  360TIP3    H122571   0.967   0.671  10.173  1.1109 -0.1508  1.1907
  360TIP3    H222572   0.932   0.697  10.318  0.4983  1.3186  0.7951
  361TIP3   OH222573   0.891   2.021  16.243 -0.1190  0.4079  0.1187
  361TIP3    H122574   0.926   2.061  16.322 -0.1199 -1.7140  1.2528
  361TIP3    H222575   0.876   1.929  16.266  1.3927 -0.7156 -2.7706
  362TIP3   OH222576   3.812   1.285   1.054  0.0135 -0.1104 -0.3794
  362TIP3    H122577   3.764   1.278   1.137 -1.7209 -2.5009 -1.4675
  362TIP3    H222578   3.786   1.371   1.020  0.2633  0.6456  1.2138
  363TIP3   OH222579   2.554   2.698   1.518 -0.3434 -0.1972 -0.3623
  363TIP3    H122580   2.595   2.641   1.583  0.0813  1.0837  0.5291
  363TIP3    H222581   2.519   2.771   1.569 -3.6917 -1.1448 -1.0795
  364TIP3   OH222582   4.751   4.258  12.717  0.5215  0.3165 -0.3025
  364TIP3    H122583   4.816   4.192  12.742  1.4102  1.1552 -0.3106
  364TIP3    H222584   4.678   4.208  12.682 -0.3975 -0.9070  2.9883
  365TIP3   OH222585   0.635   2.728   0.091 -0.3496  0.2054 -0.1465
  365TIP3    H122586   0.705   2.767   0.143 -1.1081 -0.6142  1.5852
  365TIP3    H222587   0.668   2.641   0.066 -0.2742  0.3047 -0.3939
  366TIP3   OH222588   2.353   6.147   4.812 -0.6627 -0.0820 -0.1878
  366TIP3    H122589   2.435   6.119   4.853 -0.3937 -0.3109 -0.8647
  366TIP3    H222590   2.374   6.234   4.776 -0.2114 -0.8150 -1.7701
  367TIP3   OH222591   1.301   2.997   4.841 -0.2266 -0.4342  0.0641
  367TIP3    H122592   1.379   3.051   4.831  0.8115 -1.8627  0.1141
  367TIP3    H222593   1.255   3.035   4.916 -0.7028  1.6722 -1.2014
  368TIP3   OH222594   0.120   2.352   2.780 -0.0752 -0.0387 -0.0496
  368TIP3    H122595   0.061   2.298   2.832  1.4053 -0.1375  1.6098
  368TIP3    H222596   0.062   2.403   2.723 -1.7762  0.0315  1.6656
  369TIP3   OH222597   0.754   5.732  15.001  0.2533 -0.0891  0.4915
  369TIP3    H122598   0.791   5.673  15.067 -0.0811 -1.1394 -0.2281
  369TIP3    H222599   0.831   5.765  14.954  0.3883 -1.1483 -0.0725
  370TIP3   OH222600   5.480   1.240  15.242  1.1898 -0.0379  0.1517
  370TIP3    H122601   5.487   1.195  15.326 -1.2690  0.1908  0.5729
  370TIP3    H222602   5.524   1.324  15.256  1.1331 -0.1553  1.1018
  371TIP3   OH222603   2.614   5.360  11.575 -0.8422 -0.1383 -0.1711
  371TIP3    H122604   2.672   5.379  11.649 -1.9985 -0.4076  0.8176
  371TIP3    H222605   2.581   5.272  11.592 -1.3577 -0.0823 -0.8499
  372TIP3   OH222606   1.502   5.421  14.638  0.2030 -0.4141 -0.3111
  372TIP3    H122607   1.578   5.409  14.693 -0.3765  2.1962  1.2108
  372TIP3    H222608   1.488   5.335  14.597  2.3593 -1.6490  1.3504
  373TIP3   OH222609   2.188   2.171   4.310 -0.1832 -0.0059  0.1507
  373TIP3    H122610   2.266   2.196   4.360  0.2270 -0.7763 -0.0988
  373TIP3    H222611   2.221   2.139   4.227 -0.9474  3.2372 -1.5551
  374TIP3   OH222612   4.939   2.113   0.914 -0.5183 -0.3991  0.2150
  374TIP3    H122613   4.961   2.064   0.992 -0.2494 -0.1571  0.2939
  374TIP3    H222614   5.017   2.107   0.858 -0.0175  0.9032  0.7209
  375TIP3   OH222615   3.477   6.340   2.026 -0.6527  0.0871 -0.6269
  375TIP3    H122616   3.545   6.375   2.084  0.7235 -2.1704 -0.7455
  375TIP3    H222617   3.395   6.358   2.071  0.1665  1.1076  0.5089
  376TIP3   OH222618   0.984   1.516   4.104  0.2587  0.3184  0.1585
  376TIP3    H122619   0.961   1.601   4.141  0.0123  0.5675 -0.5507
  376TIP3    H222620   0.907   1.490   4.053  0.5674 -0.0443 -0.1333
  377TIP3   OH222621   0.153   2.944  16.995  0.3321  0.0737 -0.1601
  377TIP3    H122622   0.105   2.989  16.926 -0.7581 -0.8163 -0.0028
  377TIP3    H222623   0.224   2.900  16.949  0.6830  0.9214 -0.4663
  378TIP3   OH222624   3.291   1.392  14.508  0.4344  0.1698  0.7847
  378TIP3    H122625   3.216   1.334  14.497  0.6266  0.0455  0.0700
  378TIP3    H222626   3.328   1.368  14.593 -0.1330  0.0093  0.9943
  379TIP3   OH222627   3.067   3.677   3.603  0.0485  0.5925 -0.4632
  379TIP3    H122628   3.131   3.685   3.533  0.8731  2.3316  0.4341
  379TIP3    H222629   3.057   3.765   3.638  0.0078 -0.2474  1.8737
  380TIP3   OH222630   0.805   1.598   6.489  0.1447  0.0665 -0.2956
  380TIP3    H122631   0.717   1.594   6.451  0.4427  0.8854 -1.1073
  380TIP3    H222632   0.822   1.691   6.500  0.5787 -0.1176  0.6790
  381TIP3   OH222633   6.279   0.286  12.780  0.0971 -0.2514  0.4490
  381TIP3    H122634   6.209   0.291  12.716  0.6719 -0.5850 -0.2190
  381TIP3    H222635   6.328   0.207  12.757  0.2929 -0.3905  1.3166
  382TIP3   OH222636   6.171   6.128  12.528  0.0917  0.1847 -0.6433
  382TIP3    H122637   6.165   6.199  12.463 -2.4949  0.6690  0.0004
  382TIP3    H222638   6.091   6.076  12.514  0.8726 -1.3450  0.3297
  383TIP3   OH222639   1.869   6.624  11.239  0.0053  0.0848  0.0694
  383TIP3    H122640   1.921   6.544  11.245 -0.8966 -0.4151  1.7198
  383TIP3    H222641   1.837   6.624  11.149  4.9294  1.8404 -2.0158
  384TIP3   OH222642   5.119   0.556  14.034  0.4161 -0.2878  0.2084
  384TIP3    H122643   5.095   0.486  13.974 -0.3808  1.0447 -1.0727
  384TIP3    H222644   5.121   0.635  13.980 -2.0569  1.2882  2.1826
  385TIP3   OH222645   2.934   4.647  10.482  0.4774  0.4632 -0.5458
  385TIP3    H122646   2.844   4.650  10.449  0.5587 -1.0663 -0.9609
  385TIP3    H222647   2.975   4.575  10.434  1.8227  0.8816 -0.0741
  386TIP3   OH222648   1.945   6.722  13.998 -0.3330 -0.8833 -0.2214
  386TIP3    H122649   1.907   6.642  14.033  0.6810 -3.0647 -3.7037
  386TIP3    H222650   1.873   6.766  13.953 -0.6946 -0.1666  0.9930
  387TIP3   OH222651   1.224   6.718   2.985 -0.2815  0.7722  0.0812
  387TIP3    H122652   1.224   6.683   3.074 -1.2897  0.1821 -0.1366
  387TIP3    H222653   1.266   6.649   2.932 -0.3377  0.8093 -0.0121
  388TIP3   OH222654   0.911   0.979   3.301 -0.1615  0.1414 -0.2838
  388TIP3    H122655   0.842   1.025   3.349  0.4064  0.1761  0.5131
  388TIP3    H222656   0.867   0.947   3.222 -0.8038  1.1943 -0.3816
  389TIP3   OH222657   4.295   2.201  12.517 -0.1125 -0.0386  0.5903
  389TIP3    H122658   4.293   2.159  12.430  2.6362 -0.6364  0.7210
  389TIP3    H222659   4.207   2.188  12.552 -1.0420 -0.5536 -1.7497
  390TIP3   OH222660   5.154   1.343  12.031  0.4685 -0.7513 -0.2132
  390TIP3    H122661   5.231   1.312  12.078  0.7580 -0.6631 -0.6190
  390TIP3    H222662   5.189   1.397  11.960 -0.0381  0.7977  0.6645
  391TIP3   OH222663   0.013   6.613   5.064  0.3598 -0.2462  0.0999
  391TIP3    H122664  -0.080   6.627   5.084  0.0021  0.2854 -1.7612
  391TIP3    H222665   0.058   6.686   5.107 -0.1273 -0.2199  0.5782
  392TIP3   OH222666   1.266   3.549  14.484  0.2569 -0.0363  0.3379
  392TIP3    H122667   1.351   3.580  14.514  0.6563 -0.0896 -0.6849
  392TIP3    H222668   1.206   3.621  14.501  1.0249  1.0610 -1.3236
  393TIP3   OH222669   6.344   5.799  13.194 -0.4195  0.7768 -0.4995
  393TIP3    H122670   6.404   5.741  13.147 -0.2341  2.5492 -2.5812
  393TIP3    H222671   6.398   5.844  13.259  0.0537  0.7885 -0.8992
  394TIP3   OH222672   1.660   1.062   1.993 -0.1689 -0.1939 -0.2291
  394TIP3    H122673   1.599   0.992   1.972 -1.5028  0.4108  1.4282
  394TIP3    H222674   1.621   1.107   2.068  1.2514  1.5691 -0.4686
  395TIP3   OH222675   0.249   0.133  17.162  0.8894  0.5165 -0.4925
  395TIP3    H122676   0.304   0.132  17.240  0.9790  0.5469 -0.5567
  395TIP3    H222677   0.247   0.042  17.132  1.8304  0.7031 -1.1506
  396TIP3   OH222678   3.376   1.428   3.878  0.0525 -0.1243  0.3036
  396TIP3    H122679   3.326   1.357   3.919  0.9923 -0.4044  0.9921
  396TIP3    H222680   3.467   1.408   3.900  0.2394  2.1983  2.0036
  397TIP3   OH222681   5.707   4.392  12.538  0.9883  0.1566  0.1526
  397TIP3    H122682   5.710   4.298  12.553 -0.1542  0.0846  0.0111
  397TIP3    H222683   5.683   4.429  12.623  0.4721  0.2442 -0.0331
  398TIP3   OH222684   1.040   6.245  15.238 -0.1636  0.2252  0.0777
  398TIP3    H122685   0.953   6.281  15.252 -0.3895 -0.1239 -0.3876
  398TIP3    H222686   1.063   6.272  15.149  0.2199  0.3443  0.2094
  399TIP3   OH222687   2.569   0.682  11.508  0.1775  0.2908 -0.1256
  399TIP3    H122688   2.558   0.587  11.503  0.7930  0.2590 -1.1143
  399TIP3    H222689   2.664   0.695  11.511  0.1224  0.9135 -0.9480
  400TIP3   OH222690   3.063   1.982   3.429 -0.1067 -0.6137  0.0942
  400TIP3    H122691   3.156   1.963   3.426 -0.2237 -1.1222 -0.4563
  400TIP3    H222692   3.050   2.052   3.365 -0.0551 -0.3215  0.4007
  401TIP3   OH222693   3.188   3.497  13.648 -0.0335  0.1751 -0.7112
  401TIP3    H122694   3.275   3.490  13.607  0.5964  1.8322  0.2512
  401TIP3    H222695   3.138   3.425  13.609  2.4301 -2.3607  0.4133
  402TIP3   OH222696   3.091   2.401   5.359 -0.3144  0.3975 -0.3413
  402TIP3    H122697   3.039   2.469   5.403  0.4398  0.1000  1.0611
  402TIP3    H222698   3.149   2.449   5.300 -0.7658  0.8596 -0.4177
  403TIP3   OH222699   2.613   0.726  13.514  0.3007  0.1982  0.4047
  403TIP3    H122700   2.583   0.653  13.459 -2.7514  0.6297  1.2812
  403TIP3    H222701   2.632   0.796  13.452  1.6094 -0.7648 -0.3358
  404TIP3   OH222702   4.874   4.696  11.169 -0.0901 -0.2140  0.3341
  404TIP3    H122703   4.940   4.674  11.233  0.7552  1.1413 -0.0294
  404TIP3    H222704   4.920   4.695  11.085 -0.8193 -0.4690 -0.0760
  405TIP3   OH222705   2.132   4.228  10.744 -0.1422  0.0997  0.1809
  405TIP3    H122706   2.177   4.290  10.686 -0.8367 -1.9296 -2.7741
  405TIP3    H222707   2.201   4.169  10.775 -0.0303  0.0338 -0.1902
  406TIP3   OH222708   6.787   4.219   1.809 -0.0433 -0.5702 -0.1234
  406TIP3    H122709   6.874   4.179   1.813 -0.2968 -1.1159  0.1982
  406TIP3    H222710   6.731   4.149   1.774 -0.4864 -0.4777  0.3872
  407TIP3   OH222711   3.552   6.791  17.141 -0.0597  0.2999  0.1138
  407TIP3    H122712   3.457   6.783  17.138 -0.1128  0.4293  1.0700
  407TIP3    H222713   3.584   6.729  17.075 -0.7039 -2.1843  1.9940
  408TIP3   OH222714   1.986   2.201   5.005 -0.0451  0.6565 -0.3764
  408TIP3    H122715   1.926   2.232   4.937 -0.8799 -0.2429 -0.0904
  408TIP3    H222716   2.067   2.181   4.958 -0.9715 -1.0696 -1.3777
  409TIP3   OH222717   1.444   5.660   2.723 -0.0802 -0.6974  0.4224
  409TIP3    H122718   1.363   5.611   2.731 -2.0707  2.6269  3.4956
  409TIP3    H222719   1.485   5.654   2.809  1.0777  0.5564 -0.0056
  410TIP3   OH222720   2.404   4.975   0.890 -0.2979 -0.1486 -0.0103
  410TIP3    H122721   2.432   5.029   0.816 -0.0131 -0.4761 -0.1450
  410TIP3    H222722   2.439   4.888   0.871 -0.9171 -0.4326  0.1082
  411TIP3   OH222723   4.863   0.172   3.292  0.0083 -0.0775 -0.2660
  411TIP3    H122724   4.819   0.235   3.348  1.9865  0.8273  0.3833
  411TIP3    H222725   4.903   0.110   3.353  0.2610 -0.4306 -0.7758
  412TIP3   OH222726   1.434   0.303  11.628  0.0802 -0.4096 -0.5475
  412TIP3    H122727   1.519   0.323  11.667 -0.6127  0.9498  0.3638
  412TIP3    H222728   1.454   0.246  11.554  1.9493  1.0834 -1.2894
  413TIP3   OH222729   3.079   2.491   6.145  0.3616 -0.0905 -0.0147
  413TIP3    H122730   3.028   2.561   6.186 -1.5577 -1.1942 -0.4403
  413TIP3    H222731   3.156   2.482   6.202 -1.4332 -0.5234  2.4970
  414TIP3   OH222732   5.601   1.134   3.368  0.4428  0.0257 -0.1834
  414TIP3    H122733   5.593   1.188   3.289 -1.9797  0.4390  0.2689
  414TIP3    H222734   5.511   1.121   3.397  1.2605  0.5120  2.9341
  415TIP3   OH222735   3.700   0.404  11.213  0.4056 -0.4233  0.0579
  415TIP3    H122736   3.745   0.416  11.130 -0.0979  1.7205  0.0542
  415TIP3    H222737   3.626   0.346  11.193  0.1432  0.2765 -1.0335
  416TIP3   OH222738   1.173   2.126   2.166  0.0814 -0.2677 -0.2494
  416TIP3    H122739   1.094   2.098   2.121  0.5681 -0.4697 -0.9921
  416TIP3    H222740   1.205   2.201   2.115  0.0845  0.1518  0.3531
  417TIP3   OH222741   5.590   1.318   1.648  0.3597 -0.0737 -0.2683
  417TIP3    H122742   5.521   1.350   1.706  0.9341 -1.3977  1.2174
  417TIP3    H222743   5.671   1.350   1.687  0.7542 -0.8685 -0.4185
  418TIP3   OH222744   1.688   4.003  16.299 -0.2794 -0.0845  0.4955
  418TIP3    H122745   1.605   3.957  16.310 -2.0080  2.5961 -0.3083
  418TIP3    H222746   1.667   4.095  16.317  2.2866  0.8374 -0.7293
  419TIP3   OH222747   1.586   6.317   2.005  0.1603 -0.3515 -0.1870
  419TIP3    H122748   1.633   6.329   2.088  0.4646 -2.6235  0.0416
  419TIP3    H222749   1.571   6.222   2.000 -2.7126  0.0674 -1.2036
  420TIP3   OH222750   4.596   0.713   4.485 -0.3994  0.3641  0.0008
  420TIP3    H122751   4.512   0.679   4.514  1.1181 -2.3072  1.7062
  420TIP3    H222752   4.630   0.761   4.560  0.1667  0.2542 -0.1826
  421TIP3   OH222753   1.523   1.108   1.429 -0.5440  0.1119 -0.7257
  421TIP3    H122754   1.437   1.141   1.404 -1.1756 -1.5225 -0.8949
  421TIP3    H222755   1.512   1.078   1.519  0.8990  3.1965  0.5964
  422TIP3   OH222756   2.178   6.396   0.073 -0.0793  0.0203 -0.3831
  422TIP3    H122757   2.154   6.477   0.120  0.3524  0.6691 -1.2608
  422TIP3    H222758   2.112   6.332   0.101 -0.3142  0.6179  0.4724
  423TIP3   OH222759   2.053   1.833   1.731  0.0379  0.7120 -0.1335
  423TIP3    H122760   2.092   1.748   1.748 -0.3190  0.8771  1.6621
  423TIP3    H222761   2.118   1.897   1.760  0.4678  1.1109 -1.8168
  424TIP3   OH222762   3.801   2.887  12.941  0.0761 -0.8633  0.4184
  424TIP3    H122763   3.730   2.825  12.956  0.3294 -1.3599 -0.3562
  424TIP3    H222764   3.783   2.960  13.000 -0.3343 -1.5847  1.2055
  425TIP3   OH222765   1.953   4.257  17.087  0.6392 -0.6696 -0.0838
  425TIP3    H122766   1.914   4.230  17.171 -2.0696 -0.4039 -1.1587
  425TIP3    H222767   1.943   4.353  17.086  1.7865 -0.5374 -0.2223
  426TIP3   OH222768   6.502   5.877   3.061 -0.1716  0.7256  0.5689
  426TIP3    H122769   6.471   5.836   3.142 -0.2965 -0.5170 -0.0742
  426TIP3    H222770   6.430   5.866   2.999  0.7409 -0.3626 -0.3526
  427TIP3   OH222771   4.517   4.620   5.081 -0.3491  0.2352 -0.2936
  427TIP3    H122772   4.560   4.704   5.101 -0.3165  0.0940  0.2323
  427TIP3    H222773   4.425   4.643   5.070 -0.2137  0.4681 -0.9650
  428TIP3   OH222774   4.570   2.897  11.997  0.9210 -0.7717 -0.2389
  428TIP3    H122775   4.537   2.934  11.915 -0.0067 -0.6104  0.1875
  428TIP3    H222776   4.523   2.814  12.006  0.3747 -0.3921  0.5345
  429TIP3   OH222777   5.014   5.807   5.731 -0.0376 -0.4742  0.7694
  429TIP3    H122778   4.937   5.751   5.723 -0.1948 -0.0614 -0.9580
  429TIP3    H222779   4.983   5.893   5.703  1.0290 -0.2921  0.1095
  430TIP3   OH222780   1.913   3.885  13.345 -0.4563  0.0908 -0.7397
  430TIP3    H122781   1.834   3.859  13.393 -1.3673  1.8350 -1.1997
  430TIP3    H222782   1.985   3.857  13.401 -1.3582 -2.0118 -0.5393
  431TIP3   OH222783   3.860   4.634   4.321 -0.0713  0.1717  0.5830
  431TIP3    H122784   3.785   4.600   4.272 -0.2123  1.7607 -0.3777
  431TIP3    H222785   3.870   4.573   4.394 -0.1647 -2.0269 -1.1083
  432TIP3   OH222786   1.986   4.538   2.247  0.2962 -0.6873 -0.0795
  432TIP3    H122787   1.977   4.469   2.313  1.8722  1.2632  2.3756
  432TIP3    H222788   1.992   4.619   2.298  1.1283  1.0100 -2.6738
  433TIP3   OH222789   4.930   0.462  14.755  0.1033 -0.2504 -0.4175
  433TIP3    H122790   4.877   0.383  14.753  1.2072 -1.0894  1.5819
  433TIP3    H222791   4.887   0.520  14.692 -1.5339 -1.9011 -0.9226
  434TIP3   OH222792   1.166   4.701  14.625  0.2621  0.3792  0.0261
  434TIP3    H122793   1.108   4.646  14.573 -0.8970  0.6670  0.9813
  434TIP3    H222794   1.111   4.737  14.694  0.5842  3.9128 -1.3420
  435TIP3   OH222795   6.221   5.915  14.914 -0.4740  0.0054 -0.0481
  435TIP3    H122796   6.128   5.913  14.893 -0.4524 -1.7529 -0.1817
  435TIP3    H222797   6.264   5.891  14.832  0.0106 -0.4605  0.3341
  436TIP3   OH222798   2.239   2.539  11.957 -0.0036  0.4287  0.4668
  436TIP3    H122799   2.154   2.498  11.939 -0.2300  0.6221  1.0736
  436TIP3    H222800   2.297   2.505  11.889 -0.5420  0.2114  0.1115
  437TIP3   OH222801   1.011   3.962  16.814 -0.3764  0.3900  0.0697
  437TIP3    H122802   1.009   4.027  16.884 -0.6855  0.1160  0.3174
  437TIP3    H222803   1.101   3.963  16.782 -0.1398  0.2389  0.7295
  438TIP3   OH222804   1.080   5.578   3.751  0.0832  0.4373 -0.0248
  438TIP3    H122805   1.107   5.597   3.841  0.2250  0.2364 -0.0272
  438TIP3    H222806   1.115   5.651   3.700  1.3706 -0.2663 -0.1676
  439TIP3   OH222807   0.750   1.095  17.114  0.2838  0.2492 -0.0746
  439TIP3    H122808   0.804   1.148  17.055  0.6124  1.8130  1.5412
  439TIP3    H222809   0.660   1.115  17.088  0.4289  0.3391 -0.5221
  440TIP3   OH222810   4.021   4.649   2.352 -0.5243  0.4142 -0.5291
  440TIP3    H122811   4.036   4.566   2.307 -2.0122 -0.3250  0.2644
  440TIP3    H222812   4.085   4.650   2.423 -2.6772 -1.7693  1.6220
  441TIP3   OH222813   0.850   3.158   0.273  0.3797  0.2803 -0.0401
  441TIP3    H122814   0.867   3.138   0.181  0.4970 -2.1645  0.4403
  441TIP3    H222815   0.760   3.130   0.288  0.1727  1.1702  0.4848
  442TIP3   OH222816   5.605   4.653   4.427 -0.7696  0.1042 -0.1347
  442TIP3    H122817   5.636   4.628   4.514  2.2905 -0.1448 -1.1495
  442TIP3    H222818   5.529   4.598   4.411 -0.4883 -0.9192  1.7779
  443TIP3   OH222819   4.470   5.839  14.463  0.1283 -0.0964  0.1363
  443TIP3    H122820   4.470   5.932  14.486 -0.6036  0.1152 -0.6785
  443TIP3    H222821   4.499   5.836  14.372 -0.0399 -0.6463  0.0949
  444TIP3   OH222822   4.124   4.154  15.741 -0.0454 -0.0618  0.3928
  444TIP3    H122823   4.065   4.079  15.740  0.8412 -0.8178  1.8981
  444TIP3    H222824   4.188   4.134  15.672 -0.1754 -0.3865  0.3639
  445TIP3   OH222825   4.417   0.586   1.795 -0.0894  0.4704  0.7330
  445TIP3    H122826   4.425   0.546   1.709  0.2340  2.0257  0.0032
  445TIP3    H222827   4.490   0.647   1.801 -0.8329  1.3120  1.5872
  446TIP3   OH222828   2.646   3.456  13.858 -0.0164  0.4962  0.4564
  446TIP3    H122829   2.657   3.490  13.769  1.6644 -0.7894  0.1269
  446TIP3    H222830   2.651   3.533  13.914 -0.4501  1.2536 -0.5085
  447TIP3   OH222831   2.804   0.509   2.022 -0.0502  0.0485 -0.5103
  447TIP3    H122832   2.824   0.597   1.990  0.0327 -0.1418 -0.9999
  447TIP3    H222833   2.714   0.493   1.993  0.5845 -0.7605 -2.1275
  448TIP3   OH222834   5.348   0.246   1.690  0.1199 -0.3868  0.6861
  448TIP3    H122835   5.357   0.336   1.661  1.3893 -0.9737 -0.8584
  448TIP3    H222836   5.257   0.240   1.721  0.1466  1.5057  1.2300
  449TIP3   OH222837   5.221   0.317  13.483  0.2121  0.3386 -0.8652
  449TIP3    H122838   5.227   0.350  13.572 -0.1346  0.9562 -1.0637
  449TIP3    H222839   5.310   0.286  13.463  0.1324 -0.4438 -0.0762
  450TIP3   OH222840   0.494   3.862  16.184 -0.2634 -0.2572  0.1799
  450TIP3    H122841   0.482   3.901  16.271 -1.0862  0.8122 -0.3907
  450TIP3    H222842   0.429   3.905  16.129 -0.4018 -1.6038 -0.7711
  451TIP3   OH222843   4.141   1.107  15.964  0.3807 -0.2285  0.4388
  451TIP3    H122844   4.123   1.117  16.058 -2.3969 -0.5344  0.0360
  451TIP3    H222845   4.199   1.031  15.958 -1.9134 -2.2357  1.8014
  452TIP3   OH222846   5.058   2.525   3.187  0.4129  0.6097  0.2668
  452TIP3    H122847   5.040   2.543   3.280  0.9685 -1.0623  0.7350
  452TIP3    H222848   5.134   2.467   3.189  0.6706  0.8730 -1.2704
  453TIP3   OH222849   0.986   5.789   5.955 -0.4030  0.0552  0.1945
  453TIP3    H122850   0.892   5.780   5.973 -0.5319 -1.8900 -1.0241
  453TIP3    H222851   1.026   5.716   6.001 -0.1949 -2.1836 -3.1320
  454TIP3   OH222852   3.172   0.802  16.986  0.0552  0.1295  0.3452
  454TIP3    H122853   3.265   0.796  16.966  0.9504  2.6587  3.1033
  454TIP3    H222854   3.161   0.752  17.067 -1.2163 -0.9117 -0.4242
  455TIP3   OH222855   0.269   0.883   2.725  0.6202  1.0651  0.7868
  455TIP3    H122856   0.226   0.960   2.762 -2.0510 -0.3108  0.8274
  455TIP3    H222857   0.240   0.811   2.782 -0.9530 -0.6411 -1.9827
  456TIP3   OH222858   2.956   4.728   3.726  0.3301  0.0574 -0.2859
  456TIP3    H122859   2.970   4.779   3.805 -0.7186 -1.6790  1.1000
  456TIP3    H222860   2.893   4.660   3.751 -1.5743  0.5680 -3.1075
  457TIP3   OH222861   2.213   3.438   5.259 -0.0356  0.3291  0.1093
  457TIP3    H122862   2.281   3.389   5.304  0.3466  0.5058 -0.2663
  457TIP3    H222863   2.213   3.524   5.300 -2.7384 -0.7945  2.8549
  458TIP3   OH222864   6.091   2.321  12.391 -0.2751  0.2813  0.0879
  458TIP3    H122865   6.114   2.230  12.410 -0.1060  0.0760 -1.0318
  458TIP3    H222866   6.018   2.341  12.451  0.0227 -0.4195  0.6932
  459TIP3   OH222867   2.407   1.497  13.133  1.1588 -0.1273 -0.9854
  459TIP3    H122868   2.383   1.526  13.045  1.9782  1.0797 -0.8345
  459TIP3    H222869   2.502   1.490  13.131  1.1207 -0.9527 -0.4430
  460TIP3   OH222870   6.211   3.500  15.622 -0.7528 -0.1117  0.2101
  460TIP3    H122871   6.289   3.498  15.677 -0.1439  2.2454 -0.4470
  460TIP3    H222872   6.213   3.418  15.573  1.0236 -0.3224  0.5927
  461TIP3   OH222873   5.061   2.688  16.524  0.4136 -0.1033  0.1319
  461TIP3    H122874   5.005   2.649  16.457 -1.4520  0.5621  1.2120
  461TIP3    H222875   5.087   2.772  16.487 -2.1119  1.0957  0.8504
  462TIP3   OH222876   4.148   3.093  11.935 -0.1703 -0.0911 -0.9615
  462TIP3    H122877   4.159   3.039  12.014 -2.6551 -0.7067 -0.9598
  462TIP3    H222878   4.111   3.034  11.870  1.0066  0.6368 -2.3453
  463TIP3   OH222879   3.761   0.694  16.238  0.5036  0.9761 -0.7256
  463TIP3    H122880   3.700   0.752  16.282  0.0796 -0.4593  0.7018
  463TIP3    H222881   3.709   0.651  16.170 -0.3360 -0.7202  0.9044
  464TIP3   OH222882   0.888   3.317   5.003  0.6723  0.0039 -0.2797
  464TIP3    H122883   0.906   3.407   5.030 -0.7046  0.1665  0.1324
  464TIP3    H222884   0.810   3.323   4.949  0.2414 -1.0001  0.2052
  465TIP3   OH222885   2.673   6.145   5.472  0.3168  0.2863  0.0805
  465TIP3    H122886   2.669   6.068   5.416 -1.5649 -3.0965  4.2249
  465TIP3    H222887   2.751   6.131   5.527 -0.2868  1.0834  1.1975
  466TIP3   OH222888   3.672   2.022   5.566 -0.2313 -0.1395  0.2720
  466TIP3    H122889   3.668   1.972   5.484 -1.0927 -0.0069  0.2205
  466TIP3    H222890   3.646   1.959   5.633 -0.7337  0.0722  0.2805
  467TIP3   OH222891   4.620   6.453   2.605 -0.4861 -0.1678  0.8429
  467TIP3    H122892   4.650   6.384   2.664  1.0297  0.1448  0.4855
  467TIP3    H222893   4.650   6.426   2.518 -0.4642  0.6045  0.6021
  468TIP3   OH222894   2.332   0.029   1.074  0.6784  0.2019 -0.6981
  468TIP3    H122895   2.341   0.094   1.004  2.9525  1.4109  0.5869
  468TIP3    H222896   2.422   0.015   1.105 -0.0332 -1.8277  0.6332
  469TIP3   OH222897   1.750   2.431  15.178 -0.2652  0.4586 -0.1380
  469TIP3    H122898   1.817   2.487  15.138 -0.5071  0.7569 -0.1362
  469TIP3    H222899   1.789   2.344  15.180  0.6719  0.8772  1.1495
  470TIP3   OH222900   6.443   6.767   4.641 -0.3892 -0.2198  0.2765
  470TIP3    H122901   6.484   6.813   4.715  0.2021  0.0988 -0.2398
  470TIP3    H222902   6.483   6.807   4.564  0.4380 -1.8737 -0.1938
  471TIP3   OH222903   6.386   1.286  10.846  0.2086  0.5670 -0.4241
  471TIP3    H122904   6.440   1.254  10.918  0.3170  1.2202 -0.2065
  471TIP3    H222905   6.384   1.214  10.783  1.0226  0.3980 -0.2617
  472TIP3   OH222906   3.369   6.007   6.459  0.1415 -0.6252  0.7947
  472TIP3    H122907   3.295   6.066   6.467  1.4238  1.0486  0.9582
  472TIP3    H222908   3.335   5.921   6.483 -1.4509  0.3118  2.0429
  473TIP3   OH222909   1.353   5.591  11.288  0.5767 -0.6207  0.0148
  473TIP3    H122910   1.387   5.664  11.340 -1.4106 -0.0200  0.5809
  473TIP3    H222911   1.302   5.633  11.218 -0.1594 -1.4369  0.0354
  474TIP3   OH222912   3.750   0.373   2.103 -0.1642  0.6681 -1.2635
  474TIP3    H122913   3.763   0.312   2.030  0.0086 -1.3941  0.3910
  474TIP3    H222914   3.836   0.379   2.144 -1.0115 -1.3700  1.0492
  475TIP3   OH222915   6.770   5.664  15.658  0.0706  0.4071 -0.4008
  475TIP3    H122916   6.753   5.734  15.721 -1.4189 -1.0743  0.9429
  475TIP3    H222917   6.863   5.645  15.669  0.0959  0.9773  0.5098
  476TIP3   OH222918   5.916   0.139  11.821  0.3188 -0.3833 -0.8820
  476TIP3    H122919   5.925   0.074  11.752  1.8835 -1.3846  0.1910
  476TIP3    H222920   5.873   0.093  11.893  2.5375 -0.7068  0.3532
  477TIP3   OH222921   4.985   3.388  11.714  0.0146 -0.1216  0.7569
  477TIP3    H122922   5.037   3.468  11.724 -0.4161  0.3350 -0.4935
  477TIP3    H222923   5.050   3.320  11.694  0.2004  0.3498 -0.3102
  478TIP3   OH222924   1.658   3.727   4.106  0.6359  0.7054 -0.0752
  478TIP3    H122925   1.568   3.706   4.078  0.1930 -0.0149  1.7283
  478TIP3    H222926   1.658   3.823   4.114 -0.0434  0.7059  0.0641
  479TIP3   OH222927   0.408   5.039   5.705  0.2977 -0.2702 -0.4255
  479TIP3    H122928   0.379   4.948   5.704 -0.4470 -0.0463 -1.7893
  479TIP3    H222929   0.486   5.039   5.761 -1.0782 -1.2761  1.6103
  480TIP3   OH222930   5.724   3.696  13.341 -0.2368  0.4899 -0.4621
  480TIP3    H122931   5.694   3.621  13.393 -1.1858  1.7395  0.8461
  480TIP3    H222932   5.786   3.658  13.279  0.6518 -1.1422  1.3105
  481TIP3   OH222933   6.806   5.796  16.205 -0.4632  0.4588  0.4022
  481TIP3    H122934   6.715   5.767  16.194 -0.0987 -0.3740 -0.5660
  481TIP3    H222935   6.798   5.885  16.240 -1.6232 -0.1000  1.6536
  482TIP3   OH222936   2.295   2.627   1.397  0.0802  0.4834  0.1766
  482TIP3    H122937   2.377   2.629   1.445 -0.8013 -0.9994  1.8630
  482TIP3    H222938   2.228   2.644   1.463 -1.0122  1.1489 -1.0603
  483TIP3   OH222939   3.665   5.209   0.335  0.2207  0.2620 -0.4656
  483TIP3    H122940   3.699   5.188   0.421  1.2548 -0.1969 -0.9662
  483TIP3    H222941   3.648   5.124   0.294  0.3448  0.4564 -0.9325
  484TIP3   OH222942   5.723   6.727   5.387  0.5568 -0.1991 -0.1328
  484TIP3    H122943   5.671   6.660   5.431  0.0294 -0.3949 -1.0285
  484TIP3    H222944   5.670   6.806   5.394  0.4995 -0.2167 -0.3502
  485TIP3   OH222945   2.983   6.027  11.666  0.0641 -0.9818  0.0903
  485TIP3    H122946   3.073   6.059  11.655 -0.8597  1.2486 -1.6211
  485TIP3    H222947   2.957   5.998  11.578 -1.7306  0.8681 -0.0522
  486TIP3   OH222948   2.557   4.658   1.009  0.0837  0.6551 -0.0670
  486TIP3    H122949   2.469   4.683   1.038  0.7006  0.3066  2.3124
  486TIP3    H222950   2.555   4.563   1.006 -0.2065  0.7001 -2.1229
  487TIP3   OH222951   4.378   3.209   4.640 -0.2248 -0.2800 -0.0311
  487TIP3    H122952   4.330   3.288   4.665  0.2367  0.0306 -0.1165
  487TIP3    H222953   4.466   3.221   4.676  1.1116  1.0951 -3.3504
  488TIP3   OH222954   6.173   1.934  14.008  0.2925  0.5251 -0.0776
  488TIP3    H122955   6.209   1.986  13.937  0.9039  0.6708  0.3292
  488TIP3    H222956   6.240   1.937  14.076  0.4508 -1.0062 -0.1349
  489TIP3   OH222957   4.316   1.839   0.189  0.4785 -0.0439 -0.7750
  489TIP3    H122958   4.314   1.906   0.120  1.0059  0.3163 -0.4476
  489TIP3    H222959   4.229   1.800   0.187  0.8177 -0.7858 -2.3698
  490TIP3   OH222960   5.350   2.106  11.834  0.0431 -0.7256  0.0574
  490TIP3    H122961   5.394   2.093  11.918 -0.8876  1.2017  0.9137
  490TIP3    H222962   5.257   2.094  11.854 -0.4823  2.3307  0.0259
  491TIP3   OH222963   2.386   2.171  12.974  0.1488 -0.1463 -0.5107
  491TIP3    H122964   2.318   2.212  12.921 -0.4717 -0.0001  0.3811
  491TIP3    H222965   2.411   2.237  13.038  1.3735 -0.0833 -1.0138
  492TIP3   OH222966   3.259   6.489  11.697  0.3658  0.5919  0.2244
  492TIP3    H122967   3.259   6.552  11.625  0.8695 -0.0448 -0.3435
  492TIP3    H222968   3.172   6.497  11.735 -0.7231 -0.6145 -1.8397
  493TIP3   OH222969   3.555   1.416  12.253 -0.0141  0.1661 -0.0268
  493TIP3    H122970   3.470   1.396  12.214 -0.9916  1.1633  1.4849
  493TIP3    H222971   3.563   1.511  12.245  0.4701  0.1985  0.7958
  494TIP3   OH222972   0.900   2.663   2.832  0.1732 -0.1049  0.6182
  494TIP3    H122973   0.954   2.639   2.757  1.1760 -3.4178  2.1618
  494TIP3    H222974   0.939   2.744   2.865  1.0992  0.2118 -1.1406
  495TIP3   OH222975   0.319   2.923   2.185  0.0988 -0.2185 -0.0051
  495TIP3    H122976   0.297   2.988   2.119 -1.8855 -0.9507 -0.1332
  495TIP3    H222977   0.305   2.967   2.269 -0.0492 -0.1113 -0.0869
  496TIP3   OH222978   3.857   3.622   0.371 -0.2536 -0.0723 -0.3376
  496TIP3    H122979   3.934   3.618   0.429  0.3658  0.1111 -1.1255
  496TIP3    H222980   3.886   3.675   0.297 -1.9001  2.0504  0.4322
  497TIP3   OH222981   6.590   5.570   1.467 -0.0360  0.7538 -0.1165
  497TIP3    H122982   6.612   5.530   1.382  0.2437  0.7633 -0.0490
  497TIP3    H222983   6.498   5.595   1.458  0.1412  1.2547 -0.6111
  498TIP3   OH222984   2.302   5.642   4.604 -0.1739  0.6597 -0.1014
  498TIP3    H122985   2.376   5.703   4.612 -1.0984  1.6373  1.4711
  498TIP3    H222986   2.342   5.559   4.578  1.5825  0.9885  1.3711
  499TIP3   OH222987   4.138   3.125   5.933  0.1626 -0.0960  0.1591
  499TIP3    H122988   4.092   3.096   5.854  1.4252  0.4608 -0.8231
  499TIP3    H222989   4.188   3.202   5.905 -1.4438  1.8354  2.1644
  500TIP3   OH222990   4.428   2.354  12.244 -0.5070  0.0888  0.2951
  500TIP3    H122991   4.392   2.272  12.277  1.6426 -1.3236 -0.5964
  500TIP3    H222992   4.509   2.366  12.294 -0.5692  1.4215  0.0960
  501TIP3   OH222993   0.861   3.289   3.336  0.1779 -0.3501 -0.0437
  501TIP3    H122994   0.946   3.250   3.356  0.8994  0.5318 -1.2309
  501TIP3    H222995   0.870   3.321   3.246 -0.7112  1.6473  0.5292
  502TIP3   OH222996   5.600   3.899  13.835 -0.3163 -0.4229 -0.0897
  502TIP3    H122997   5.663   3.928  13.901 -0.3027  0.3809 -0.4393
  502TIP3    H222998   5.521   3.951  13.853 -0.5887 -0.7936 -0.1981
  503TIP3   OH222999   6.153   4.375   6.828 -0.3103 -0.1176  0.3411
  503TIP3    H123000   6.184   4.303   6.774 -0.5771 -0.4690  0.6510
  503TIP3    H223001   6.200   4.452   6.795  1.0288 -0.6647  0.9156
  504TIP3   OH223002   3.854   5.075  15.021 -0.2901 -0.4370  0.2683
  504TIP3    H123003   3.820   4.999  14.974  0.4355  0.8491 -2.5152
  504TIP3    H223004   3.907   5.037  15.092  1.1206 -2.6183 -1.7903
  505TIP3   OH223005   2.049   1.477   4.339  0.1163 -0.1102 -0.7641
  505TIP3    H123006   1.991   1.401   4.334  0.9869 -0.8026 -0.5108
  505TIP3    H223007   2.116   1.461   4.273  0.4805  0.2905 -0.4988
  506TIP3   OH223008   0.385   0.156  11.257  0.5376 -0.8139 -0.1097
  506TIP3    H123009   0.290   0.168  11.259  0.5375  0.7600 -3.1559
  506TIP3    H223010   0.421   0.242  11.279  1.2773 -1.4118  1.0814
  507TIP3   OH223011   0.857   0.796  11.940 -0.3566 -0.0023 -0.1778
  507TIP3    H123012   0.805   0.775  11.863 -0.6251 -0.9673  0.2619
  507TIP3    H223013   0.937   0.836  11.904 -0.1110 -1.1860 -1.0126
  508TIP3   OH223014   2.859   6.697   0.161  0.3081 -0.2287  0.0132
  508TIP3    H123015   2.897   6.611   0.181  0.6632 -0.2955 -0.9141
  508TIP3    H223016   2.796   6.712   0.232  1.2216 -0.6355  0.9456
  509TIP3   OH223017   5.603   6.185  15.290  0.0476 -0.1150 -0.4391
  509TIP3    H123018   5.689   6.228  15.292 -0.5807  1.1821 -0.0694
  509TIP3    H223019   5.552   6.231  15.356 -0.6420 -1.5438  0.0795
  510TIP3   OH223020   4.776   1.492   0.575 -0.3573  0.1203  0.5577
  510TIP3    H123021   4.747   1.450   0.656 -0.6011  0.2882  0.5606
  510TIP3    H223022   4.809   1.578   0.603  1.0354 -0.4290  0.6699
  511TIP3   OH223023   1.546   5.775   3.994 -0.5064  0.2299 -0.0823
  511TIP3    H123024   1.584   5.734   4.072 -2.3990 -1.0833  0.2197
  511TIP3    H223025   1.548   5.705   3.928 -3.6724 -0.4618  0.3999
  512TIP3   OH223026   3.575   0.784   2.652 -0.4183  0.5346  0.1353
  512TIP3    H123027   3.565   0.748   2.741  3.9788 -0.6122  0.3943
  512TIP3    H223028   3.513   0.733   2.599 -0.8368 -1.0548  2.0225
  513TIP3   OH223029   1.901   0.253   1.685  0.0881  0.3678 -0.5440
  513TIP3    H123030   1.888   0.170   1.638 -2.6425  1.0246 -1.1249
  513TIP3    H223031   1.950   0.228   1.764 -1.1785 -1.9213 -0.3959
  514TIP3   OH223032   3.462   1.483  13.092  0.4387  0.5826  0.2400
  514TIP3    H123033   3.403   1.517  13.025  2.1649  0.9578 -1.1768
  514TIP3    H223034   3.449   1.389  13.091 -0.6214  0.7183  0.4547
  515TIP3   OH223035   1.911   3.553   1.691  0.1433 -0.3145  0.0508
  515TIP3    H123036   1.867   3.601   1.761  2.2375  0.4566  0.9040
  515TIP3    H223037   1.851   3.561   1.616 -1.3545  0.2833  1.2467
  516TIP3   OH223038   6.602   0.561  15.037 -0.1316  0.1772 -0.0320
  516TIP3    H123039   6.566   0.477  15.007  2.1553 -0.0417 -2.5821
  516TIP3    H223040   6.542   0.589  15.106 -1.9056 -2.7528 -0.1834
  517TIP3   OH223041   5.303   0.630   4.739  0.7179 -0.5177 -0.0906
  517TIP3    H123042   5.284   0.591   4.654 -0.2578  1.2668 -0.7479
  517TIP3    H223043   5.240   0.590   4.799 -0.9605  0.6827 -0.9550
  518TIP3   OH223044   3.800   1.918   0.110  0.8428 -0.5101 -0.5017
  518TIP3    H123045   3.768   1.833   0.080 -0.3390 -0.3985  0.3660
  518TIP3    H223046   3.851   1.952   0.037 -1.2573 -0.6019 -2.1176
  519TIP3   OH223047   4.328   3.167   3.484  0.3195  0.4598  0.0657
  519TIP3    H123048   4.297   3.189   3.572  0.6892 -0.1259  0.3478
  519TIP3    H223049   4.281   3.227   3.426 -0.2308  0.5711  0.6238
  520TIP3   OH223050   3.330   6.281   5.747  0.4932  0.3452 -0.0232
  520TIP3    H123051   3.371   6.311   5.828 -0.0128 -0.7945  0.6818
  520TIP3    H223052   3.403   6.277   5.684  0.5513  3.1705 -0.2655
  521TIP3   OH223053   6.210   1.952  12.959 -0.1399 -0.3320  0.0787
  521TIP3    H123054   6.146   1.883  12.977  0.5004 -0.5234  1.7559
  521TIP3    H223055   6.290   1.904  12.934  0.6341 -0.3034  2.3034
  522TIP3   OH223056   3.491   0.752  15.963  0.3192 -0.3087 -0.3510
  522TIP3    H123057   3.435   0.693  16.014 -0.2965  0.0640 -0.6023
  522TIP3    H223058   3.482   0.837  16.006  0.4003 -0.1621 -0.6248
  523TIP3   OH223059   1.425   6.353   5.496 -0.3198  0.1084  0.7966
  523TIP3    H123060   1.455   6.393   5.414  0.9044  1.8818  2.0266
  523TIP3    H223061   1.330   6.350   5.487 -0.4168  2.4846  0.1867
  524TIP3   OH223062   1.346   2.390  15.038 -0.0235  0.0653  0.3551
  524TIP3    H123063   1.260   2.361  15.068 -0.6723  2.7440  1.2886
  524TIP3    H223064   1.340   2.389  14.942 -0.8638 -0.3636  0.4024
  525TIP3   OH223065   4.937   5.423  11.977  0.1233  0.3201 -0.0221
  525TIP3    H123066   5.009   5.380  11.930  0.3040  1.6770 -1.0668
  525TIP3    H223067   4.946   5.394  12.067  1.0084 -0.7916 -0.4472
  526TIP3   OH223068   4.572   5.862  11.015 -0.6624  0.0344 -0.6499
  526TIP3    H123069   4.640   5.927  11.033  1.7824 -1.6620 -2.9176
  526TIP3    H223070   4.491   5.912  11.013  0.6595  2.4205  0.8406
  527TIP3   OH223071   5.650   4.284   1.823 -0.1872  0.2633 -0.0820
  527TIP3    H123072   5.690   4.202   1.792 -0.1132  0.1889  0.2093
  527TIP3    H223073   5.654   4.278   1.918 -0.8503  0.2744 -0.0477
  528TIP3   OH223074   6.028   1.437   2.589 -0.0199  1.0173 -0.1150
  528TIP3    H123075   5.958   1.372   2.583  0.5023  0.2727  1.4153
  528TIP3    H223076   6.035   1.455   2.682  0.1738  2.9480 -0.4700
  529TIP3   OH223077   0.403   4.609  17.010 -1.0473 -0.3440 -0.3810
  529TIP3    H123078   0.390   4.700  17.037 -2.7886 -0.8516  0.7013
  529TIP3    H223079   0.453   4.570  17.081 -1.3117 -0.4980 -0.2779
  530TIP3   OH223080   1.589   5.805   1.244  0.1611 -0.4719 -0.6235
  530TIP3    H123081   1.515   5.744   1.251 -0.9083  0.9586  1.7674
  530TIP3    H223082   1.559   5.885   1.287  2.4724  0.8275 -1.2489
  531TIP3   OH223083   3.473   5.509  15.972 -0.2244  0.3864  0.0153
  531TIP3    H123084   3.535   5.443  15.940  1.6798 -0.2475  4.2740
  531TIP3    H223085   3.516   5.593  15.953  1.3409 -0.0044  1.4924
  532TIP3   OH223086   3.078   1.975   2.804  0.2337 -0.4312  0.0238
  532TIP3    H123087   3.116   1.988   2.891  1.0659 -1.7760 -0.1167
  532TIP3    H223088   2.987   2.004   2.813  0.2666 -0.6884  1.3843
  533TIP3   OH223089   5.871   1.873  16.181  0.6073 -0.3574 -0.4304
  533TIP3    H123090   5.831   1.804  16.128  0.5192  0.6962 -1.7884
  533TIP3    H223091   5.945   1.903  16.129 -0.3553  1.7430 -0.6929
  534TIP3   OH223092   2.272   4.128  16.139 -0.1841  0.1722  0.1842
  534TIP3    H123093   2.202   4.063  16.140 -0.5769  0.5974  0.7265
  534TIP3    H223094   2.345   4.084  16.095 -1.0362 -0.0198 -1.1156
  535TIP3   OH223095   4.102   5.728  15.014 -0.1333 -0.5497 -0.0855
  535TIP3    H123096   4.183   5.766  15.047 -0.9653  1.3963 -0.1550
  535TIP3    H223097   4.034   5.765  15.070 -1.0860 -1.3110 -0.7018
  536TIP3   OH223098   1.951   4.270   3.330 -0.3092  0.2782 -0.1472
  536TIP3    H123099   1.932   4.195   3.273  0.7892 -1.2426  1.3612
  536TIP3    H223100   2.043   4.259   3.354 -0.3910  1.5656  0.8887
  537TIP3   OH223101   2.574   6.332  11.570 -0.3396  0.1626 -0.5183
  537TIP3    H123102   2.642   6.324  11.637  0.5790  0.7872 -1.3489
  537TIP3    H223103   2.622   6.344  11.488 -1.4174  2.8568 -0.8666
  538TIP3   OH223104   5.068   2.263  13.638 -0.6103 -0.3734 -0.8162
  538TIP3    H123105   5.077   2.203  13.564  1.5441 -1.7180  0.4451
  538TIP3    H223106   5.015   2.214  13.702 -1.2947  0.2387 -0.9000
  539TIP3   OH223107   2.701   1.836   5.147  0.8005  0.1315  0.9865
  539TIP3    H123108   2.643   1.834   5.223  0.3917  0.3438  0.6837
  539TIP3    H223109   2.741   1.923   5.149 -1.0296  1.0797 -0.3698
  540TIP3   OH223110   5.145   3.366  15.976 -0.6227 -0.3080 -0.4054
  540TIP3    H123111   5.104   3.292  15.932 -1.5402 -0.2479  0.3236
  540TIP3    H223112   5.148   3.342  16.068  0.1467  0.0820 -0.3188
  541TIP3   OH223113   2.053   3.351  12.708  0.4673  0.4197  0.2361
  541TIP3    H123114   2.005   3.337  12.790  0.1865 -1.7571 -0.2614
  541TIP3    H223115   2.082   3.443  12.713 -0.8068  0.7738  2.0847
  542TIP3   OH223116   4.507   3.350   0.333  0.0540  0.0803  0.1608
  542TIP3    H123117   4.528   3.391   0.249  0.4270  1.0231  0.7032
  542TIP3    H223118   4.586   3.300   0.355 -0.1378 -0.3753 -0.1579
  543TIP3   OH223119   5.739   2.787  14.683  0.1786  0.4004 -0.7117
  543TIP3    H123120   5.793   2.772  14.761 -0.7796  3.0002  0.5839
  543TIP3    H223121   5.786   2.853  14.633  0.2585 -0.4719 -1.8117
  544TIP3   OH223122   5.881   3.314  15.242 -0.3186 -0.0724  0.1132
  544TIP3    H123123   5.936   3.236  15.250 -0.7030 -0.4068 -0.4337
  544TIP3    H223124   5.791   3.281  15.242 -0.4661  0.2844 -0.9377
  545TIP3   OH223125   1.231   6.741   1.676  0.1416 -0.4179 -0.1319
  545TIP3    H123126   1.225   6.646   1.687  0.5821 -0.6343 -1.5864
  545TIP3    H223127   1.213   6.776   1.763  0.0068 -1.8351  0.4379
  546TIP3   OH223128   0.571   2.558   5.433 -0.2463 -0.9745 -0.3795
  546TIP3    H123129   0.588   2.621   5.363 -0.9125 -1.4020 -0.9494
  546TIP3    H223130   0.557   2.612   5.511  1.0242 -0.5149 -0.4438
  547TIP3   OH223131   4.271   0.260   0.752  0.5737  0.4170 -0.0453
  547TIP3    H123132   4.258   0.292   0.663  1.7037  0.2764 -0.2727
  547TIP3    H223133   4.182   0.253   0.788  0.1051  0.4947 -1.1441
  548TIP3   OH223134   4.057   2.824  13.393 -0.0646 -0.1285 -0.8448
  548TIP3    H123135   4.065   2.888  13.322  2.4952  0.7403  0.1224
  548TIP3    H223136   4.048   2.877  13.472  0.4362 -0.9796 -0.1994
  549TIP3   OH223137   1.336   3.499  11.814  0.3228  0.7031 -0.7996
  549TIP3    H123138   1.360   3.580  11.769 -0.3334  0.6954 -1.1817
  549TIP3    H223139   1.291   3.447  11.747  1.0978 -0.1564 -0.6726
  550TIP3   OH223140   2.098   3.442  11.330  0.0137  0.0835  0.3378
  550TIP3    H123141   2.095   3.417  11.238 -1.2976  0.2986  0.3046
  550TIP3    H223142   2.134   3.531  11.330 -1.0233  0.5115 -0.0713
  551TIP3   OH223143   3.178   0.535   0.589  0.2847  0.4555 -0.2688
  551TIP3    H123144   3.157   0.613   0.537  1.0324  0.0597 -1.1984
  551TIP3    H223145   3.239   0.566   0.655 -0.1921  0.8451  0.0004
  552TIP3   OH223146   5.950   6.165  14.933  0.2821 -0.7445 -0.1720
  552TIP3    H123147   5.861   6.132  14.937 -0.2354  0.5377 -0.6420
  552TIP3    H223148   5.970   6.169  14.839  0.1849  0.5964 -0.1529
  553TIP3   OH223149   0.803   1.349   3.936  0.2413  0.0066  0.3950
  553TIP3    H123150   0.821   1.433   3.893  0.3788 -0.2725 -0.0989
  553TIP3    H223151   0.809   1.284   3.866 -1.2496 -0.2706  0.4922
  554TIP3   OH223152   2.607   0.449   4.989  0.1288  0.5306 -0.0753
  554TIP3    H123153   2.517   0.471   5.013  0.8844  1.3895  2.2005
  554TIP3    H223154   2.646   0.413   5.068  1.6680 -0.3164 -1.1527
  555TIP3   OH223155   0.002   0.372   1.469 -0.4553  0.7889 -0.4110
  555TIP3    H123156   0.025   0.464   1.484 -0.2163  0.5954  0.5026
  555TIP3    H223157   0.042   0.325   1.543  2.9404 -0.6258 -2.8929
  556TIP3   OH223158   6.144   2.766   5.619  0.2720  0.5027 -0.2299
  556TIP3    H123159   6.189   2.706   5.560  1.6207  0.8193  0.4193
  556TIP3    H223160   6.212   2.794   5.681 -0.9525  0.6195  1.1159
  557TIP3   OH223161   0.033   4.049   6.578 -0.0220  0.1505  0.5185
  557TIP3    H123162   0.094   4.001   6.523 -0.7216  1.8531 -1.8788
  557TIP3    H223163   0.074   4.135   6.589 -1.0381  0.6380  0.5855
  558TIP3   OH223164   0.247   4.159  14.371 -0.0658  0.0224  0.3740
  558TIP3    H123165   0.278   4.121  14.454 -0.9117 -0.1324  0.6308
  558TIP3    H223166   0.315   4.223  14.348  1.6277 -1.8849 -0.2922
  559TIP3   OH223167   6.104   5.307  13.981  0.1654  0.2962 -0.1087
  559TIP3    H123168   6.058   5.275  13.904  1.6695 -1.2502 -0.4152
  559TIP3    H223169   6.196   5.288  13.964  0.5399 -0.1147  2.0867
  560TIP3   OH223170   5.643   4.512   1.690 -0.0287 -0.0054  0.4379
  560TIP3    H123171   5.642   4.432   1.744 -1.6283  1.5261  2.8868
  560TIP3    H223172   5.735   4.528   1.672  0.5682 -0.8544  2.4309
  561TIP3   OH223173   2.568   1.780   1.047 -0.3976  0.2374 -0.2677
  561TIP3    H123174   2.490   1.748   1.092  0.0442  1.3263  1.3789
  561TIP3    H223175   2.535   1.820   0.967 -1.8963  2.8301  1.4894
  562TIP3   OH223176   2.098   3.402   4.197 -0.4125 -0.3582 -0.3399
  562TIP3    H123177   2.139   3.323   4.161 -0.1960 -0.6543  0.5509
  562TIP3    H223178   2.028   3.369   4.253 -0.3901  0.0929 -0.0467
  563TIP3   OH223179   6.800   4.976  11.475  0.1138  0.2406 -0.3633
  563TIP3    H123180   6.870   4.959  11.538 -0.8630 -0.4194  0.5545
  563TIP3    H223181   6.763   5.060  11.503 -0.2623 -0.0093 -0.1100
  564TIP3   OH223182   3.522   0.042  13.363  0.0049  0.3916 -0.4178
  564TIP3    H123183   3.453   0.016  13.302 -0.3888  0.3977  0.0129
  564TIP3    H223184   3.481   0.109  13.418 -0.0296 -0.4191  0.5910
  565TIP3   OH223185   4.769   1.581   4.361  0.1623 -0.4751 -0.0871
  565TIP3    H123186   4.715   1.502   4.361  2.3220 -2.1407 -2.5672
  565TIP3    H223187   4.845   1.559   4.414 -0.0060  0.6147  0.6385
  566TIP3   OH223188   4.080   5.846   0.749 -0.2552  0.1845  0.4372
  566TIP3    H123189   4.008   5.795   0.711 -0.9015  1.6786 -0.4638
  566TIP3    H223190   4.148   5.782   0.767 -0.6322 -0.8872 -1.5853
  567TIP3   OH223191   0.056   5.796   4.398 -0.0824 -0.1183  0.0617
  567TIP3    H123192   0.066   5.712   4.442 -0.3924  0.5384  1.4415
  567TIP3    H223193   0.085   5.861   4.462  3.3952  0.7229 -2.1090
  568TIP3   OH223194   2.322   0.319   2.422 -0.1674  0.3036 -0.0725
  568TIP3    H123195   2.325   0.227   2.397  0.0022  0.0566  0.8096
  568TIP3    H223196   2.387   0.361   2.366 -0.8211  0.0432 -1.0535
  569TIP3   OH223197   4.158   1.594  12.229 -0.0687 -0.0365  0.6041
  569TIP3    H123198   4.216   1.660  12.192  1.1736 -1.4650 -0.1243
  569TIP3    H223199   4.073   1.611  12.188  0.7151 -0.1065 -1.1613
  570TIP3   OH223200   6.685   3.411  15.497  0.4800 -0.4122  0.0768
  570TIP3    H123201   6.753   3.478  15.482 -1.4252  2.2039  2.1379
  570TIP3    H223202   6.670   3.373  15.411  1.8262  1.7076 -1.1930
  571TIP3   OH223203   6.467   5.731   1.980  0.4162  0.0098  0.0436
  571TIP3    H123204   6.525   5.655   1.985  0.0614 -0.2792 -0.2097
  571TIP3    H223205   6.403   5.708   1.912  0.2165  0.4704  0.0729
  572TIP3   OH223206   3.359   2.850  12.717 -0.7710  0.2149 -0.2671
  572TIP3    H123207   3.393   2.931  12.677  0.3893 -1.4687 -2.9658
  572TIP3    H223208   3.414   2.837  12.794 -0.8788  1.8860  0.1340
  573TIP3   OH223209   3.494   5.338   2.991  0.1113 -0.0941  0.6577
  573TIP3    H123210   3.495   5.419   3.041 -0.8897  0.7345 -0.5861
  573TIP3    H223211   3.442   5.277   3.043  1.7307 -0.3237  2.0952
  574TIP3   OH223212   6.412   6.276  16.815  0.1683 -0.5907 -0.0027
  574TIP3    H123213   6.395   6.318  16.899 -1.7740 -0.1316 -0.5731
  574TIP3    H223214   6.433   6.348  16.756 -0.3532 -0.7142 -0.3421
  575TIP3   OH223215   0.173   1.327  13.893  0.3986  0.1585  0.4227
  575TIP3    H123216   0.089   1.367  13.910  0.3737 -0.1801  1.1053
  575TIP3    H223217   0.204   1.296  13.978  1.1865  0.2270  0.1782
  576TIP3   OH223218   0.951   1.902   0.426  0.3681  1.1197 -0.1199
  576TIP3    H123219   0.981   1.903   0.335  0.7626  0.2798 -0.0063
  576TIP3    H223220   0.939   1.994   0.448 -2.5974  1.3236 -1.9536
  577TIP3   OH223221   5.313   6.753  16.984 -0.3139  0.1483 -0.0409
  577TIP3    H123222   5.286   6.701  16.908 -0.8890  1.0826 -0.5032
  577TIP3    H223223   5.289   6.700  17.060  0.2928 -0.8126 -0.5059
  578TIP3   OH223224   4.742   3.703  13.254  0.4248  0.1367 -0.0891
  578TIP3    H123225   4.745   3.632  13.318  0.2525 -0.3584 -0.6205
  578TIP3    H223226   4.791   3.774  13.295 -0.9094  0.3547  1.2103
  579TIP3   OH223227   5.235   6.334   1.597  0.2773 -0.2884  1.0222
  579TIP3    H123228   5.329   6.318   1.602  0.3502  0.3573  1.8025
  579TIP3    H223229   5.221   6.415   1.645 -0.8016 -0.8283  1.6591
  580TIP3   OH223230   0.831   6.378   2.278 -0.0408  0.4327 -0.0839
  580TIP3    H123231   0.786   6.462   2.277  0.1123  0.5195  0.2106
  580TIP3    H223232   0.917   6.396   2.240 -0.8927 -0.1192 -2.4855
  581TIP3   OH223233   3.586   4.227  11.628  0.7388 -0.1118 -0.7588
  581TIP3    H123234   3.557   4.275  11.551  1.5064  0.5642 -0.6411
  581TIP3    H223235   3.622   4.294  11.686 -0.2065 -0.5555  0.3859
  582TIP3   OH223236   4.989   6.257   1.545  0.3665 -0.2948  0.5399
  582TIP3    H123237   5.072   6.304   1.554  0.9529 -1.0921 -0.5011
  582TIP3    H223238   4.937   6.287   1.619  1.2657  0.8647  0.7394
  583TIP3   OH223239   1.719   5.050  13.197 -0.5885 -0.2955  0.0685
  583TIP3    H123240   1.714   4.978  13.259 -0.9783 -0.1583  0.1969
  583TIP3    H223241   1.809   5.081  13.203 -1.3817  1.8342  2.9673
  584TIP3   OH223242   1.433   5.497  11.723  0.2597 -0.2223  0.4489
  584TIP3    H123243   1.470   5.554  11.655  0.3225 -1.8820 -0.9818
  584TIP3    H223244   1.479   5.523  11.803  1.6258  0.4650 -0.5132
  585TIP3   OH223245   5.004   5.077   0.239 -0.3830  0.5558 -0.6713
  585TIP3    H123246   5.099   5.070   0.241 -0.3341  1.0673 -1.1336
  585TIP3    H223247   4.979   5.042   0.153 -0.5082  1.6249 -1.0798
  586TIP3   OH223248   4.685   4.892   1.045 -0.4090 -0.6379 -0.6216
  586TIP3    H123249   4.720   4.808   1.016  0.9322 -0.2201 -0.2673
  586TIP3    H223250   4.590   4.884   1.033 -0.1999 -1.7909 -1.6300
  587TIP3   OH223251   1.843   3.384  11.058  0.2407  0.2355  0.4947
  587TIP3    H123252   1.818   3.358  10.969  0.6336  1.5557 -0.0400
  587TIP3    H223253   1.933   3.354  11.068  0.7637  1.4860 -0.1930
  588TIP3   OH223254   4.647   4.451  13.497 -0.3680 -0.4271  0.2615
  588TIP3    H123255   4.697   4.531  13.513 -0.5469 -0.5114  1.2689
  588TIP3    H223256   4.574   4.455  13.557  0.3238 -1.9532  1.2718
  589TIP3   OH223257   1.192   0.078   2.231  0.2546  0.5868 -0.1228
  589TIP3    H123258   1.282   0.058   2.203  1.1288  0.6985  2.3799
  589TIP3    H223259   1.200   0.157   2.284 -1.1507  0.0634  0.9353
  590TIP3   OH223260   1.752   4.408  12.462 -0.3199  0.1272 -0.4380
  590TIP3    H123261   1.666   4.410  12.420 -0.8646  1.9171  0.6638
  590TIP3    H223262   1.792   4.492  12.440  0.6773 -0.1965  0.0421
  591TIP3   OH223263   4.616   4.340  16.045  0.9743  0.3446  0.1143
  591TIP3    H123264   4.651   4.313  15.960 -0.2813  1.2067 -0.7249
  591TIP3    H223265   4.522   4.351  16.029  0.1017 -2.6320  2.4576
  592TIP3   OH223266   6.372   5.791   5.630 -0.1432 -0.0334 -0.0110
  592TIP3    H123267   6.320   5.866   5.601  0.0678  0.1736  0.1360
  592TIP3    H223268   6.463   5.819   5.616 -0.0713 -0.4257 -0.3599
  593TIP3   OH223269   1.831   2.863  17.171  0.1998  0.0381 -0.0390
  593TIP3    H123270   1.813   2.805  17.097 -0.3632 -0.0465  0.1578
  593TIP3    H223271   1.894   2.815  17.225 -0.4030 -0.4756  0.2179
  594TIP3   OH223272   1.019   5.797  14.888 -0.4320  0.4128 -0.6782
  594TIP3    H123273   1.073   5.775  14.813 -0.7929 -0.4977 -0.6856
  594TIP3    H223274   1.081   5.831  14.953  0.5754 -2.8134  0.2171
  595TIP3   OH223275   4.313   2.805  14.867  0.1869  0.1240 -0.0227
  595TIP3    H123276   4.272   2.878  14.822  0.5192  0.2125 -0.1844
  595TIP3    H223277   4.277   2.808  14.956 -0.1176  0.2264 -0.1489
  596TIP3   OH223278   1.374   6.763   4.172 -0.9697 -0.1333 -0.8390
  596TIP3    H123279   1.366   6.858   4.172 -0.3292 -0.0669  0.0902
  596TIP3    H223280   1.460   6.746   4.133 -0.4496 -0.2365  0.2838
  597TIP3   OH223281   0.681   5.192   1.410 -0.4573  0.6828  0.2428
  597TIP3    H123282   0.627   5.151   1.477 -0.4557  1.0473  0.4672
  597TIP3    H223283   0.637   5.275   1.391  0.6765  1.5632  1.3126
  598TIP3   OH223284   2.845   2.233   3.555  1.0631  0.1926  0.0704
  598TIP3    H123285   2.870   2.216   3.464  2.1420 -0.7452  0.5243
  598TIP3    H223286   2.866   2.326   3.568 -1.4131  1.0399 -1.3320
  599TIP3   OH223287   5.007   6.793   2.523  0.4578  0.1357 -0.5008
  599TIP3    H123288   4.913   6.782   2.506  0.1668 -0.2823  1.1680
  599TIP3    H223289   5.042   6.704   2.516  0.5760  0.1667 -0.2968
  600TIP3   OH223290   4.591   1.903  13.079  0.4462 -0.0551  0.4209
  600TIP3    H123291   4.562   1.970  13.140  0.8967 -0.9057  1.6206
  600TIP3    H223292   4.674   1.936  13.044  0.7101 -0.0178  1.0722
  601TIP3   OH223293   3.024   6.515  14.292  0.1843  0.8585  0.4243
  601TIP3    H123294   3.100   6.564  14.321 -0.2038  1.4314  0.4892
  601TIP3    H223295   2.953   6.579  14.288 -0.0837  0.5285 -0.5217
  602TIP3   OH223296   1.909   4.435   4.055  0.1294  0.2866 -0.1325
  602TIP3    H123297   1.882   4.473   3.972  0.5922  0.2705 -0.2913
  602TIP3    H223298   1.866   4.349   4.057 -1.2859  0.9727  0.4346
  603TIP3   OH223299   4.545   5.183  15.846  0.2369  0.6030  0.2103
  603TIP3    H123300   4.456   5.190  15.879 -0.1147  0.0008 -0.5805
  603TIP3    H223301   4.543   5.107  15.787  1.1614  0.8483 -0.1541
  604TIP3   OH223302   2.444   3.844   5.352 -0.2594  0.1781 -0.4222
  604TIP3    H123303   2.429   3.902   5.426 -1.5332 -0.5776 -0.0607
  604TIP3    H223304   2.425   3.897   5.275  2.0416  1.2778 -0.3276
  605TIP3   OH223305   4.933   1.569  11.657 -0.6366  0.3153 -0.4853
  605TIP3    H123306   5.015   1.608  11.627 -1.8404  0.6135 -3.8357
  605TIP3    H223307   4.951   1.475  11.661  0.3154  0.5126  0.7006
  606TIP3   OH223308   4.965   5.380  12.255  0.3781 -0.0243  0.2023
  606TIP3    H123309   4.952   5.299  12.304  2.3619 -0.3683  0.2149
  606TIP3    H223310   4.960   5.449  12.321  1.5449 -0.3740  0.6731
  607TIP3   OH223311   3.151   4.511  11.090  0.0717 -0.4129 -0.1431
  607TIP3    H123312   3.066   4.516  11.133  0.1031  0.9578 -0.1754
  607TIP3    H223313   3.206   4.571  11.141  1.3097 -2.0217  0.4821
  608TIP3   OH223314   5.627   1.465  15.755 -0.4191  0.2820  0.8554
  608TIP3    H123315   5.588   1.474  15.842  0.0853  0.4533  1.0684
  608TIP3    H223316   5.703   1.408  15.769 -0.7441 -0.2756  0.3968
  609TIP3   OH223317   3.013   6.558  11.501 -0.6860 -0.8058  0.3658
  609TIP3    H123318   3.017   6.473  11.545 -0.0942 -0.6826  0.5604
  609TIP3    H223319   3.031   6.539  11.409  0.0282 -0.8306  0.5018
  610TIP3   OH223320   5.656   2.871   3.787 -0.4899 -0.2931 -0.0368
  610TIP3    H123321   5.717   2.945   3.786 -0.1528 -0.5037  1.8525
  610TIP3    H223322   5.626   2.864   3.696  1.4395  0.5155 -0.7958
  611TIP3   OH223323   0.413   2.999   1.287  0.5562  0.1784  0.5693
  611TIP3    H123324   0.422   2.967   1.377  1.4789  1.0124  0.7823
  611TIP3    H223325   0.482   3.064   1.278 -0.3742  1.0654 -0.3240
  612TIP3   OH223326   6.071   1.342  14.704  0.5054  0.5311  0.3369
  612TIP3    H123327   6.129   1.298  14.642 -0.7344  0.2644 -0.6603
  612TIP3    H223328   5.993   1.287  14.707 -0.1435  1.4588  0.8370
  613TIP3   OH223329   0.908   5.155  11.843 -0.1271 -0.0192  0.1815
  613TIP3    H123330   0.891   5.248  11.859  1.5474  0.1967  0.9360
  613TIP3    H223331   0.851   5.109  11.905  1.9618  0.6677  2.7980
  614TIP3   OH223332   1.108   3.515   3.389  0.1209  0.0781 -0.1037
  614TIP3    H123333   1.195   3.489   3.358 -0.0674 -2.2149  1.0758
  614TIP3    H223334   1.050   3.501   3.314  0.1688 -2.4151  0.2269
  615TIP3   OH223335   1.549   2.354   2.476  0.0627  0.2060 -0.2825
  615TIP3    H123336   1.508   2.268   2.467 -0.4083  0.3559  0.3632
  615TIP3    H223337   1.527   2.382   2.565  0.2108  0.9982 -0.4859
  616TIP3   OH223338   1.324   0.016  12.628 -0.1808  0.7325  0.5461
  616TIP3    H123339   1.347   0.037  12.538  0.7268  1.8725  1.0287
  616TIP3    H223340   1.341  -0.078  12.636 -0.0249  0.6737 -0.3885
  617TIP3   OH223341   0.542   6.512  16.842  0.2267  0.1767  0.0893
  617TIP3    H123342   0.628   6.481  16.815 -1.1748 -1.7888 -2.5577
  617TIP3    H223343   0.517   6.575  16.775 -1.7353 -1.8417 -1.2005
  618TIP3   OH223344   1.337   2.802   5.816  0.2437  0.2914  0.1239
  618TIP3    H123345   1.381   2.797   5.731  0.1818 -0.2367  0.1186
  618TIP3    H223346   1.406   2.784   5.880  0.2948  0.7112  0.1930
  619TIP3   OH223347   0.423   6.712   4.775 -0.0685  0.1057  0.0745
  619TIP3    H123348   0.471   6.735   4.695 -0.0921  0.6996  0.2265
  619TIP3    H223349   0.458   6.627   4.800 -0.2863 -0.2419 -0.7516
  620TIP3   OH223350   1.376   6.352   4.106 -0.0650 -0.0184  0.2716
  620TIP3    H123351   1.410   6.331   4.193 -0.4217 -2.1640 -0.0331
  620TIP3    H223352   1.438   6.312   4.045 -1.3989 -1.2624 -0.3510
  621TIP3   OH223353   0.312   4.054   5.816  0.3639 -0.6737  0.7751
  621TIP3    H123354   0.286   4.139   5.779 -1.1484 -0.6302  1.8572
  621TIP3    H223355   0.382   4.024   5.758  0.0425  0.7041 -0.4067
  622TIP3   OH223356   4.141   6.487  15.322  0.0309  0.0985 -0.8801
  622TIP3    H123357   4.099   6.401  15.326 -0.8760  0.5693  0.4398
  622TIP3    H223358   4.075   6.548  15.354  1.2009  1.0740 -0.2361
  623TIP3   OH223359   2.811   2.989   0.481 -0.1728 -0.1627  0.0236
  623TIP3    H123360   2.867   2.973   0.405  1.9326  1.4065  1.1182
  623TIP3    H223361   2.738   3.039   0.447  0.3978 -0.0433 -1.0742
  624TIP3   OH223362   2.077   5.610   6.406 -0.3518  0.6040  0.2122
  624TIP3    H123363   2.162   5.653   6.416  0.0590  0.6187 -2.4961
  624TIP3    H223364   2.025   5.672   6.356 -1.6524  0.2018  1.0448
  625TIP3   OH223365   5.920   5.488   6.203 -0.0795 -0.2125 -0.3050
  625TIP3    H123366   5.908   5.583   6.205  0.4509 -0.1219  2.4634
  625TIP3    H223367   5.975   5.470   6.279 -1.6682 -2.9226  0.3121
  626TIP3   OH223368   3.461   1.657   0.952 -0.4412  0.6904  0.2307
  626TIP3    H123369   3.417   1.683   0.871 -0.7999  1.7600  0.7531
  626TIP3    H223370   3.398   1.598   0.995 -0.7417  1.0481  0.2824
  627TIP3   OH223371   6.776   2.790   2.610 -0.4774 -0.0189 -0.3356
  627TIP3    H123372   6.697   2.844   2.612 -0.1148  0.5365 -0.7206
  627TIP3    H223373   6.752   2.714   2.556 -1.0090 -0.2852  0.2615
  628TIP3   OH223374   5.412   4.922   4.129  0.3462 -0.2121 -0.0210
  628TIP3    H123375   5.341   4.972   4.169 -0.1216 -1.4649  0.8095
  628TIP3    H223376   5.477   4.987   4.105 -1.0949  0.9914 -0.8449
  629TIP3   OH223377   5.198   0.744   1.546 -0.4949 -0.2123 -0.3470
  629TIP3    H123378   5.185   0.677   1.479 -3.4130  1.3838 -1.5663
  629TIP3    H223379   5.237   0.818   1.499  2.2416 -0.7521  0.8801
  630TIP3   OH223380   3.374   3.614   4.802 -0.5254  0.2630  0.3759
  630TIP3    H123381   3.356   3.640   4.893 -1.2151 -0.9351  0.6024
  630TIP3    H223382   3.398   3.521   4.808 -0.6415  0.1528 -0.6746
  631TIP3   OH223383   3.006   5.964   0.706 -0.1741  0.4088 -0.2593
  631TIP3    H123384   3.008   5.922   0.619 -2.0663  2.6956 -1.5098
  631TIP3    H223385   3.097   5.990   0.721  0.3169 -0.6350 -1.2389
  632TIP3   OH223386   6.824   6.053  16.294  0.7542 -0.2617  0.5950
  632TIP3    H123387   6.748   6.098  16.331  1.0294 -0.4468  1.4134
  632TIP3    H223388   6.857   6.113  16.227  0.2544  0.0873  0.6546
  633TIP3   OH223389   2.035   2.158  16.995 -0.4055  0.0649  0.2418
  633TIP3    H123390   2.112   2.140  17.048  0.2764  0.1253 -0.6973
  633TIP3    H223391   2.060   2.130  16.907 -1.3107  0.4676 -0.1552
  634TIP3   OH223392   5.674   3.025  13.796  0.0047 -0.0438 -0.5149
  634TIP3    H123393   5.610   3.090  13.823 -0.5349 -0.3345 -1.0642
  634TIP3    H223394   5.759   3.067  13.809 -0.1852 -0.2451  1.8671
  635TIP3   OH223395   6.761   4.464  16.861 -0.1127  0.3880  0.8680
  635TIP3    H123396   6.674   4.503  16.863  1.4200  4.3809  0.7411
  635TIP3    H223397   6.797   4.491  16.776  0.8804 -2.2991  0.3387
  636TIP3   OH223398   3.620   5.494  14.625  0.5102  0.6956 -0.3673
  636TIP3    H123399   3.614   5.401  14.606  0.2238  1.0461 -2.1346
  636TIP3    H223400   3.713   5.513  14.629  0.6982 -0.2334  3.3459
  637TIP3   OH223401   4.107   2.101  11.115  0.7368 -0.1087  0.2127
  637TIP3    H123402   4.119   2.148  11.033 -0.7792 -0.7469 -0.4156
  637TIP3    H223403   4.018   2.122  11.143  0.2251 -2.0499  0.2365
  638TIP3   OH223404   1.712   4.807  12.323  0.3367  0.1095 -0.1501
  638TIP3    H123405   1.797   4.782  12.359  0.6430  1.6281  0.2580
  638TIP3    H223406   1.731   4.830  12.232  0.4381  0.8104  0.0460
  639TIP3   OH223407   0.259   3.441  12.545  0.3122  0.2373 -0.2772
  639TIP3    H123408   0.205   3.448  12.624 -0.6334  2.8402 -1.0556
  639TIP3    H223409   0.325   3.509  12.555  1.6199 -0.8994 -0.7617
  640TIP3   OH223410   5.653   4.832   5.037  0.7357  0.3579  0.3844
  640TIP3    H123411   5.560   4.822   5.056  0.0707  2.1649 -1.5026
  640TIP3    H223412   5.678   4.914   5.079  1.9434 -0.8407  2.1661
  641TIP3   OH223413   3.447   5.076   1.762  0.5548  0.0644  0.4450
  641TIP3    H123414   3.429   5.135   1.689  0.4003 -0.4395  0.0649
  641TIP3    H223415   3.367   5.077   1.815  0.5466  0.1803  0.4307
  642TIP3   OH223416   5.994   2.096   3.252  0.1952 -0.2882 -0.5000
  642TIP3    H123417   5.950   2.125   3.173 -0.6794  0.6740  0.3120
  642TIP3    H223418   6.035   2.013   3.228 -0.7691 -0.4317 -1.7029
  643TIP3   OH223419   0.023   3.123  11.878  0.5281 -0.6469 -0.2099
  643TIP3    H123420  -0.008   3.176  11.952  0.1390 -1.9300  0.5652
  643TIP3    H223421   0.106   3.164  11.853  1.1537 -0.7683  1.5655
  644TIP3   OH223422   5.956   5.397   1.483 -0.0761  0.1184 -0.3281
  644TIP3    H123423   5.913   5.330   1.430  1.1761 -1.3222  0.3659
  644TIP3    H223424   5.904   5.402   1.563  0.3106 -0.6937 -0.0148
  645TIP3   OH223425   4.887   0.507  16.941  0.1064 -0.1048 -0.0499
  645TIP3    H123426   4.921   0.567  16.875  2.1773 -0.4274  0.6714
  645TIP3    H223427   4.960   0.449  16.962 -1.2688 -1.6861  0.6667
  646TIP3   OH223428   3.318   2.785   1.285 -0.3853  0.5198 -0.1792
  646TIP3    H123429   3.227   2.766   1.263 -0.9294  0.8782  1.6129
  646TIP3    H223430   3.313   2.856   1.349  1.2770  2.0714 -1.6489
  647TIP3   OH223431   1.328   0.518   3.268  0.0046  0.3275 -0.0133
  647TIP3    H123432   1.315   0.590   3.329  0.1275  0.3987 -0.0718
  647TIP3    H223433   1.254   0.459   3.285 -0.2842  0.6301 -0.1965
  648TIP3   OH223434   6.557   4.597   2.160  0.4824  0.0988  0.6745
  648TIP3    H123435   6.491   4.551   2.108  1.2907 -0.0026 -0.2870
  648TIP3    H223436   6.617   4.635   2.095  0.1427  2.0847  1.4483
  649TIP3   OH223437   4.123   3.895  12.060 -0.0662 -0.1402  0.0718
  649TIP3    H123438   4.090   3.872  11.973  2.7258  0.0822 -1.1570
  649TIP3    H223439   4.152   3.812  12.098  2.2282  0.1560 -0.8715
  650TIP3   OH223440   1.556   3.667   0.931 -0.2868 -0.0314 -0.4776
  650TIP3    H123441   1.475   3.696   0.889  0.0240  1.4809 -0.0838
  650TIP3    H223442   1.533   3.659   1.024 -0.1155 -0.0898 -0.4399
  651TIP3   OH223443   2.206   0.957   1.704 -0.1742 -0.0107 -0.2289
  651TIP3    H123444   2.281   1.004   1.669 -1.1610  1.4328 -0.4563
  651TIP3    H223445   2.190   0.887   1.640 -0.2375  0.8952 -1.2417
  652TIP3   OH223446   2.723   2.132  16.915 -0.3422  0.3522  0.0670
  652TIP3    H123447   2.803   2.114  16.866  0.2468  0.1729  1.0698
  652TIP3    H223448   2.714   2.227  16.911 -0.8731  0.2705 -1.2448
  653TIP3   OH223449   1.315   4.240   5.085 -0.0385 -0.0892  0.1146
  653TIP3    H123450   1.404   4.266   5.061 -0.8047  1.3608 -1.3392
  653TIP3    H223451   1.324   4.149   5.113  2.0303  0.2806  0.8818
  654TIP3   OH223452   5.775   4.130  12.634 -0.3526 -0.2355  0.4586
  654TIP3    H123453   5.865   4.128  12.602 -0.9910  1.7736 -1.8200
  654TIP3    H223454   5.762   4.045  12.676  1.8002 -1.6459 -1.4940
  655TIP3   OH223455   2.061   1.107   4.383  0.7117  0.0432  0.3420
  655TIP3    H123456   2.151   1.130   4.358  0.4111  2.0615  0.9031
  655TIP3    H223457   2.067   1.087   4.476  0.8625 -1.7332 -0.0165
  656TIP3   OH223458   5.458   3.440   1.555 -0.3266  0.2508 -0.2399
  656TIP3    H123459   5.455   3.532   1.529  0.6166  0.3987  0.1357
  656TIP3    H223460   5.509   3.440   1.636 -2.0573 -0.3589  0.9101
  657TIP3   OH223461   2.151   0.940   5.291 -0.0512  0.7437  0.2247
  657TIP3    H123462   2.220   1.003   5.273  0.8242 -0.7302 -2.0102
  657TIP3    H223463   2.073   0.975   5.249 -0.0520  1.2145  0.6122
  658TIP3   OH223464   0.642   1.161   1.259 -0.3058  0.7858  0.0381
  658TIP3    H123465   0.652   1.074   1.221 -1.1189  1.5785 -2.1404
  658TIP3    H223466   0.588   1.147   1.337  1.6427 -0.9370  1.1598
  659TIP3   OH223467   0.141   0.462  15.833  0.4696 -0.2520 -0.3477
  659TIP3    H123468   0.156   0.378  15.789  0.2569 -1.0700  1.0976
  659TIP3    H223469   0.205   0.463  15.905 -0.5716  0.1030  0.5952
  660TIP3   OH223470   0.988   4.054  11.717 -0.0078 -0.3142  0.0508
  660TIP3    H123471   0.954   3.994  11.783 -2.0278 -0.0377 -0.6530
  660TIP3    H223472   1.004   4.136  11.764 -0.8278 -0.3110  0.3437
  661TIP3   OH223473   3.094   2.868  16.942  0.3669 -0.4128 -0.3013
  661TIP3    H123474   3.006   2.903  16.958  0.4371 -0.1705 -0.4525
  661TIP3    H223475   3.093   2.782  16.985  0.4227  0.0640  0.6702
  662TIP3   OH223476   4.216   0.298   4.636  0.5989  0.9355 -0.2200
  662TIP3    H123477   4.127   0.329   4.652  0.6491  1.3793 -0.7964
  662TIP3    H223478   4.210   0.250   4.554  0.6345 -0.1451  0.3854
  663TIP3   OH223479   5.536   2.003  16.901 -0.0624  0.6850 -0.2359
  663TIP3    H123480   5.517   2.046  16.985  2.4107  0.9119  0.2883
  663TIP3    H223481   5.522   1.910  16.918  1.4859  0.6019  0.8325
  664TIP3   OH223482   3.599   2.725  13.053 -0.3606  0.6169  0.6657
  664TIP3    H123483   3.538   2.669  13.005  1.4874 -0.0499 -1.0271
  664TIP3    H223484   3.603   2.686  13.141 -1.9367  0.3571  0.6401
  665TIP3   OH223485   3.569   1.100  10.874  0.2941  0.0933  0.0756
  665TIP3    H123486   3.517   1.091  10.794  0.5019  0.8283 -0.1499
  665TIP3    H223487   3.573   1.195  10.889  1.5882  0.0555  0.0684
  666TIP3   OH223488   3.964   0.947  14.509  0.3052  0.0592 -0.4974
  666TIP3    H123489   3.945   1.022  14.453 -0.4596 -0.4884 -1.0068
  666TIP3    H223490   4.031   0.898  14.460 -0.1625 -0.2752 -0.8119
  667TIP3   OH223491   3.073   6.137  14.629 -0.0031 -0.2042  0.4370
  667TIP3    H123492   3.137   6.119  14.697 -0.1572  0.3412  0.7307
  667TIP3    H223493   3.066   6.232  14.627 -1.7365 -0.2780  1.2739
  668TIP3   OH223494   2.964   2.602  11.076 -0.4187  0.4701 -0.2566
  668TIP3    H123495   2.952   2.601  10.981  1.6933 -0.7328 -0.5745
  668TIP3    H223496   3.040   2.659  11.091 -0.2627  0.0595  0.6237
  669TIP3   OH223497   0.247   4.157   5.429 -0.0573 -0.1781  0.2365
  669TIP3    H123498   0.218   4.209   5.504 -2.4054  0.8892 -1.2837
  669TIP3    H223499   0.210   4.202   5.353  1.3487 -1.7929 -1.5145
  670TIP3   OH223500   6.611   5.233   3.119 -0.0982  0.0995 -0.0906
  670TIP3    H123501   6.627   5.327   3.114 -2.3309  0.5475  0.3966
  670TIP3    H223502   6.536   5.218   3.062 -1.0094 -1.0436  1.3580
  671TIP3   OH223503   4.823   3.256  16.326 -0.1809 -0.0131  0.1993
  671TIP3    H123504   4.798   3.340  16.289 -1.7236  0.4264  2.0862
  671TIP3    H223505   4.741   3.206  16.332  0.5018 -1.1672  0.2587
  672TIP3   OH223506   3.781   0.080   1.157  0.0321  0.0600  0.3060
  672TIP3    H123507   3.814   0.162   1.121 -0.4216 -0.1732 -0.6618
  672TIP3    H223508   3.807   0.083   1.249  1.2209  0.6622 -0.0197
  673TIP3   OH223509   1.317   0.998  12.792  0.2702 -0.7612  0.1259
  673TIP3    H123510   1.356   0.920  12.832 -0.9340 -0.4806  1.9728
  673TIP3    H223511   1.385   1.065  12.801  0.6061 -1.1199  0.2871
  674TIP3   OH223512   3.266   3.765  14.880  0.1007  0.1023 -0.0570
  674TIP3    H123513   3.186   3.729  14.918 -0.3586 -0.5200 -1.5406
  674TIP3    H223514   3.236   3.837  14.825  0.6476  0.3443 -0.0421
  675TIP3   OH223515   3.873   3.016   6.438  0.0838 -0.3022 -0.5331
  675TIP3    H123516   3.849   3.082   6.373 -0.0819  0.8654  0.6758
  675TIP3    H223517   3.939   3.059   6.493  0.9210 -1.5860 -0.4789
  676TIP3   OH223518   0.318   2.640   4.351  0.1990  0.1025 -0.1232
  676TIP3    H123519   0.316   2.552   4.313  1.1444 -0.0452  0.1514
  676TIP3    H223520   0.328   2.698   4.276 -0.9756  0.0235 -0.3560
  677TIP3   OH223521   3.942   6.526  13.811 -0.2088 -0.3050 -0.2049
  677TIP3    H123522   4.026   6.556  13.777 -0.4665  2.5008  1.2933
  677TIP3    H223523   3.941   6.432  13.794  2.3806 -0.1129 -1.9601
  678TIP3   OH223524   0.275   5.144  13.106 -0.3298  0.2705  0.3933
  678TIP3    H123525   0.304   5.055  13.125 -2.5550 -0.3423  1.3596
  678TIP3    H223526   0.189   5.133  13.065  0.1621  1.9540 -1.2749
  679TIP3   OH223527   0.578   3.126  10.883 -0.1291  0.2921  0.3414
  679TIP3    H123528   0.502   3.182  10.897 -0.7792 -0.9460  2.0880
  679TIP3    H223529   0.632   3.136  10.962  0.8902  0.1771 -0.3126
  680TIP3   OH223530   2.171   2.964  11.515  0.0608  0.1210  0.2699
  680TIP3    H123531   2.232   3.028  11.552  0.5535 -0.4615  0.4801
  680TIP3    H223532   2.196   2.957  11.423  1.8516 -1.7993  0.8258
  681TIP3   OH223533   2.708   6.841  12.135  0.0412 -0.2138  0.2019
  681TIP3    H123534   2.754   6.920  12.160  0.1576  0.2489 -1.3301
  681TIP3    H223535   2.748   6.771  12.187  1.1799  0.4628  0.2507
  682TIP3   OH223536   1.334   1.754  14.827  0.1762  0.4610  0.0965
  682TIP3    H123537   1.280   1.813  14.880 -1.1087 -0.8550  0.3144
  682TIP3    H223538   1.307   1.771  14.737 -0.5092 -0.0934  0.1940
  683TIP3   OH223539   4.806   1.015  13.117  0.0359  0.9095  0.2188
  683TIP3    H123540   4.764   0.945  13.068  0.5857  0.7511 -0.0264
  683TIP3    H223541   4.741   1.085  13.118 -1.8820 -0.6947  3.2258
  684TIP3   OH223542   1.735   0.692   3.118  0.2042 -0.3986 -0.1453
  684TIP3    H123543   1.723   0.673   3.025 -1.1838  0.0855 -0.0941
  684TIP3    H223544   1.746   0.787   3.122  0.4704 -0.4400  0.1628
  685TIP3   OH223545   1.920   4.847   0.679  0.0936  0.4926 -0.3027
  685TIP3    H123546   1.987   4.914   0.688  1.6630 -1.1044  0.6374
  685TIP3    H223547   1.924   4.821   0.587  0.8932  0.3037 -0.2181
  686TIP3   OH223548   4.355   3.528   5.297 -0.8013  0.3590  0.4835
  686TIP3    H123549   4.411   3.531   5.220 -0.1696 -2.1679  0.7447
  686TIP3    H223550   4.278   3.478   5.269 -0.2589 -1.1864  1.5726
  687TIP3   OH223551   5.841   1.283  15.789  0.5772 -0.4503  0.3554
  687TIP3    H123552   5.912   1.345  15.771  0.7286 -0.4385  0.9751
  687TIP3    H223553   5.884   1.208  15.830  0.0028  0.4025  2.6506
  688TIP3   OH223554   6.314   4.297  12.286  0.2640  0.4467 -0.0067
  688TIP3    H123555   6.228   4.316  12.325  0.2780 -0.0643  0.2849
  688TIP3    H223556   6.344   4.381  12.251 -0.7284  0.4555 -0.8691
  689TIP3   OH223557   3.425   2.968   1.498  0.7065  0.1117 -0.1559
  689TIP3    H123558   3.365   3.042   1.484  1.2849  0.5755 -0.2183
  689TIP3    H223559   3.512   3.004   1.480  1.1183 -0.2713  0.9680
  690TIP3   OH223560   4.030   5.536   4.668  0.5019 -0.1029  0.3731
  690TIP3    H123561   4.015   5.442   4.666  0.1075 -0.1601  2.8748
  690TIP3    H223562   3.954   5.572   4.714  0.4819  1.5042 -0.8036
  691TIP3   OH223563   6.643   1.202   2.407 -0.5357  0.0330 -0.1236
  691TIP3    H123564   6.614   1.271   2.466 -0.1086 -0.4386  0.6601
  691TIP3    H223565   6.592   1.125   2.432 -2.3702  0.4622 -2.2088
  692TIP3   OH223566   6.121   0.542   1.968  0.2631 -0.1986  0.1099
  692TIP3    H123567   6.215   0.551   1.958  0.4545 -0.7046  1.2321
  692TIP3    H223568   6.100   0.456   1.931  0.8744 -1.7989  3.0731
  693TIP3   OH223569   1.965   6.831  14.421 -0.5710  0.5095  0.0935
  693TIP3    H123570   2.041   6.774  14.408  0.7750  2.1297  0.5274
  693TIP3    H223571   1.949   6.869  14.335 -0.5753  0.5373  0.1068
  694TIP3   OH223572   6.642   1.548  16.693  0.4915 -0.0047  0.1169
  694TIP3    H123573   6.619   1.639  16.675 -0.2911 -0.4536 -1.3210
  694TIP3    H223574   6.737   1.549  16.704  0.4379  1.0405  0.5643
  695TIP3   OH223575   0.354   1.683   2.710  0.3843  0.3255 -0.2980
  695TIP3    H123576   0.384   1.606   2.662  1.0854 -0.8376  1.8537
  695TIP3    H223577   0.360   1.755   2.648  0.0971 -1.2634 -2.2693
  696TIP3   OH223578   0.336   4.060  11.968 -0.1672  0.0841 -0.0053
  696TIP3    H123579   0.384   4.034  11.889 -0.2235  1.3408 -0.4790
  696TIP3    H223580   0.402   4.060  12.037  0.5384  1.6038 -0.6100
  697TIP3   OH223581   3.187   0.486  17.092 -0.1300 -0.7120  0.2684
  697TIP3    H123582   3.204   0.553  17.159  1.8482  0.6935 -1.4862
  697TIP3    H223583   3.093   0.490  17.079  0.0468  3.5926 -1.3885
  698TIP3   OH223584   6.659   0.885  12.083  0.0807  0.4950 -0.5778
  698TIP3    H123585   6.678   0.925  12.168 -0.9020 -2.1341  1.0024
  698TIP3    H223586   6.745   0.855  12.051  0.2707  0.2234  0.1772
  699TIP3   OH223587   1.017   6.146   3.414 -0.1118  0.1034  0.2941
  699TIP3    H123588   1.004   6.141   3.319 -0.0468  0.2105  0.2807
  699TIP3    H223589   0.970   6.069   3.447 -2.0672  1.2578  0.3768
  700TIP3   OH223590   1.132   5.145  13.784 -0.6281 -0.3788  0.1312
  700TIP3    H123591   1.055   5.202  13.791 -0.0057  0.6614 -1.0928
  700TIP3    H223592   1.154   5.146  13.691  0.6847 -0.8984  0.4189
  701TIP3   OH223593   2.753   5.215   3.107  0.1483  0.5081  0.0470
  701TIP3    H123594   2.689   5.274   3.148 -0.4489  1.7217 -2.4515
  701TIP3    H223595   2.829   5.270   3.090  1.1719 -0.4667  1.2174
  702TIP3   OH223596   5.825   4.353  16.208 -0.9439  0.2244 -0.1588
  702TIP3    H123597   5.866   4.385  16.289 -0.8425  0.1568 -0.1839
  702TIP3    H223598   5.754   4.415  16.192 -0.2954  0.8626 -0.6090
  703TIP3   OH223599   5.847   4.307  11.005  0.7251 -0.0080  0.6362
  703TIP3    H123600   5.758   4.271  10.999  1.0289 -0.6862  0.1164
  703TIP3    H223601   5.833   4.399  11.028 -0.0461 -0.5216  2.3730
  704TIP3   OH223602   6.379   3.274   1.625  0.4947  0.1114  0.3576
  704TIP3    H123603   6.444   3.286   1.694  0.2092 -3.0032  1.3019
  704TIP3    H223604   6.422   3.218   1.560 -0.3706  0.2155 -0.3325
  705TIP3   OH223605   3.310   1.289   4.531  0.4284 -0.2356  0.2117
  705TIP3    H123606   3.389   1.338   4.508  0.9244 -0.8081  0.6744
  705TIP3    H223607   3.333   1.198   4.518  0.3775 -0.5170  1.9165
  706TIP3   OH223608   1.587   2.833  10.690 -0.1429 -0.0155  0.0676
  706TIP3    H123609   1.537   2.762  10.650  0.2730 -1.3459  1.7718
  706TIP3    H223610   1.656   2.853  10.626  0.1068 -1.6065 -0.2066
  707TIP3   OH223611   1.509   3.845   5.259 -0.2257  0.0579  0.2241
  707TIP3    H123612   1.524   3.811   5.170 -1.6197  0.4939 -0.1963
  707TIP3    H223613   1.571   3.917   5.268  1.4042 -1.3013  0.4109
  708TIP3   OH223614   4.991   1.772  16.981  0.2861  0.1030 -0.1130
  708TIP3    H123615   4.934   1.702  16.948 -0.7904  1.2674 -0.7952
  708TIP3    H223616   5.014   1.743  17.069 -2.1995  0.0351  0.6028
  709TIP3   OH223617   1.020   2.645   4.812 -0.6232  0.2837  0.5023
  709TIP3    H123618   1.047   2.721   4.863 -0.8571  0.9944 -0.4238
  709TIP3    H223619   1.071   2.573   4.849  0.1432  1.0195  0.9154
  710TIP3   OH223620   0.388   2.257  15.196  0.2377  0.1132  0.4133
  710TIP3    H123621   0.463   2.216  15.238 -0.9058 -1.1240  1.3532
  710TIP3    H223622   0.389   2.347  15.227  2.2793  0.6020 -0.9525
  711TIP3   OH223623   1.934   6.718  16.561  0.1973 -0.5859  0.0007
  711TIP3    H123624   1.993   6.700  16.488 -0.1833  2.8376 -1.3254
  711TIP3    H223625   1.853   6.673  16.538 -0.1698  1.0390 -2.1877
  712TIP3   OH223626   3.518   0.599  10.566 -0.2492 -0.0817 -0.1724
  712TIP3    H123627   3.603   0.557  10.559 -0.5316 -1.5996  3.4508
  712TIP3    H223628   3.459   0.544  10.515  0.3381 -1.0503  0.1839
  713TIP3   OH223629   2.268   5.221  15.784  0.6203  0.1018 -0.0090
  713TIP3    H123630   2.213   5.298  15.769 -1.3730 -0.8312  1.9710
  713TIP3    H223631   2.225   5.151  15.735 -0.5768 -0.8299  2.2146
  714TIP3   OH223632   4.123   0.688  14.458  0.1419 -0.3743  0.0025
  714TIP3    H123633   4.080   0.620  14.509  0.3754 -1.5099 -1.2646
  714TIP3    H223634   4.215   0.663  14.458  0.2167 -0.1141 -0.5672
  715TIP3   OH223635   4.997   4.732  12.148 -0.1412  0.1953 -0.3435
  715TIP3    H123636   4.993   4.663  12.214 -2.1697  1.1749  0.6476
  715TIP3    H223637   5.086   4.726  12.113 -0.2180 -2.8760 -0.3147
  716TIP3   OH223638   4.844   2.987   1.968 -0.1580  0.0773 -0.2555
  716TIP3    H123639   4.787   2.970   1.894  1.0551 -0.0783 -1.1913
  716TIP3    H223640   4.897   2.908   1.977  0.8038  0.7021 -0.2543
  717TIP3   OH223641   5.271   2.298   0.485 -0.6860 -0.2286  0.7570
  717TIP3    H123642   5.210   2.237   0.524 -1.4157  0.3204  0.4890
  717TIP3    H223643   5.216   2.365   0.443  0.0874  0.7858  1.3133
  718TIP3   OH223644   1.846   2.463   3.317 -0.4533 -0.2047 -0.7287
  718TIP3    H123645   1.895   2.476   3.397  0.6897  0.2402 -1.4787
  718TIP3    H223646   1.754   2.469   3.344 -0.0919 -0.1237  0.5426
  719TIP3   OH223647   6.366   4.464  14.340 -0.3741 -0.2110  0.0839
  719TIP3    H123648   6.417   4.543  14.360  1.1040 -0.9715 -0.5025
  719TIP3    H223649   6.370   4.456  14.245  0.2942 -1.4768  0.1925
  720TIP3   OH223650   6.461   1.040   5.790 -0.3257  0.0545 -0.1537
  720TIP3    H123651   6.461   1.030   5.885 -0.5955 -0.0694 -0.1659
  720TIP3    H223652   6.491   0.955   5.758  0.0942  0.2057 -0.1707
  721TIP3   OH223653   6.803   3.366  13.315  0.1734  0.6161  0.6172
  721TIP3    H123654   6.851   3.362  13.232 -1.4918 -0.5579 -0.3544
  721TIP3    H223655   6.820   3.454  13.348  0.3067  1.3785 -1.3454
  722TIP3   OH223656   6.255   6.432  14.841 -0.3958  0.2473  0.1011
  722TIP3    H123657   6.168   6.453  14.875  0.4406  1.2967  1.6903
  722TIP3    H223658   6.293   6.372  14.906  0.1244 -0.1048 -0.5151
  723TIP3   OH223659   0.772   0.444  13.877  0.2421  0.2321  0.7785
  723TIP3    H123660   0.788   0.368  13.821 -0.5720 -1.1964  2.3954
  723TIP3    H223661   0.857   0.487  13.884  0.7545 -0.6057 -0.0639
  724TIP3   OH223662   1.906   0.799   5.579  0.4997  0.0032  0.5556
  724TIP3    H123663   1.864   0.883   5.562  1.0913  0.3126  0.6164
  724TIP3    H223664   1.978   0.819   5.639 -0.9897 -0.9410  2.7948
  725TIP3   OH223665   5.483   1.761  13.354  0.0550 -0.3708 -0.3782
  725TIP3    H123666   5.570   1.798  13.371 -0.2635 -0.0513  0.6968
  725TIP3    H223667   5.427   1.838  13.338 -0.2003 -0.5053 -0.1577
  726TIP3   OH223668   1.150   3.590  12.956  0.1698 -0.0451 -0.7886
  726TIP3    H123669   1.076   3.535  12.932  0.3252 -1.3613  1.4049
  726TIP3    H223670   1.217   3.528  12.985  0.6500  1.2262  1.0366
  727TIP3   OH223671   2.579   6.089  13.372  0.1255 -0.2344 -0.3640
  727TIP3    H123672   2.626   6.032  13.432 -2.3976 -0.7925  1.2325
  727TIP3    H223673   2.570   6.172  13.420 -0.8436 -0.2778 -0.4463
  728TIP3   OH223674   2.585   5.451   1.204 -0.0204  0.2637 -0.0647
  728TIP3    H123675   2.546   5.372   1.168  0.2537  0.1116 -0.0289
  728TIP3    H223676   2.527   5.475   1.277  0.7230 -0.7513  0.8818
  729TIP3   OH223677   1.384   4.186  13.778 -0.5860  0.0727  0.1028
  729TIP3    H123678   1.334   4.200  13.698 -0.8538  2.2526  0.5675
  729TIP3    H223679   1.460   4.244  13.769  0.1643 -0.7770  0.7892
  730TIP3   OH223680   3.659   2.187   0.024  0.5422 -0.1808  0.2872
  730TIP3    H123681   3.574   2.150   0.045  0.8845 -1.9634 -1.2142
  730TIP3    H223682   3.723   2.130   0.067  1.0686 -1.2891 -1.8330
  731TIP3   OH223683   3.970   5.908   3.126  0.0715  0.0025  0.2644
  731TIP3    H123684   4.066   5.914   3.125  0.0696  0.3143 -1.2485
  731TIP3    H223685   3.951   5.829   3.076 -0.4629  0.5824 -0.4838
  732TIP3   OH223686   4.939   3.066  15.615  0.2874 -0.1120 -0.4171
  732TIP3    H123687   4.860   3.043  15.665  0.3095  2.5338  1.0269
  732TIP3    H223688   5.010   3.020  15.659  0.1690  1.4339  1.5169
  733TIP3   OH223689   5.679   4.827   3.931  0.0628 -0.4147 -0.1582
  733TIP3    H123690   5.688   4.790   4.019 -1.6615 -1.3649 -0.3485
  733TIP3    H223691   5.740   4.901   3.930  0.1314 -0.3892  1.8229
  734TIP3   OH223692   6.775   5.552   1.657  0.0508 -0.3913 -0.4254
  734TIP3    H123693   6.731   5.594   1.730  1.5805 -0.5716  0.6462
  734TIP3    H223694   6.712   5.556   1.585 -1.4145 -0.0365  0.8350
  735TIP3   OH223695   6.636   5.890   0.090 -0.1033  0.1685  0.3585
  735TIP3    H123696   6.574   5.881   0.162 -0.0959  0.7701  0.4451
  735TIP3    H223697   6.607   5.968   0.042  0.4014  0.2754  0.2183
  736TIP3   OH223698   0.948   4.542   4.874  0.5267 -0.0510 -0.0060
  736TIP3    H123699   1.029   4.585   4.849  1.6666 -1.9377  0.3116
  736TIP3    H223700   0.975   4.458   4.912 -1.4488  0.0921  1.9532
  737TIP3   OH223701   6.805   2.667   3.813 -0.2456  0.1178 -0.2931
  737TIP3    H123702   6.743   2.656   3.885 -0.5649  1.6091 -0.3127
  737TIP3    H223703   6.751   2.663   3.734 -0.0658 -0.3260 -0.3941
  738TIP3   OH223704   3.958   6.164   5.648  0.1543 -0.1463  0.6078
  738TIP3    H123705   4.000   6.184   5.732  1.3138 -2.6168  0.6888
  738TIP3    H223706   4.030   6.152   5.587 -0.5274 -1.5136  0.0298
  739TIP3   OH223707   3.915   6.571   3.021  0.7222 -0.4132  0.0644
  739TIP3    H123708   3.897   6.492   3.073  1.7494  0.4779  1.8788
  739TIP3    H223709   3.846   6.632   3.046  0.3855 -0.4416 -0.7510
  740TIP3   OH223710   2.810   1.061   5.488  0.1431  0.2374  0.5681
  740TIP3    H123711   2.867   1.088   5.560  1.6888  0.3530 -0.6477
  740TIP3    H223712   2.724   1.048   5.529  1.1284 -0.4017  2.5576
  741TIP3   OH223713   5.667   5.063  15.634  0.0363  0.1497 -0.0767
  741TIP3    H123714   5.594   5.007  15.659  0.0996  0.8165  1.6984
  741TIP3    H223715   5.733   5.049  15.702  0.6874  1.1746 -0.4677
  742TIP3   OH223716   6.619   1.015   0.873  0.0466  0.1605 -0.0122
  742TIP3    H123717   6.698   0.973   0.840 -1.5276 -2.7680 -0.3956
  742TIP3    H223718   6.547   0.964   0.835 -2.0536  2.5069  0.5371
  743TIP3   OH223719   2.747   5.013   2.930  0.1167  0.2600 -0.1148
  743TIP3    H123720   2.656   4.991   2.909 -0.0133 -0.6327  1.2067
  743TIP3    H223721   2.741   5.055   3.016  1.0842 -1.4986  0.8730
  744TIP3   OH223722   5.966   1.801   0.476  0.2944 -0.4405 -0.2108
  744TIP3    H123723   6.007   1.884   0.450  0.9574 -0.1594  1.5874
  744TIP3    H223724   5.982   1.743   0.402  0.4608  0.8122 -1.2069
  745TIP3   OH223725   4.302   4.697  15.483  0.1069  0.3776 -0.0604
  745TIP3    H123726   4.258   4.621  15.445  1.2716 -0.6714  0.5904
  745TIP3    H223727   4.262   4.708  15.569  1.6061 -1.1144  0.8915
  746TIP3   OH223728   2.695   3.780   5.088  0.0925  0.8417  0.0077
  746TIP3    H123729   2.666   3.710   5.029 -0.6013  0.5830  0.6398
  746TIP3    H223730   2.729   3.847   5.029  0.7867 -0.0261 -0.6056
  747TIP3   OH223731   4.755   4.063  14.086 -0.0306 -0.2148 -0.3887
  747TIP3    H123732   4.835   4.107  14.117 -0.6197  0.5842  0.0492
  747TIP3    H223733   4.774   3.970  14.095  1.1713 -0.0694 -1.1021
  748TIP3   OH223734   3.246   1.006   5.994 -0.0631  0.0162 -0.7047
  748TIP3    H123735   3.245   1.059   6.073 -1.7252 -0.1759 -0.5498
  748TIP3    H223736   3.185   1.050   5.935 -2.4702 -2.2345 -0.1352
  749TIP3   OH223737   4.225   1.741   5.594 -0.2568 -0.3568  0.0986
  749TIP3    H123738   4.312   1.777   5.611 -0.2490  0.4708 -1.4704
  749TIP3    H223739   4.167   1.817   5.597 -0.8825 -0.8499  0.7772
  750TIP3   OH223740   4.386   0.623  14.471 -0.2170  0.1873 -0.2891
  750TIP3    H123741   4.409   0.645  14.561 -2.7958  0.0074  0.4933
  750TIP3    H223742   4.371   0.529  14.471 -1.1955  0.3275 -0.6458
  751TIP3   OH223743   5.743   1.244   1.069 -0.1164  0.1174 -0.2070
  751TIP3    H123744   5.777   1.169   1.117  1.0708  1.3760  1.0385
  751TIP3    H223745   5.688   1.290   1.132 -0.5907  0.4658 -0.8567
  752TIP3   OH223746   4.927   6.796  11.799  0.0281  0.2165  0.3247
  752TIP3    H123747   4.944   6.764  11.888  1.0080 -0.5244 -0.1031
  752TIP3    H223748   4.962   6.727  11.743  1.2756  1.5763 -0.6409
  753TIP3   OH223749   4.550   1.463  16.167 -0.0717  0.5595  0.0832
  753TIP3    H123750   4.473   1.465  16.225  0.4208 -0.5630  0.8098
  753TIP3    H223751   4.624   1.476  16.226  0.3514  0.8095 -0.5005
  754TIP3   OH223752   3.299   2.629   0.299 -0.2661 -0.5813 -0.4343
  754TIP3    H123753   3.305   2.724   0.292 -1.9262 -0.1489  2.5082
  754TIP3    H223754   3.386   2.597   0.274  1.3813  1.9803  1.6059
  755TIP3   OH223755   6.615   1.727   4.537  1.0737  0.1251  0.0316
  755TIP3    H123756   6.538   1.770   4.500 -0.6684 -2.3686  0.4711
  755TIP3    H223757   6.602   1.732   4.632  0.4699 -1.7603  0.1050
  756TIP3   OH223758   1.249   4.611  12.241  0.3544 -0.0106  0.1522
  756TIP3    H123759   1.264   4.516  12.246 -0.2420 -0.1724 -0.8527
  756TIP3    H223760   1.331   4.645  12.206  0.5480 -0.1560  0.4524
  757TIP3   OH223761   3.128   1.586  14.375 -0.5452  0.2155  0.5641
  757TIP3    H123762   3.203   1.543  14.416  0.6637  1.6836 -0.0132
  757TIP3    H223763   3.095   1.646  14.442 -1.6653 -0.8988  1.0529
  758TIP3   OH223764   0.786   1.943   2.633  0.0418  0.0757  0.6050
  758TIP3    H123765   0.809   1.881   2.703  1.2167 -0.8728 -0.5867
  758TIP3    H223766   0.856   2.007   2.633 -0.3594  0.5221  0.7864
  759TIP3   OH223767   5.441   2.818   1.311  0.2469  0.1880 -0.2120
  759TIP3    H123768   5.485   2.836   1.394  0.4245  0.3134 -0.3341
  759TIP3    H223769   5.407   2.903   1.283  1.7963  0.5159 -1.2014
  760TIP3   OH223770   1.541   1.314   2.909 -0.2825  0.4175  0.3563
  760TIP3    H123771   1.519   1.366   2.987  0.7624  1.1082  0.2206
  760TIP3    H223772   1.491   1.233   2.919  0.0815  0.3388  1.9395
  761TIP3   OH223773   1.936   3.117  17.113  0.0339  0.5136 -0.7025
  761TIP3    H123774   1.934   3.105  17.018  0.5626 -2.0247 -0.4456
  761TIP3    H223775   1.887   3.043  17.148  1.6890  0.2037  1.0853
  762TIP3   OH223776   4.211   4.766  15.067  0.6178 -1.1650  0.4654
  762TIP3    H123777   4.264   4.687  15.076  0.8255 -1.4860 -2.6839
  762TIP3    H223778   4.269   4.830  15.027 -0.5301 -0.5513 -0.2866
  763TIP3   OH223779   2.700   5.363  17.178 -0.3076 -0.2659 -0.1221
  763TIP3    H123780   2.755   5.288  17.153 -1.2638 -1.2060  0.4757
  763TIP3    H223781   2.618   5.349  17.130 -0.5061  0.3774  0.0256
  764TIP3   OH223782   3.790   3.049  16.071 -0.0961  0.5056  0.2715
  764TIP3    H123783   3.751   3.016  15.991  0.9310 -1.1917  0.4355
  764TIP3    H223784   3.797   3.144  16.058  2.1151  0.0733 -2.6083
  765TIP3   OH223785   2.978   5.062   4.817  0.4745 -0.2380 -0.7884
  765TIP3    H123786   2.962   5.132   4.753  0.7515  0.3458 -0.2407
  765TIP3    H223787   2.892   5.042   4.854  0.6871  1.8920  1.1335
  766TIP3   OH223788   0.972   0.460  14.810  0.5800 -0.6320 -0.4950
  766TIP3    H123789   0.983   0.553  14.789 -0.2315 -0.2668  0.6358
  766TIP3    H223790   0.956   0.458  14.904 -0.2398 -1.8450 -0.6348
  767TIP3   OH223791   3.002   5.276  15.207  0.2570  0.3616 -0.5045
  767TIP3    H123792   3.045   5.191  15.196 -0.6913 -0.1840 -0.1367
  767TIP3    H223793   2.916   5.254  15.242 -0.2627  1.4331 -1.0797
  768TIP3   OH223794   5.921   6.394  13.011  0.0514 -0.2190  0.0810
  768TIP3    H123795   5.927   6.384  12.916 -2.2619  1.1390 -0.2842
  768TIP3    H223796   5.935   6.488  13.025 -0.3755 -0.2846  0.9918
  769TIP3   OH223797   5.957   4.383   4.010 -0.4541 -0.5748  0.3188
  769TIP3    H123798   6.016   4.448   4.050 -2.3252 -0.0381  2.4139
  769TIP3    H223799   5.877   4.432   3.991 -0.7048 -1.5565 -1.3349
  770TIP3   OH223800   4.753   1.376  15.621 -0.2604  0.3481 -0.4089
  770TIP3    H123801   4.733   1.468  15.638  0.9285  0.4570  0.5452
  770TIP3    H223802   4.820   1.378  15.553  0.1419  0.2292 -0.0242
  771TIP3   OH223803   6.365   5.614   3.157  0.7362 -0.3512 -0.0016
  771TIP3    H123804   6.392   5.546   3.218 -0.0414 -1.3411 -0.7187
  771TIP3    H223805   6.286   5.652   3.197 -0.7253 -2.0864 -1.0758
  772TIP3   OH223806   6.143   2.551  12.983  0.5082 -0.3810 -0.1577
  772TIP3    H123807   6.083   2.502  12.928  0.2865  1.0457 -1.2617
  772TIP3    H223808   6.111   2.537  13.072 -1.4853  0.3292 -0.7022
  773TIP3   OH223809   3.595   6.108  12.090  0.0409 -0.2232 -0.8441
  773TIP3    H123810   3.679   6.112  12.135 -0.2180  1.3854 -0.4155
  773TIP3    H223811   3.600   6.030  12.035  1.9896  0.1105 -1.2067
  774TIP3   OH223812   5.084   5.427   5.621  0.2012  0.6154  0.2224
  774TIP3    H123813   5.154   5.377   5.662  0.1290  0.2016 -0.1531
  774TIP3    H223814   5.114   5.518   5.626  0.0864  0.6078  1.3995
  775TIP3   OH223815   0.075   2.907  15.308 -0.6173  0.1301  0.2554
  775TIP3    H123816   0.046   2.833  15.256  0.9347  0.1276 -0.6779
  775TIP3    H223817  -0.006   2.949  15.338 -1.5226 -1.2827 -0.1170
  776TIP3   OH223818   3.655   6.825   4.290 -0.4151  0.2670  0.0533
  776TIP3    H123819   3.619   6.910   4.264 -0.9806  1.0790  3.1144
  776TIP3    H223820   3.580   6.777   4.326  0.2684 -0.7659  0.1489
  777TIP3   OH223821   0.906   3.761   2.237 -0.1433 -0.0308 -0.5051
  777TIP3    H123822   0.975   3.812   2.194 -1.3238  1.6697 -0.4912
  777TIP3    H223823   0.941   3.742   2.324 -0.3157  2.3654  0.1622
  778TIP3   OH223824   0.577   5.319  12.031  0.4123 -0.1557 -0.4011
  778TIP3    H123825   0.545   5.322  11.941  1.8033 -2.0445 -1.0306
  778TIP3    H223826   0.506   5.356  12.083  0.4929  3.2772 -2.4332
  779TIP3   OH223827   5.470   4.092  11.603  0.0259  0.1698  0.3597
  779TIP3    H123828   5.439   4.106  11.513  1.4221 -0.9681 -0.3527
  779TIP3    H223829   5.469   3.997  11.614  1.4129  0.1999  0.9528
  780TIP3   OH223830   2.023   4.776  10.878 -0.1041  0.1031 -0.0916
  780TIP3    H123831   2.027   4.856  10.826 -0.7262  1.0482  1.2352
  780TIP3    H223832   2.111   4.741  10.876  0.1489  0.7593 -0.8058
  781TIP3   OH223833   3.000   0.790   0.834  0.0430  0.4015 -0.3316
  781TIP3    H123834   3.030   0.720   0.892 -0.8792  2.2092  2.5304
  781TIP3    H223835   3.000   0.750   0.747 -0.6133 -3.2136  1.1306
  782TIP3   OH223836   4.067   6.722   1.368  0.0581  0.0674  0.1865
  782TIP3    H123837   4.036   6.658   1.304 -0.0478  1.2217 -0.9666
  782TIP3    H223838   4.007   6.713   1.443  0.7621 -1.9613  0.5670
  783TIP3   OH223839   2.517   1.666  12.313 -0.0172 -0.6084 -0.2021
  783TIP3    H123840   2.486   1.756  12.321 -0.7511 -0.6788 -1.8793
  783TIP3    H223841   2.571   1.666  12.233 -0.3460 -1.7304 -0.4430
  784TIP3   OH223842   1.143   5.183  15.977 -0.0623  0.1256 -0.0987
  784TIP3    H123843   1.206   5.204  16.046  0.5920 -0.1108 -0.6144
  784TIP3    H223844   1.196   5.171  15.898 -0.7671  0.0816 -0.5841
  785TIP3   OH223845   3.670   2.586   4.451 -0.5647 -0.4871 -0.6534
  785TIP3    H123846   3.670   2.680   4.464 -1.7382 -0.7239  1.3214
  785TIP3    H223847   3.693   2.549   4.536 -1.2634 -2.0241 -1.0935
  786TIP3   OH223848   6.279   6.144  12.794 -0.3764 -0.3245 -0.0328
  786TIP3    H123849   6.211   6.139  12.726 -1.8214 -0.6669  1.3727
  786TIP3    H223850   6.329   6.222  12.773 -1.7040  0.3812 -0.6911
  787TIP3   OH223851   3.431   3.995  13.309 -0.5466 -0.1224 -0.2752
  787TIP3    H123852   3.462   3.945  13.233 -0.7291  0.0625 -0.4724
  787TIP3    H223853   3.337   3.974  13.314 -0.4803 -0.3468  0.0618
  788TIP3   OH223854   4.246   1.793   4.212  0.1133  0.4421  0.2586
  788TIP3    H123855   4.261   1.701   4.193 -1.8795 -0.4915  2.6107
  788TIP3    H223856   4.172   1.818   4.156 -2.6599 -0.9650  2.9491
  789TIP3   OH223857   0.408   2.056   4.298  0.0254 -0.0141  0.3566
  789TIP3    H123858   0.492   2.036   4.256 -1.0082 -0.5091 -1.5695
  789TIP3    H223859   0.417   2.020   4.387  1.3724 -1.2818 -0.2491
  790TIP3   OH223860   2.954   1.088   4.692  0.8778  0.4529 -0.1234
  790TIP3    H123861   3.002   1.037   4.626 -1.2848 -1.8126 -0.0968
  790TIP3    H223862   2.998   1.067   4.774  1.6471  0.7890 -0.4352
  791TIP3   OH223863   5.021   0.464   5.498 -0.4547 -0.0271 -0.3273
  791TIP3    H123864   5.080   0.453   5.424 -0.6069  0.1998 -0.4831
  791TIP3    H223865   5.041   0.550   5.533 -0.2167 -0.2323  0.0466
  792TIP3   OH223866   3.775   4.581   2.971  0.6086  0.2682  0.3423
  792TIP3    H123867   3.694   4.531   2.961  1.5948 -1.4667  0.6135
  792TIP3    H223868   3.748   4.672   2.961 -1.0594 -0.3467 -1.6101
  793TIP3   OH223869   4.386   5.685   0.350  0.0221 -0.3085 -0.2252
  793TIP3    H123870   4.436   5.673   0.432  2.0232 -0.6030 -1.4091
  793TIP3    H223871   4.423   5.620   0.290  0.9477  2.0360 -2.3695
  794TIP3   OH223872   1.849   5.723   1.280  0.1679  0.2048  0.1697
  794TIP3    H123873   1.876   5.810   1.309  0.4331  0.8500 -1.8383
  794TIP3    H223874   1.754   5.727   1.277  0.1957  0.6058 -0.3732
  795TIP3   OH223875   6.838   6.162  12.974  0.2556 -0.1237  0.2809
  795TIP3    H123876   6.774   6.126  12.913 -0.3290 -1.0555  1.3965
  795TIP3    H223877   6.794   6.239  13.012  0.5340  0.3279 -0.3108
  796TIP3   OH223878   4.398   5.931   3.906  0.4083  0.0063 -0.5157
  796TIP3    H123879   4.370   5.882   3.983  1.2821 -0.5646 -0.5516
  796TIP3    H223880   4.327   5.919   3.843 -0.2333  0.3327  0.1271
  797TIP3   OH223881   3.762   3.801  11.237  0.0956  0.7525  0.5470
  797TIP3    H123882   3.674   3.835  11.220 -0.5364 -0.8559  0.4552
  797TIP3    H223883   3.819   3.878  11.231 -1.2263  1.7276  0.0612
  798TIP3   OH223884   6.263   0.965   3.875 -0.0025 -0.4119 -0.2400
  798TIP3    H123885   6.241   1.057   3.859  2.0731 -0.0852 -1.7307
  798TIP3    H223886   6.179   0.922   3.887 -1.1333  1.3926 -1.1696
  799TIP3   OH223887   3.375   4.792   4.488  0.7933  0.1861 -0.0327
  799TIP3    H123888   3.462   4.780   4.526  0.0151 -2.0621  1.2376
  799TIP3    H223889   3.367   4.723   4.422  0.8266  1.9201 -1.9834
  800TIP3   OH223890   2.364   3.746   1.918 -0.7748  0.4869 -0.3001
  800TIP3    H123891   2.383   3.750   1.824 -4.2617  2.7386 -1.0979
  800TIP3    H223892   2.306   3.671   1.929 -0.4815  0.3053  0.0406
  801TIP3   OH223893   1.782   4.550  10.386  0.3445  0.4908 -0.7112
  801TIP3    H123894   1.716   4.571  10.452  0.8794 -2.5277  0.9913
  801TIP3    H223895   1.732   4.523  10.309 -0.5910 -2.4436  0.7884
  802TIP3   OH223896   6.117   0.112  15.009 -0.0307  0.0688 -0.3176
  802TIP3    H123897   6.053   0.153  14.951 -1.1296 -1.8303 -0.5428
  802TIP3    H223898   6.066   0.086  15.086  1.4362  2.7731  1.7362
  803TIP3   OH223899   2.996   4.462  11.312  0.1145  0.2846 -0.5804
  803TIP3    H123900   2.952   4.384  11.278 -1.0869  0.5847  0.2017
  803TIP3    H223901   3.057   4.429  11.378  0.1721 -0.0463 -0.7977
  804TIP3   OH223902   6.059   6.395   2.905 -0.4251 -0.2065  0.3658
  804TIP3    H123903   6.084   6.344   2.982  0.1826 -1.6779 -0.7615
  804TIP3    H223904   6.132   6.455   2.891  0.8836 -1.9559 -0.7373
  805TIP3   OH223905   6.823   2.145   1.415  0.1201  0.1312 -0.0956
  805TIP3    H123906   6.906   2.102   1.434  0.6564  1.3474  0.4038
  805TIP3    H223907   6.802   2.118   1.325  1.1038 -0.1088 -0.2684
  806TIP3   OH223908   1.084   0.223  16.300  0.1790 -0.4900  0.0875
  806TIP3    H123909   1.000   0.269  16.297 -0.2343 -1.1839  0.7167
  806TIP3    H223910   1.113   0.230  16.390  1.3369  0.6475 -0.3434
  807TIP3   OH223911   2.865   4.026  14.376 -0.2446 -0.5304  0.0373
  807TIP3    H123912   2.794   3.996  14.319 -1.0200 -1.2290  1.3185
  807TIP3    H223913   2.852   4.120  14.385 -1.4624 -0.7632  0.8453
  808TIP3   OH223914   2.179   1.487   6.115  0.2438  0.5515  0.1766
  808TIP3    H123915   2.124   1.443   6.181 -0.8563  0.8279 -0.5233
  808TIP3    H223916   2.258   1.511   6.162  0.1995 -0.7574  0.9844
  809TIP3   OH223917   5.308   5.199   4.633 -0.0819  0.5575  0.1594
  809TIP3    H123918   5.400   5.221   4.616 -0.5501  0.9820 -2.3224
  809TIP3    H223919   5.274   5.274   4.682  1.5595 -1.0245  4.1268
  810TIP3   OH223920   0.630   4.292  13.540 -0.0719  0.3184 -0.0364
  810TIP3    H123921   0.612   4.358  13.473 -0.0466 -0.8856 -1.2775
  810TIP3    H223922   0.711   4.322  13.582  0.4099  0.6423 -1.1562
  811TIP3   OH223923   5.651   5.020  10.539 -0.6130 -0.6737 -0.3176
  811TIP3    H123924   5.747   5.023  10.546 -0.5847 -1.1600 -0.4751
  811TIP3    H223925   5.626   5.108  10.512 -0.1445 -0.7717 -1.0923
  812TIP3   OH223926   0.484   5.801   4.108 -0.2182  0.0284  0.7012
  812TIP3    H123927   0.415   5.858   4.141 -0.6263  0.8510 -1.4012
  812TIP3    H223928   0.479   5.723   4.164 -1.8218  0.6972  1.5719
  813TIP3   OH223929   1.438   1.615  15.058 -0.1777 -0.1758 -0.3651
  813TIP3    H123930   1.530   1.639  15.056  0.3985 -2.1600 -0.1854
  813TIP3    H223931   1.400   1.658  14.981  0.6615  1.4333  0.0837
  814TIP3   OH223932   3.258   6.217   5.338 -0.2648  0.2100 -0.4272
  814TIP3    H123933   3.179   6.237   5.389  0.7564 -0.8590  1.7092
  814TIP3    H223934   3.291   6.302   5.311 -0.4630  0.9142  1.3847
  815TIP3   OH223935   2.801   5.256   2.076  0.8104  0.3299 -0.0863
  815TIP3    H123936   2.709   5.255   2.050  0.2126  0.5563  1.8856
  815TIP3    H223937   2.814   5.171   2.120  1.8083 -0.0952 -1.1592
  816TIP3   OH223938   4.356   0.210  16.126  0.6213 -0.5284 -0.2513
  816TIP3    H123939   4.330   0.299  16.149 -0.4132 -0.5311 -1.2882
  816TIP3    H223940   4.428   0.221  16.064  2.0013 -0.4854  1.3033
  817TIP3   OH223941   4.305   0.318   1.270 -0.3621  0.3792  0.0867
  817TIP3    H123942   4.265   0.401   1.297  0.1105  1.1747 -1.5384
  817TIP3    H223943   4.356   0.290   1.346 -2.1266  0.4959  1.3937
  818TIP3   OH223944   1.872   4.112   3.132  0.3335  0.6965  0.4520
  818TIP3    H123945   1.947   4.097   3.074  0.7375 -0.5071  1.2471
  818TIP3    H223946   1.860   4.029   3.178 -0.5066  1.3559  1.4807
  819TIP3   OH223947   4.863   6.625   6.391 -0.3524  0.7745  0.2041
  819TIP3    H123948   4.785   6.600   6.440 -0.3747  0.0953 -0.1647
  819TIP3    H223949   4.830   6.653   6.305 -0.0871 -1.0373 -0.5197
  820TIP3   OH223950   1.075   3.023  16.444 -0.1588  0.3376  0.1125
  820TIP3    H123951   1.096   3.094  16.383  0.4018  1.5703  1.6779
  820TIP3    H223952   1.140   2.956  16.426 -0.1387  0.5810 -0.7815
  821TIP3   OH223953   0.725   4.447   1.252  0.2141  0.2884  0.7447
  821TIP3    H123954   0.722   4.542   1.257  0.0865  0.4217 -1.2463
  821TIP3    H223955   0.672   4.418   1.327 -0.2302  1.7849  1.0465
  822TIP3   OH223956   0.688   2.006   4.746 -0.1244  0.3988  0.1286
  822TIP3    H123957   0.747   2.012   4.670  0.4172 -0.9962  0.4032
  822TIP3    H223958   0.635   2.085   4.741 -0.9032 -0.1677 -2.3931
  823TIP3   OH223959   3.772   4.448  15.669  0.2112 -0.2742  0.1994
  823TIP3    H123960   3.761   4.370  15.724  0.9518  0.0428  0.8218
  823TIP3    H223961   3.824   4.418  15.595 -0.9910 -0.7602 -0.4789
  824TIP3   OH223962   3.212   0.389  12.270 -0.3119  0.0863  0.2624
  824TIP3    H123963   3.250   0.320  12.323 -0.5518 -0.3799 -0.1673
  824TIP3    H223964   3.132   0.413  12.317 -0.0058  0.3864  0.6426
  825TIP3   OH223965   6.072   3.089  16.007  0.3360  0.0682 -0.0454
  825TIP3    H123966   5.992   3.130  15.973  0.6533 -0.4491 -1.4788
  825TIP3    H223967   6.071   3.110  16.101 -1.9484 -0.7030  0.1657
  826TIP3   OH223968   3.657   6.530   2.164 -0.0274 -0.3749  0.0953
  826TIP3    H123969   3.745   6.566   2.173  0.1163 -0.5295 -0.6426
  826TIP3    H223970   3.604   6.604   2.134  0.3796 -0.8577 -1.9716
  827TIP3   OH223971   2.342   1.121  15.958  0.3905 -0.5976 -0.6101
  827TIP3    H123972   2.305   1.210  15.953 -0.1161 -0.8251 -1.0436
  827TIP3    H223973   2.352   1.104  16.051 -0.5824 -0.5138 -0.4834
  828TIP3   OH223974   4.070   4.654  12.348 -0.3089  0.1718 -0.0682
  828TIP3    H123975   4.067   4.604  12.430 -2.4556  2.4375  1.3813
  828TIP3    H223976   4.103   4.740  12.373 -1.4981  1.0800 -1.4309
  829TIP3   OH223977   6.118   4.002  16.837  0.7679  0.2344  0.0407
  829TIP3    H123978   6.032   3.968  16.814  0.8671  0.7685 -1.2424
  829TIP3    H223979   6.100   4.074  16.897  0.6022 -2.4871  3.5524
  830TIP3   OH223980   5.924   0.548   1.292 -0.6421  0.7499 -0.0897
  830TIP3    H123981   5.946   0.617   1.229  3.6431 -1.5646 -1.5447
  830TIP3    H223982   5.843   0.510   1.258 -1.1273  2.7423 -1.3220
  831TIP3   OH223983   0.148   3.041  14.277 -0.0697  0.3552  0.1419
  831TIP3    H123984   0.167   3.099  14.351  0.6739 -1.7066  1.6652
  831TIP3    H223985   0.078   2.984  14.309  1.1600 -1.4344 -0.2401
  832TIP3   OH223986   4.742   4.032   0.370  0.8307  0.0140  0.1645
  832TIP3    H123987   4.776   4.122   0.375  0.7017  0.1933 -1.6473
  832TIP3    H223988   4.716   4.021   0.279 -1.9039 -0.8828  0.9430
  833TIP3   OH223989   5.247   4.525  15.777 -0.1311  0.1371  0.2802
  833TIP3    H123990   5.161   4.484  15.771 -0.7955  0.8945  3.1246
  833TIP3    H223991   5.239   4.606  15.725 -0.3477 -0.8857 -1.3456
  834TIP3   OH223992   5.193   2.238   1.175 -0.4890  0.2281 -0.5923
  834TIP3    H123993   5.245   2.294   1.117  1.8202 -0.3105  0.8072
  834TIP3    H223994   5.174   2.160   1.123 -1.7392  1.2871 -1.7941
  835TIP3   OH223995   4.946   0.335   2.178 -0.5598 -0.0642  0.1228
  835TIP3    H123996   4.895   0.307   2.102  0.7762  1.9400 -1.6147
  835TIP3    H223997   5.010   0.265   2.190  0.0584  0.1797 -1.4717
  836TIP3   OH223998   1.239   1.802  13.078  0.1990 -0.3066 -1.0085
  836TIP3    H123999   1.178   1.787  13.149  1.2770 -2.3103 -0.4134
  836TIP3    H224000   1.212   1.741  13.009  0.1190  0.4806 -1.6922
  837TIP3   OH224001   2.758   0.744   3.806  0.0318  0.0860  0.4080
  837TIP3    H124002   2.777   0.779   3.892 -0.4291 -1.5161  1.1992
  837TIP3    H224003   2.693   0.675   3.821  1.0089 -1.2291 -1.0187
  838TIP3   OH224004   3.982   0.922  13.517 -0.5055  0.1711 -0.0583
  838TIP3    H124005   4.030   0.998  13.486 -0.7773  0.2969 -0.1713
  838TIP3    H224006   3.892   0.936  13.487 -0.4249 -0.4998 -0.6323
  839TIP3   OH224007   5.799   2.356   6.087  0.2343  0.0688 -0.6445
  839TIP3    H124008   5.832   2.402   6.010  1.2620 -1.3996 -1.1410
  839TIP3    H224009   5.867   2.370   6.154  0.0879  0.0865 -0.4996
  840TIP3   OH224010   4.587   3.436   3.380 -0.2321 -0.0719 -0.2702
  840TIP3    H124011   4.592   3.386   3.462 -0.1084 -1.4296 -1.0911
  840TIP3    H224012   4.668   3.417   3.335  0.4564  1.9849 -0.0261
  841TIP3   OH224013   6.503   2.640  10.982 -0.0667  0.1247 -0.0324
  841TIP3    H124014   6.470   2.727  11.005  1.6247  0.2012  2.5796
  841TIP3    H224015   6.481   2.629  10.890 -2.9254  2.0859  0.2995
  842TIP3   OH224016   4.071   1.555  15.314  0.2981  0.2651  0.6362
  842TIP3    H124017   4.088   1.462  15.298 -1.4431 -0.3685  2.1544
  842TIP3    H224018   3.978   1.560  15.336  0.5173  2.2588  1.3750
  843TIP3   OH224019   4.259   5.284   3.761 -0.1556  0.2257  0.4226
  843TIP3    H124020   4.169   5.309   3.740 -0.5350 -1.8147 -0.6758
  843TIP3    H224021   4.249   5.218   3.830  0.4974 -0.0306  0.2744
  844TIP3   OH224022   6.144   0.458  12.998 -0.3474 -0.3362  0.7197
  844TIP3    H124023   6.196   0.405  12.937  0.3901  1.7768 -0.5595
  844TIP3    H224024   6.187   0.446  13.083 -0.5378 -2.1873  0.5970
  845TIP3   OH224025   1.016   3.068  11.889  0.8535 -0.2115 -0.1730
  845TIP3    H124026   1.087   3.039  11.945 -0.7265 -2.5398  0.7875
  845TIP3    H224027   1.019   3.010  11.813  0.3612  0.0783 -0.4210
  846TIP3   OH224028   2.405   1.305   1.275  0.1292 -0.0787  0.0458
  846TIP3    H124029   2.413   1.284   1.368  1.9395 -0.4508 -0.1587
  846TIP3    H224030   2.353   1.233   1.239  0.8927 -0.8720  0.4853
  847TIP3   OH224031   2.067   6.356   4.307  0.1095 -0.2623 -0.1475
  847TIP3    H124032   1.974   6.377   4.299  0.7801  2.6389 -1.6875
  847TIP3    H224033   2.077   6.274   4.259 -1.6888 -0.9106  0.4837
  848TIP3   OH224034   0.853   0.838  16.600  0.2827  0.0116 -0.5950
  848TIP3    H124035   0.917   0.789  16.652 -0.2340 -0.6574 -0.5751
  848TIP3    H224036   0.890   0.926  16.594  0.7918 -0.1368  0.1420
  849TIP3   OH224037   0.885   0.893   5.168  0.0018  0.3881 -0.1287
  849TIP3    H124038   0.801   0.936   5.158 -0.9817 -1.1775  0.9024
  849TIP3    H224039   0.926   0.898   5.082 -0.4736  2.4366 -0.2875
  850TIP3   OH224040   2.160   3.514   3.810 -0.4720  0.6128  0.5625
  850TIP3    H124041   2.129   3.528   3.721  1.4826  1.5053 -0.0358
  850TIP3    H224042   2.085   3.477   3.856 -1.8370  1.0595 -1.1894
  851TIP3   OH224043   3.310   5.252   3.895  0.5204  0.1404 -0.0573
  851TIP3    H124044   3.221   5.273   3.922  1.0168 -0.4461  2.1656
  851TIP3    H224045   3.298   5.200   3.815 -1.2431 -1.4189  1.1331
  852TIP3   OH224046   3.650   5.478   2.156  0.6291  0.3986  0.4178
  852TIP3    H124047   3.597   5.482   2.076  1.9329 -0.7020 -0.5465
  852TIP3    H224048   3.589   5.447   2.223 -1.1450  3.6395  0.5351
  853TIP3   OH224049   0.025   1.043  12.602  0.2379 -0.3451 -0.2642
  853TIP3    H124050   0.069   1.035  12.687  0.1067  0.9332 -0.0425
  853TIP3    H224051  -0.067   1.059  12.624 -0.3109 -2.5761 -0.7234
  854TIP3   OH224052   2.127   4.722  13.752 -0.4882  0.7801 -0.0436
  854TIP3    H124053   2.153   4.805  13.791  0.9808 -0.1853  1.1485
  854TIP3    H224054   2.095   4.670  13.826 -1.3855  0.2521 -0.7746
  855TIP3   OH224055   4.070   3.576  10.551  0.1296 -0.3902 -0.3434
  855TIP3    H124056   3.976   3.563  10.537  0.7193 -2.2816 -4.0928
  855TIP3    H224057   4.088   3.532  10.634 -2.4274  1.1800  1.1600
  856TIP3   OH224058   0.311   5.894  16.386  0.0837 -0.0234  0.4353
  856TIP3    H124059   0.342   5.804  16.390  1.1506  0.2890 -0.4469
  856TIP3    H224060   0.318   5.918  16.294  1.0958  1.3862  0.8458
  857TIP3   OH224061   4.442   2.087   2.580  0.2578 -0.0426  0.0748
  857TIP3    H124062   4.530   2.076   2.616  0.6041  0.2975 -0.6674
  857TIP3    H224063   4.445   2.046   2.494 -0.3643 -0.1963  0.1189
  858TIP3   OH224064   1.486   1.114   1.709 -0.5248 -0.2774 -0.1985
  858TIP3    H124065   1.447   1.197   1.736  0.9754  0.2736  0.3286
  858TIP3    H224066   1.564   1.104   1.763 -0.9813 -2.3423  0.1868
  859TIP3   OH224067   1.216   5.021   3.640  0.2509 -0.2599 -0.0223
  859TIP3    H124068   1.216   4.937   3.593  1.2598 -1.2655  1.6950
  859TIP3    H224069   1.133   5.062   3.615  0.8574 -0.5741 -2.9023
  860TIP3   OH224070   0.940   1.281   2.947  0.1684  0.2505  0.0100
  860TIP3    H124071   0.997   1.223   2.998 -0.6729 -1.9963 -1.4440
  860TIP3    H224072   0.986   1.365   2.946  1.5852 -0.4202  2.0157
  861TIP3   OH224073   3.761   2.608  15.084 -0.3285 -0.9180  0.4916
  861TIP3    H124074   3.836   2.627  15.141 -0.2760 -0.4620  0.2771
  861TIP3    H224075   3.752   2.513  15.087 -0.6352 -0.8683  1.6614
  862TIP3   OH224076   6.327   3.638   3.642 -0.8989  0.1271  0.0243
  862TIP3    H124077   6.382   3.714   3.661 -0.7127 -0.4882  2.1797
  862TIP3    H224078   6.386   3.575   3.601 -0.9905  0.9783 -1.5119
  863TIP3   OH224079   1.353   3.425  14.186 -0.3874  0.2608  0.0484
  863TIP3    H124080   1.353   3.427  14.282  0.1874  1.1185  0.0376
  863TIP3    H224081   1.392   3.340  14.164  2.7173  1.4319  0.5906
  864TIP3   OH224082   4.253   0.112   0.284  0.1297 -0.3029 -1.0395
  864TIP3    H124083   4.167   0.083   0.256  1.3293 -2.2974 -2.9324
  864TIP3    H224084   4.283   0.170   0.214  0.0229  1.1466  0.0532
  865TIP3   OH224085   6.189   4.194   0.784  0.1901  0.3594 -0.8583
  865TIP3    H124086   6.100   4.197   0.819  0.0486 -2.4543 -0.7345
  865TIP3    H224087   6.245   4.205   0.860 -0.1142 -1.5283 -0.3091
  866TIP3   OH224088   2.172   3.781   3.309 -0.0660  0.6446 -0.0412
  866TIP3    H124089   2.203   3.714   3.369  1.2692  1.3733  0.1287
  866TIP3    H224090   2.188   3.746   3.222  1.3635  1.0312  0.0430
  867TIP3   OH224091   6.109   1.274   0.562 -0.4783 -0.0840  0.4908
  867TIP3    H124092   6.146   1.315   0.640  1.0643 -0.8013  0.1885
  867TIP3    H224093   6.021   1.309   0.555  0.3646  2.2972  0.8817
  868TIP3   OH224094   0.482   5.062   1.679 -0.6157  0.2177 -0.7964
  868TIP3    H124095   0.408   5.014   1.715 -0.0172  1.1339  1.8846
  868TIP3    H224096   0.496   5.135   1.740  0.8163  1.6514 -2.6893
  869TIP3   OH224097   1.547   2.186   5.807  0.4023 -0.2963 -0.0545
  869TIP3    H124098   1.590   2.240   5.873 -0.0811 -0.7207  0.6201
  869TIP3    H224099   1.550   2.097   5.843  0.5504 -0.6096 -0.8218
  870TIP3   OH224100   6.145   6.806  13.986  0.4583  0.0888  0.2914
  870TIP3    H124101   6.185   6.893  13.989  0.9058 -0.1353  1.6400
  870TIP3    H224102   6.216   6.749  13.956  0.5698  0.0029  0.7038
  871TIP3   OH224103   3.248   1.576  15.324 -0.3653 -0.6466  0.6599
  871TIP3    H124104   3.222   1.581  15.232 -1.5980 -2.2944  0.8693
  871TIP3    H224105   3.344   1.566  15.322 -0.2165  0.8049 -0.3554
  872TIP3   OH224106   2.252   1.382  16.047 -0.3423  0.2728 -0.1675
  872TIP3    H124107   2.208   1.467  16.054  0.8381  0.7601  2.4883
  872TIP3    H224108   2.214   1.330  16.118  0.6059 -0.6204 -0.2956
  873TIP3   OH224109   4.691   2.659   2.945 -0.4034 -0.4268 -0.3055
  873TIP3    H124110   4.722   2.678   3.033 -0.2924 -1.6601 -0.0574
  873TIP3    H224111   4.596   2.647   2.955 -0.0305 -3.5975  0.2615
  874TIP3   OH224112   4.170   0.556   4.783  0.1135 -0.6249  0.3304
  874TIP3    H124113   4.175   0.637   4.833 -0.8092 -0.7158  0.5852
  874TIP3    H224114   4.255   0.513   4.799  0.5395  0.2003  0.3247
  875TIP3   OH224115   2.731   5.716  10.554  0.1015 -0.4197  0.6044
  875TIP3    H124116   2.804   5.767  10.589  0.1888 -1.1590  1.5114
  875TIP3    H224117   2.653   5.753  10.596 -0.1774  0.9651 -1.0326
  876TIP3   OH224118   4.225   3.743   3.322  0.5753 -0.2960 -0.1741
  876TIP3    H124119   4.309   3.783   3.342  0.8270 -1.1968  0.5882
  876TIP3    H224120   4.244   3.651   3.307 -0.3734 -0.6641  0.7601
  877TIP3   OH224121   5.531   5.390  13.688  0.0554 -0.7170  0.3998
  877TIP3    H124122   5.605   5.380  13.629 -0.6033 -1.3896 -0.3311
  877TIP3    H224123   5.570   5.402  13.775  1.0871  1.7488 -0.3219
  878TIP3   OH224124   4.086   3.243   4.308 -0.4062  0.5433  0.3539
  878TIP3    H124125   3.990   3.245   4.310 -0.4134  0.3241  0.2997
  878TIP3    H224126   4.112   3.335   4.315 -0.6337  0.6625 -0.2679
  879TIP3   OH224127   2.404   6.123  12.514  0.0710 -0.2355  0.3942
  879TIP3    H124128   2.325   6.072  12.533  0.5697 -1.1487  0.0280
  879TIP3    H224129   2.383   6.211  12.547 -1.4177 -0.2409 -0.4474
  880TIP3   OH224130   4.862   4.543   3.550  0.0355 -0.0126 -0.4177
  880TIP3    H124131   4.921   4.487   3.601  0.7734  0.5126 -0.6698
  880TIP3    H224132   4.891   4.532   3.460 -0.8067 -0.3964 -0.6410
  881TIP3   OH224133   2.879   0.795   0.539  0.1827  0.3426  0.4695
  881TIP3    H124134   2.968   0.817   0.511  0.2682  1.4442  1.4916
  881TIP3    H224135   2.872   0.701   0.525  1.7091  0.1309  0.8644
  882TIP3   OH224136   4.876   1.252   5.590  0.3116 -0.7711 -0.5999
  882TIP3    H124137   4.848   1.161   5.598 -1.6753 -0.3087 -1.5966
  882TIP3    H224138   4.829   1.285   5.513 -2.4279  2.2258  2.0272
  883TIP3   OH224139   2.327   2.621  13.161  0.0830  0.1499  0.4534
  883TIP3    H124140   2.342   2.577  13.077 -0.9585 -0.2607  0.4676
  883TIP3    H224141   2.265   2.690  13.141 -2.1412 -1.4927  1.2735
  884TIP3   OH224142   1.847   6.084   4.265 -0.2263  0.5506  0.4280
  884TIP3    H124143   1.820   5.993   4.277  0.4576  0.3683  0.5754
  884TIP3    H224144   1.834   6.124   4.351  0.0921  0.4337  0.5292
  885TIP3   OH224145   5.981   1.214  13.560 -0.1474 -0.4678 -0.4367
  885TIP3    H124146   5.972   1.154  13.633 -0.4905 -0.3527 -0.3842
  885TIP3    H224147   5.966   1.160  13.482 -1.7925 -0.2033 -0.3422
  886TIP3   OH224148   2.872   6.106  14.407  0.6384 -0.3026 -0.6279
  886TIP3    H124149   2.876   6.010  14.412 -2.0416 -0.4343  0.9397
  886TIP3    H224150   2.903   6.135  14.493 -0.1589  0.1394 -0.4873
  887TIP3   OH224151   2.785   2.868   6.288  0.2293  0.2295 -0.2782
  887TIP3    H124152   2.807   2.932   6.220  0.3658  1.7702  1.1670
  887TIP3    H224153   2.697   2.893   6.316  1.6763  2.3242  2.9543
  888TIP3   OH224154   0.963   4.272  12.478 -0.3921  0.4053  1.0188
  888TIP3    H124155   0.937   4.292  12.568  1.6303  1.1755  1.4863
  888TIP3    H224156   0.924   4.341  12.426  1.0500  1.8606  1.7723
  889TIP3   OH224157   0.645   4.614  14.084 -0.2884  0.1724  0.1864
  889TIP3    H124158   0.653   4.610  13.988  1.0802 -1.2179  0.3328
  889TIP3    H224159   0.555   4.642  14.099 -0.6534  0.0019 -1.5025
  890TIP3   OH224160   3.973   2.133  12.405 -0.1820  0.2121 -0.4010
  890TIP3    H124161   3.973   2.228  12.413 -1.4528  0.3035 -1.0591
  890TIP3    H224162   3.986   2.117  12.311 -0.1302 -0.2541 -0.3160
  891TIP3   OH224163   0.799   6.578  12.359  0.0311 -0.1179  0.0566
  891TIP3    H124164   0.713   6.611  12.384  0.2770  1.2474 -0.7741
  891TIP3    H224165   0.847   6.656  12.329  2.2678 -0.4405  2.3761
  892TIP3   OH224166   2.374   5.519   3.527  0.6191 -0.0669 -0.2154
  892TIP3    H124167   2.377   5.532   3.432  0.5174  1.6114 -0.0225
  892TIP3    H224168   2.443   5.577   3.561  0.5328 -0.5088  0.7591
  893TIP3   OH224169   5.158   1.643  13.400 -0.4730  0.1166 -0.2402
  893TIP3    H124170   5.137   1.560  13.442  1.0387  0.9036  2.2946
  893TIP3    H224171   5.223   1.684  13.458 -0.0154  2.3940 -2.1798
  894TIP3   OH224172   0.687   4.011   2.812  0.5550 -0.1714 -0.0609
  894TIP3    H124173   0.728   4.048   2.734 -0.4532 -0.6664 -0.8556
  894TIP3    H224174   0.630   4.080   2.844 -0.5231 -0.6313 -0.9281
  895TIP3   OH224175   5.557   0.948  15.447 -0.2620 -0.8611 -0.2586
  895TIP3    H124176   5.559   0.985  15.536 -2.4742 -0.6984 -0.2208
  895TIP3    H224177   5.634   0.986  15.404  0.1979 -0.0066  1.2336
  896TIP3   OH224178   5.601   6.403   6.506  0.5532  0.2422 -0.5451
  896TIP3    H124179   5.604   6.369   6.596 -2.6004  1.7571  0.2642
  896TIP3    H224180   5.646   6.487   6.512  1.3590 -0.1706 -0.6839
  897TIP3   OH224181   5.235   3.619   5.713 -0.0122  0.1984 -0.4378
  897TIP3    H124182   5.210   3.548   5.772 -0.3364  1.1764  0.6430
  897TIP3    H224183   5.158   3.675   5.710 -0.1719 -0.0481 -2.1855
  898TIP3   OH224184   5.641   2.863   5.535  0.2523  0.3305  0.0640
  898TIP3    H124185   5.554   2.848   5.498  0.0627  1.6214 -0.0561
  898TIP3    H224186   5.695   2.794   5.497 -0.2925  0.6821 -1.4269
  899TIP3   OH224187   1.930   1.573  13.466  0.1058 -0.2842 -0.1734
  899TIP3    H124188   1.920   1.542  13.556 -0.3521  0.1825 -0.0610
  899TIP3    H224189   1.896   1.502  13.412 -0.1710 -0.3198  0.0464
  900TIP3   OH224190   6.776   4.648   2.344  0.3906 -0.3016 -0.6038
  900TIP3    H124191   6.697   4.626   2.293  1.0229 -0.4418 -1.5435
  900TIP3    H224192   6.843   4.590   2.309  1.0302  0.1412 -0.1199
  901TIP3   OH224193   6.775   3.631   6.635  0.0127 -0.8409 -0.5429
  901TIP3    H124194   6.821   3.650   6.717 -0.5986 -2.3043  0.1913
  901TIP3    H224195   6.838   3.652   6.566  1.4018 -1.7505  0.3937
  902TIP3   OH224196   2.079   3.146   1.468  0.1298  0.1019 -0.1461
  902TIP3    H124197   2.005   3.197   1.437  0.7098  0.8174 -0.3775
  902TIP3    H224198   2.146   3.211   1.491  1.0388 -0.5511 -0.8434
  903TIP3   OH224199   1.122   2.072  11.785  0.3904  0.1311 -0.4674
  903TIP3    H124200   1.180   2.120  11.727  1.4421 -0.1695  0.3176
  903TIP3    H224201   1.057   2.032  11.727  2.0414 -1.0582 -1.5782
  904TIP3   OH224202   5.934   6.785  11.557  0.1108  0.0032 -0.2644
  904TIP3    H124203   5.986   6.865  11.559 -2.0884  1.5151  2.1098
  904TIP3    H224204   5.927   6.763  11.464  5.0534 -0.5527 -0.7930
  905TIP3   OH224205   0.983   2.127   2.539  0.5354  0.5683  0.3119
  905TIP3    H124206   1.024   2.202   2.496  0.2013  1.0468  0.8175
  905TIP3    H224207   0.896   2.121   2.499  0.6687  0.2695  0.0653
  906TIP3   OH224208   4.362   2.890   4.140  0.0554  0.1765  0.0948
  906TIP3    H124209   4.430   2.835   4.179  1.1930  0.5739 -1.2279
  906TIP3    H224210   4.291   2.889   4.203  0.8870 -1.0905  1.0669
  907TIP3   OH224211   4.475   0.717   2.913  0.5578 -0.2233  0.6051
  907TIP3    H124212   4.467   0.779   2.840  1.7749  0.0709  0.6986
  907TIP3    H224213   4.549   0.750   2.964  0.3253 -0.9690  1.4400
  908TIP3   OH224214   0.381   2.923   4.884  0.0886  0.3886  0.2567
  908TIP3    H124215   0.388   2.828   4.877  0.1253  0.5116 -2.1291
  908TIP3    H224216   0.439   2.946   4.957  1.1783 -1.2995 -0.0211
  909TIP3   OH224217   1.227   5.398  10.510 -0.4258 -0.1341 -0.6608
  909TIP3    H124218   1.271   5.472  10.552  0.4018 -0.4440 -0.9673
  909TIP3    H224219   1.140   5.396  10.550 -0.3924  0.8832 -0.5091
  910TIP3   OH224220   4.417   3.362   1.334  0.1277  0.0205 -0.4706
  910TIP3    H124221   4.428   3.288   1.393 -1.2555  1.5878  1.9459
  910TIP3    H224222   4.475   3.430   1.369 -0.4280  0.8803 -1.1675
  911TIP3   OH224223   5.912   0.521  16.904 -0.4992  0.0881 -0.0128
  911TIP3    H124224   5.981   0.470  16.945 -0.2655  0.4785  0.0819
  911TIP3    H224225   5.831   0.480  16.934 -0.3203  0.0417  0.4055
  912TIP3   OH224226   2.734   5.745   3.191 -0.0435  0.0698  0.2719
  912TIP3    H124227   2.810   5.803   3.191  0.6562 -0.8250 -0.1005
  912TIP3    H224228   2.768   5.662   3.224 -0.7954 -0.4239 -0.1838
  913TIP3   OH224229   0.028   2.935   1.963  0.0014 -0.3658  0.1612
  913TIP3    H124230   0.059   2.845   1.961 -0.4823 -0.5407 -1.8386
  913TIP3    H224231   0.104   2.987   1.938 -0.1189 -0.3924 -0.2834
  914TIP3   OH224232   1.379   5.195   5.138 -0.2852  0.5432 -0.2329
  914TIP3    H124233   1.435   5.151   5.203 -0.8561  0.1785  0.0217
  914TIP3    H224234   1.438   5.254   5.092  0.1708  0.6780  0.5061
  915TIP3   OH224235   1.560   0.729  14.119  0.9603  0.4223  0.0960
  915TIP3    H124236   1.627   0.692  14.176  0.6305  0.9754  0.8539
  915TIP3    H224237   1.479   0.725  14.170  0.6359  0.8091 -0.3744
  916TIP3   OH224238   1.740   2.337   1.025 -0.2785 -0.2139  0.1214
  916TIP3    H124239   1.699   2.320   1.110 -0.4232  0.3324  0.1594
  916TIP3    H224240   1.680   2.297   0.962 -0.0026 -0.9189  0.2892
  917TIP3   OH224241   2.504   4.568   1.556  0.7319  0.0031 -0.3399
  917TIP3    H124242   2.454   4.537   1.480 -0.4357 -0.0059  0.4096
  917TIP3    H224243   2.578   4.508   1.562 -0.0688 -1.0301 -0.4770
  918TIP3   OH224244   6.526   0.558   0.897  0.1898  0.4901 -0.5777
  918TIP3    H124245   6.544   0.553   0.991  0.8667 -0.5480 -0.7512
  918TIP3    H224246   6.604   0.523   0.855 -0.0845  0.9850 -1.5434
  919TIP3   OH224247   4.784   3.461  11.500 -0.0200  0.3942 -0.3930
  919TIP3    H124248   4.815   3.521  11.431 -1.2030  0.7371 -0.6438
  919TIP3    H224249   4.864   3.431  11.542  0.6177  2.5423  0.0685
  920TIP3   OH224250   0.495   0.519   5.864 -0.0780  0.3575 -0.0452
  920TIP3    H124251   0.408   0.490   5.836  0.1927 -0.9699  0.3948
  920TIP3    H224252   0.478   0.587   5.929 -0.7878  0.1995 -0.0548
  921TIP3   OH224253   4.863   1.849   3.037 -0.1194 -0.3285  0.2837
  921TIP3    H124254   4.801   1.886   2.973  0.9719  2.0209  0.4645
  921TIP3    H224255   4.811   1.839   3.117 -0.3895  1.3809  0.3628
  922TIP3   OH224256   3.374   1.657  12.224 -0.1579 -0.1728  0.1572
  922TIP3    H124257   3.324   1.739  12.225 -0.2140 -0.1774  2.5003
  922TIP3    H224258   3.373   1.630  12.132  0.1965  2.6439 -0.7887
  923TIP3   OH224259   5.486   3.529  16.056 -0.5069  0.1152 -0.8562
  923TIP3    H124260   5.516   3.438  16.057  0.1050  0.3038  1.3405
  923TIP3    H224261   5.473   3.548  15.963  0.1267 -1.9539 -1.4235
  924TIP3   OH224262   4.523   2.830  16.103  0.1407 -0.0478 -0.4280
  924TIP3    H124263   4.492   2.743  16.078  0.1898 -0.6924  1.5873
  924TIP3    H224264   4.446   2.875  16.136  0.3021  0.3318 -0.5625
  925TIP3   OH224265   2.345   1.764  11.840 -0.5108 -0.3544  0.2918
  925TIP3    H124266   2.346   1.696  11.907 -1.0904  0.1330  0.8084
  925TIP3    H224267   2.359   1.846  11.889  0.0541 -0.0857 -0.2995
  926TIP3   OH224268   6.608   2.837   4.880  0.6927  0.3867  0.1099
  926TIP3    H124269   6.543   2.846   4.810  0.4456  1.0996  0.4292
  926TIP3    H224270   6.673   2.905   4.861  0.4196  0.8454  0.7871
  927TIP3   OH224271   0.640   1.308  16.614  0.3430 -0.1392 -0.0112
  927TIP3    H124272   0.657   1.289  16.522 -0.1210 -2.5166  0.3308
  927TIP3    H224273   0.580   1.383  16.612 -0.6610 -0.9273 -1.7059
  928TIP3   OH224274   5.352   3.119  15.302 -0.6134 -0.3932  0.2592
  928TIP3    H124275   5.284   3.053  15.290  0.0194 -0.7823 -1.3610
  928TIP3    H224276   5.373   3.114  15.396 -1.9863 -1.0696  0.5548
  929TIP3   OH224277   1.793   4.113   5.511  0.0654 -0.4040  0.4183
  929TIP3    H124278   1.863   4.177   5.494  0.8315 -1.3564 -0.1167
  929TIP3    H224279   1.836   4.028   5.502 -1.0495 -1.0012  0.6233
  930TIP3   OH224280   5.171   4.456   5.383  0.0394  0.0487  0.3976
  930TIP3    H124281   5.095   4.444   5.441  0.2985 -0.4478  0.6395
  930TIP3    H224282   5.227   4.380   5.401  1.5077  1.3597  1.6007
  931TIP3   OH224283   5.381   6.548   6.247 -0.2182 -0.0684 -0.1414
  931TIP3    H124284   5.385   6.639   6.277  1.0212 -0.1372 -0.0435
  931TIP3    H224285   5.381   6.555   6.151 -1.7255  0.0660 -0.1594
  932TIP3   OH224286   2.405   6.482   0.514 -0.0277 -0.2235 -0.4890
  932TIP3    H124287   2.333   6.480   0.577 -0.0295 -0.8460 -0.5057
  932TIP3    H224288   2.466   6.415   0.545 -0.2350 -0.8430 -1.3817
  933TIP3   OH224289   4.039   2.410   4.955 -0.0444 -0.0606  0.2295
  933TIP3    H124290   4.018   2.371   5.040 -1.7292 -1.2650 -0.6819
  933TIP3    H224291   4.050   2.335   4.897 -1.7111  0.7404 -1.2077
  934TIP3   OH224292   3.923   1.342  14.546 -0.6345 -0.0043  0.2449
  934TIP3    H124293   3.829   1.326  14.554 -0.6602  0.1359  0.2228
  934TIP3    H224294   3.933   1.436  14.562 -0.2023 -0.4202  2.7784
  935TIP3   OH224295   2.593   3.143   0.323  0.3380  0.3336  0.4421
  935TIP3    H124296   2.587   3.219   0.265 -1.0636  0.7941  1.1173
  935TIP3    H224297   2.544   3.170   0.402  0.2257 -1.0908  0.8878
  936TIP3   OH224298   6.407   5.939  14.069 -0.2158  0.0876  0.1849
  936TIP3    H124299   6.457   5.866  14.032  0.6695  0.5464  0.4536
  936TIP3    H224300   6.434   6.015  14.017  0.2947  0.5600  1.1345
  937TIP3   OH224301   0.938   0.538  11.390 -0.2880 -0.1965 -0.1518
  937TIP3    H124302   1.013   0.485  11.363  0.7691  0.8720  0.5422
  937TIP3    H224303   0.962   0.628  11.365 -1.2872  0.1831  0.2011
  938TIP3   OH224304   3.310   5.957   2.001 -0.4170  0.0215 -0.7547
  938TIP3    H124305   3.366   5.886   1.971  0.3794  0.2996  0.0223
  938TIP3    H224306   3.331   5.966   2.094 -1.2032  0.6381 -0.6286
  939TIP3   OH224307   6.281   6.137   5.707  0.4272 -0.0989  0.5723
  939TIP3    H124308   6.252   6.110   5.620  2.3036  0.2948 -0.2450
  939TIP3    H224309   6.236   6.078   5.767  0.3120 -1.4554 -0.7855
  940TIP3   OH224310   5.092   3.694   6.421  0.1072 -0.5260  0.1386
  940TIP3    H124311   5.182   3.683   6.393  0.4224  1.9826 -0.0405
  940TIP3    H224312   5.095   3.689   6.517  0.3085 -1.0319  0.1107
  941TIP3   OH224313   5.265   5.483  13.078  0.0461  0.3842 -0.4654
  941TIP3    H124314   5.185   5.440  13.110 -0.4756  0.8192 -1.1360
  941TIP3    H224315   5.244   5.576  13.080  0.4288  0.4863 -0.9224
  942TIP3   OH224316   2.319   0.546   0.710 -0.6811 -0.8293  0.1663
  942TIP3    H124317   2.248   0.598   0.747  0.1900  0.1258  0.5346
  942TIP3    H224318   2.367   0.513   0.786 -2.5842 -4.3006  0.0914
  943TIP3   OH224319   4.822   2.189   5.388 -0.0841 -0.0636  0.4171
  943TIP3    H124320   4.906   2.212   5.427 -0.8336  0.9960  1.4553
  943TIP3    H224321   4.841   2.111   5.335  1.9919  1.2954 -1.0307
  944TIP3   OH224322   2.529   2.111   4.104 -0.1597 -0.2700  0.3179
  944TIP3    H124323   2.495   2.200   4.104  0.1234 -0.1395  1.3107
  944TIP3    H224324   2.613   2.117   4.059 -0.2203 -0.0694  0.2323
  945TIP3   OH224325   5.723   5.952   3.909  0.0404 -0.5107 -0.6935
  945TIP3    H124326   5.796   5.891   3.924  0.4550  0.1221 -0.1095
  945TIP3    H224327   5.719   6.004   3.989  0.0315  0.5958 -1.4027
  946TIP3   OH224328   6.661   4.507  12.484  0.1864 -0.2303  0.2009
  946TIP3    H124329   6.755   4.523  12.478  0.2806 -0.4970  0.8988
  946TIP3    H224330   6.622   4.570  12.424  0.8370 -0.4210 -0.4383
  947TIP3   OH224331   5.880   4.744  14.686 -0.6796  0.2958  0.0442
  947TIP3    H124332   5.884   4.798  14.765 -0.3382  1.3513 -0.6786
  947TIP3    H224333   5.960   4.765  14.639 -1.1109  0.0486 -0.8148
  948TIP3   OH224334   0.198   6.476   4.049 -0.1208 -0.0908  0.5004
  948TIP3    H124335   0.201   6.382   4.029  0.6459 -0.0772  0.5216
  948TIP3    H224336   0.228   6.518   3.969  0.7639  0.0704  0.9063
  949TIP3   OH224337   2.447   2.942   4.393 -0.2271  0.3402 -0.1247
  949TIP3    H124338   2.352   2.938   4.396 -0.2154  0.0766 -0.0439
  949TIP3    H224339   2.475   2.850   4.399  0.0097  0.3507 -0.9179
  950TIP3   OH224340   3.841   3.405  12.213 -0.3719 -0.3553 -0.6948
  950TIP3    H124341   3.911   3.396  12.149  0.0711  0.2298 -0.3060
  950TIP3    H224342   3.787   3.477  12.179 -0.4543 -0.4184 -0.6979
  951TIP3   OH224343   3.413   2.487   4.372  0.9427 -0.3759  0.0991
  951TIP3    H124344   3.501   2.481   4.408  0.9332 -0.9503  0.0349
  951TIP3    H224345   3.369   2.408   4.402  0.8133 -0.6787 -0.8449
  952TIP3   OH224346   1.327   2.511  15.457 -0.1689  0.3453  0.0428
  952TIP3    H124347   1.348   2.578  15.392 -0.0280  0.3543  0.0973
  952TIP3    H224348   1.410   2.465  15.471  0.0640  1.0193  0.9890
  953TIP3   OH224349   4.300   0.371  14.411 -0.3411  0.1566  0.5087
  953TIP3    H124350   4.208   0.360  14.387  0.0654 -1.2486 -0.5473
  953TIP3    H224351   4.312   0.311  14.485 -0.1769 -0.0285  0.3352
  954TIP3   OH224352   4.262   4.246  13.896 -0.1316 -0.4932 -0.5445
  954TIP3    H124353   4.341   4.220  13.942  0.1188  1.2660  0.0859
  954TIP3    H224354   4.262   4.342  13.900 -2.3529 -0.4429 -0.3861
  955TIP3   OH224355   6.745   3.070   2.787 -0.1280 -0.7483  0.1654
  955TIP3    H124356   6.774   3.086   2.697 -0.3736 -1.3979 -0.0382
  955TIP3    H224357   6.684   2.996   2.779 -0.0810 -0.8674  0.8803
  956TIP3   OH224358   4.415   4.263  12.146 -0.3792 -0.0735 -0.3272
  956TIP3    H124359   4.464   4.273  12.064 -1.0951 -1.3384 -0.9295
  956TIP3    H224360   4.324   4.257  12.119 -0.4737 -2.7867  0.3373
  957TIP3   OH224361   4.078   1.321  11.821  0.7881  0.1815  0.1643
  957TIP3    H124362   4.128   1.317  11.740 -0.4275 -0.1194 -0.5940
  957TIP3    H224363   4.075   1.230  11.852  1.3407  0.3109  0.6119
  958TIP3   OH224364   3.596   0.240  14.513 -0.4895  0.3709  0.1547
  958TIP3    H124365   3.528   0.283  14.461 -0.7317 -0.1815  0.0041
  958TIP3    H224366   3.679   0.270  14.475 -0.5648 -3.0028 -3.1987
  959TIP3   OH224367   1.642   2.345   1.562 -0.2076  0.1560 -0.0253
  959TIP3    H124368   1.637   2.409   1.491 -1.2127  0.3444  0.1856
  959TIP3    H224369   1.552   2.340   1.594  0.2763  0.3107  1.4322
  960TIP3   OH224370   4.084   2.388  15.587 -0.3771  0.2385 -0.2921
  960TIP3    H124371   4.119   2.300  15.572 -1.6421 -0.6212  1.4268
  960TIP3    H224372   4.079   2.396  15.682 -0.6999  2.0107 -0.4244
  961TIP3   OH224373   0.868   0.639   5.318  0.0838  0.0202 -0.4362
  961TIP3    H124374   0.954   0.624   5.358  0.3983  1.9978 -0.2656
  961TIP3    H224375   0.879   0.720   5.268 -1.7423  0.4260 -0.2314
  962TIP3   OH224376   1.952   3.600  13.551  0.4107 -0.4874  0.1001
  962TIP3    H124377   2.036   3.604  13.506 -0.4523  0.0523 -1.5501
  962TIP3    H224378   1.948   3.510  13.585  2.4010  0.0004  1.8221
  963TIP3   OH224379   1.188   4.903   5.166 -0.0117 -0.5983 -0.1476
  963TIP3    H124380   1.242   4.938   5.094  1.6644 -1.6885  0.5065
  963TIP3    H224381   1.230   4.819   5.188 -0.5424 -0.3433  2.0143
  964TIP3   OH224382   5.828   5.317   3.309 -0.2875 -0.1530 -0.0846
  964TIP3    H124383   5.912   5.349   3.275  0.6436 -0.7159  1.5545
  964TIP3    H224384   5.840   5.223   3.317 -0.3380 -0.0214  1.9889
  965TIP3   OH224385   5.742   3.188   4.984 -0.0608 -0.0598 -0.4713
  965TIP3    H124386   5.662   3.213   5.030  0.1056 -0.4497  0.0462
  965TIP3    H224387   5.718   3.107   4.938  0.2820 -0.7099  0.4493
  966TIP3   OH224388   6.054   0.337   4.715  0.2876 -0.3932  0.0698
  966TIP3    H124389   5.976   0.336   4.659  1.8653 -2.1945 -2.2609
  966TIP3    H224390   6.074   0.430   4.727 -1.4904  0.0699 -0.2655
  967TIP3   OH224391   5.341   5.819   1.539 -0.3492  0.1298  0.5167
  967TIP3    H124392   5.353   5.793   1.630 -1.8581 -1.8284  0.2148
  967TIP3    H224393   5.296   5.904   1.544 -1.5294 -0.5232  1.6420
  968TIP3   OH224394   0.527   5.490  12.997 -0.0670 -0.1448  0.0432
  968TIP3    H124395   0.482   5.465  12.916 -1.0111 -2.3572  1.1538
  968TIP3    H224396   0.458   5.490  13.064  0.8354  0.7987  1.0054
  969TIP3   OH224397   2.013   2.758  11.857 -0.5425  0.1987  0.1908
  969TIP3    H124398   1.967   2.758  11.941  2.1734 -1.9124  1.8607
  969TIP3    H224399   1.994   2.672  11.819  0.0394  0.2677 -0.2719
  970TIP3   OH224400   6.384   4.044   3.800  0.4228  0.0097 -0.6360
  970TIP3    H124401   6.418   4.065   3.714  0.3956 -0.3931 -0.7462
  970TIP3    H224402   6.455   3.999   3.845  0.7138  0.9033 -0.1607
  971TIP3   OH224403   0.542   1.828   2.878 -0.3513  0.3904  0.0366
  971TIP3    H124404   0.502   1.750   2.839 -0.7244  0.4670  0.2709
  971TIP3    H224405   0.628   1.797   2.908  0.0160  0.3700 -0.9939
  972TIP3   OH224406   3.915   5.809  12.885  0.1804 -0.2225  0.0375
  972TIP3    H124407   3.834   5.831  12.839 -1.9470 -2.1288  2.5592
  972TIP3    H224408   3.936   5.887  12.936  0.4866  0.5968 -1.2990
  973TIP3   OH224409   4.856   5.900   0.266  0.7493 -0.2455  0.4023
  973TIP3    H124410   4.856   5.991   0.237  0.8892 -0.0907  0.8751
  973TIP3    H224411   4.763   5.879   0.280  0.3485 -1.2371 -2.8932
  974TIP3   OH224412   1.064   5.849   1.504  0.0010  0.1160 -0.1231
  974TIP3    H124413   1.016   5.876   1.582 -0.6411  0.4560 -0.6287
  974TIP3    H224414   1.041   5.914   1.438 -1.0952 -1.2668 -1.1797
  975TIP3   OH224415   1.386   2.500   4.552 -0.2517  0.1381  0.2784
  975TIP3    H124416   1.330   2.570   4.587 -0.7787 -0.0590 -0.1503
  975TIP3    H224417   1.470   2.543   4.537  0.2957  0.0137  2.6377
  976TIP3   OH224418   3.965   0.539   6.122 -0.0339  0.3466  0.3801
  976TIP3    H124419   3.990   0.621   6.166 -3.0736  0.6059  1.9793
  976TIP3    H224420   3.915   0.568   6.045 -1.0419  0.0719  0.9028
  977TIP3   OH224421   5.080   5.929  15.763  0.0953 -0.3119  0.8513
  977TIP3    H124422   5.126   5.893  15.838  0.2300  0.4724  1.1547
  977TIP3    H224423   5.095   5.866  15.693 -1.9801 -2.2800  2.0434
  978TIP3   OH224424   4.025   6.800   4.561  0.5417  0.2578  0.2114
  978TIP3    H124425   4.070   6.865   4.615  0.2994 -0.7653  1.7250
  978TIP3    H224426   4.011   6.843   4.477 -0.5411  2.5482  1.4701
  979TIP3   OH224427   3.309   4.251  11.180 -0.0012  0.0946  0.6417
  979TIP3    H124428   3.255   4.311  11.129  1.6810  1.2617  0.1318
  979TIP3    H224429   3.263   4.241  11.263 -1.1010  0.8436  0.1455
  980TIP3   OH224430   5.625   4.873  13.004 -0.3586 -0.6780  0.2754
  980TIP3    H124431   5.688   4.888  12.933 -0.0864  1.2759  0.8915
  980TIP3    H224432   5.671   4.816  13.066  0.3296 -0.3071  0.1045
  981TIP3   OH224433   1.687   5.752  14.118  0.5268 -0.3901 -0.1554
  981TIP3    H124434   1.649   5.803  14.189 -0.6611 -0.9543 -0.3559
  981TIP3    H224435   1.759   5.703  14.159  1.9310  1.6520 -0.0386
  982TIP3   OH224436   0.670   2.284   1.499 -0.3352 -0.1934 -0.5926
  982TIP3    H124437   0.636   2.244   1.580  0.4566  0.8223  0.2748
  982TIP3    H224438   0.594   2.289   1.441 -0.7634 -1.5993 -0.1937
  983TIP3   OH224439   4.900   4.822  11.431  0.0915 -0.3580  0.6024
  983TIP3    H124440   4.871   4.889  11.369 -0.3509  0.4153  1.6059
  983TIP3    H224441   4.977   4.783  11.390  1.1641  1.6685  0.5394
  984TIP3   OH224442   3.359   6.413  14.482 -0.3264 -0.2920  0.2288
  984TIP3    H124443   3.294   6.480  14.502  0.0120 -0.0380  0.4992
  984TIP3    H224444   3.320   6.361  14.412 -0.3097  0.6159 -0.4790
  985TIP3   OH224445   4.309   5.907  12.589  0.1881  0.4941  0.2631
  985TIP3    H124446   4.242   5.843  12.614  0.4969 -0.4457 -1.1572
  985TIP3    H224447   4.328   5.954  12.669 -0.4345 -0.8583  1.2516
  986TIP3   OH224448   6.366   6.090  14.281 -0.6855  0.3417  0.3272
  986TIP3    H124449   6.393   6.039  14.204 -0.3228  1.9315 -0.6683
  986TIP3    H224450   6.317   6.029  14.335 -1.3077 -0.7510 -1.3739
  987TIP3   OH224451   5.983   4.181   1.175  0.4011 -0.2240 -0.5501
  987TIP3    H124452   5.994   4.090   1.146  1.7211 -0.3239  0.1641
  987TIP3    H224453   6.004   4.178   1.268  1.4031  0.9716 -0.7157
  988TIP3   OH224454   6.341   5.767  16.852 -0.0801 -0.5875 -0.1381
  988TIP3    H124455   6.389   5.742  16.773  1.1391  0.6795  0.1615
  988TIP3    H224456   6.249   5.765  16.826  0.3188  0.2692 -1.7436
  989TIP3   OH224457   0.336   6.414   3.063  0.4403 -0.5408 -0.4307
  989TIP3    H124458   0.354   6.320   3.056  0.5238 -0.5098 -0.6385
  989TIP3    H224459   0.245   6.423   3.037 -0.4959 -0.9334  2.3605
  990TIP3   OH224460   0.170   2.302  13.327 -0.0471  0.4070  0.1344
  990TIP3    H124461   0.084   2.325  13.291 -1.0264  0.4600  2.3497
  990TIP3    H224462   0.217   2.261  13.254 -2.1797 -0.2326 -0.9459
  991TIP3   OH224463   5.438   2.824  12.680  0.2578 -0.3499  0.3175
  991TIP3    H124464   5.455   2.795  12.770 -1.2621  0.1020  0.7784
  991TIP3    H224465   5.348   2.857  12.682  0.8762  1.5440 -0.9032
  992TIP3   OH224466   3.006   6.511  11.794 -0.0575 -0.3136  0.2883
  992TIP3    H124467   2.945   6.583  11.778  0.4162  0.0585  0.1202
  992TIP3    H224468   2.967   6.462  11.865 -1.4466 -1.1102 -0.9657
  993TIP3   OH224469   5.054   1.779  12.929  0.0028 -0.0277  0.2673
  993TIP3    H124470   5.110   1.722  12.981 -0.4384 -1.8659 -1.1803
  993TIP3    H224471   5.071   1.753  12.838 -0.9459  1.4985 -0.3882
  994TIP3   OH224472   5.077   3.822   4.904  0.2367 -0.2699  0.0038
  994TIP3    H124473   5.094   3.857   4.817  1.0552  0.9252  0.6110
  994TIP3    H224474   5.024   3.889   4.948  0.0425 -0.7420  0.5036
  995TIP3   OH224475   1.708   2.429   4.524 -0.2401 -0.3392  0.0902
  995TIP3    H124476   1.678   2.504   4.575  0.0452 -0.4279  0.3875
  995TIP3    H224477   1.644   2.360   4.543  0.5376 -0.7528  1.2838
  996TIP3   OH224478   0.283   3.563   4.855  0.4237  0.0410  0.0826
  996TIP3    H124479   0.345   3.535   4.787 -0.9595 -0.2140 -1.1375
  996TIP3    H224480   0.251   3.648   4.824 -1.4334 -0.8118 -0.4752
  997TIP3   OH224481   1.847   1.039   4.708  0.4290 -0.1449  0.0275
  997TIP3    H124482   1.920   0.977   4.712  0.0094 -0.6837 -0.5114
  997TIP3    H224483   1.801   1.017   4.627  0.9406  1.6207 -0.8142
  998TIP3   OH224484   6.510   5.216  11.706  0.0414 -0.0123 -0.0207
  998TIP3    H124485   6.515   5.181  11.795 -0.7795  1.0628  0.4666
  998TIP3    H224486   6.450   5.157  11.661  1.3037 -1.2133 -0.2094
  999TIP3   OH224487   2.143   6.279   0.458 -0.3355  0.1771  0.0358
  999TIP3    H124488   2.061   6.283   0.508 -1.1844 -0.5231 -1.2428
  999TIP3    H224489   2.211   6.272   0.525 -1.2734  1.2120  1.1494
 1000TIP3   OH224490   0.005   1.943  16.009  0.2142  0.1872  0.8190
 1000TIP3    H124491  -0.028   1.972  15.924  2.2638 -2.1623 -0.9214
 1000TIP3    H224492   0.066   2.012  16.036  0.2435  0.5235 -0.0781
 1001TIP3   OH224493   5.291   5.564   4.358 -0.4080  0.0348  0.6243
 1001TIP3    H124494   5.197   5.581   4.371 -0.8656 -0.7095 -1.3960
 1001TIP3    H224495   5.316   5.621   4.286  0.0353 -1.6289 -0.5918
 1002TIP3   OH224496   2.979   2.895  12.500  0.0620  0.4520 -0.1420
 1002TIP3    H124497   3.020   2.889  12.587 -0.2386 -2.4888 -0.1020
 1002TIP3    H224498   3.049   2.925  12.443  0.6739  1.0032  0.8553
 1003TIP3   OH224499   5.721   4.576   4.952  0.6030  0.3214 -0.0110
 1003TIP3    H124500   5.805   4.568   4.908  0.7023 -0.4459  0.3002
 1003TIP3    H224501   5.715   4.668   4.978  2.0940  0.0543  1.4136
 1004TIP3   OH224502   1.123   5.323  10.218  0.1264 -0.1110  0.0746
 1004TIP3    H124503   1.168   5.382  10.278  2.1371 -0.7637 -0.7200
 1004TIP3    H224504   1.171   5.241  10.224 -2.4476 -1.6781  0.9617
 1005TIP3   OH224505   0.219   1.738   2.945  0.7512 -0.1837 -0.0579
 1005TIP3    H124506   0.130   1.715   2.917  0.4520  0.3423  0.4384
 1005TIP3    H224507   0.272   1.725   2.866  0.0722  0.4330 -0.6444
 1006TIP3   OH224508   3.750   5.539  13.514 -0.5742  0.0921 -0.1612
 1006TIP3    H124509   3.821   5.561  13.453  1.1272 -2.2421  0.8277
 1006TIP3    H224510   3.686   5.492  13.462 -0.4087  0.4329 -0.6736
 1007TIP3   OH224511   5.976   4.221   5.463  0.1737  0.4012 -0.1705
 1007TIP3    H124512   5.948   4.236   5.372 -0.7640 -2.0425 -0.3503
 1007TIP3    H224513   5.953   4.302   5.508 -1.3480  0.8778 -1.6803
 1008TIP3   OH224514   0.152   0.899   1.747 -0.2945  0.2024  0.3688
 1008TIP3    H124515   0.135   0.957   1.672  0.0104 -0.1662  0.0138
 1008TIP3    H224516   0.080   0.918   1.808 -0.7843  0.1978 -0.2000
 1009TIP3   OH224517   3.394   0.559  12.388 -0.4173 -0.0752  0.4142
 1009TIP3    H124518   3.341   0.508  12.326  1.6166 -0.1919 -1.3454
 1009TIP3    H224519   3.432   0.494  12.447 -0.2540 -0.2619  0.1043
 1010TIP3   OH224520   2.835   0.469  13.227  0.2219  0.3967  0.0293
 1010TIP3    H124521   2.878   0.552  13.244 -0.9779  0.8788  0.8078
 1010TIP3    H224522   2.869   0.409  13.293 -0.7093  0.9310  1.0130
 1011TIP3   OH224523   0.202   4.092   2.157  0.4183 -0.0620 -0.0111
 1011TIP3    H124524   0.172   4.069   2.245  0.6409 -1.7766 -0.3453
 1011TIP3    H224525   0.291   4.056   2.151  0.7085  0.7136 -0.6929
 1012TIP3   OH224526   1.222   5.583  12.037  0.7242  0.3736  0.2050
 1012TIP3    H124527   1.186   5.623  11.957 -0.1774 -1.2544 -0.2347
 1012TIP3    H224528   1.315   5.573  12.018  0.3128 -1.1771 -1.2009
 1013TIP3   OH224529   0.500   4.374   4.432  0.9577 -0.1718 -0.6680
 1013TIP3    H124530   0.465   4.463   4.438  0.8346 -0.3025  1.1101
 1013TIP3    H224531   0.553   4.374   4.352  0.2283  1.2276 -1.1813
 1014TIP3   OH224532   5.542   1.512  13.290 -0.0423 -0.3684  0.6528
 1014TIP3    H124533   5.515   1.601  13.314 -0.8138 -0.3346 -0.2863
 1014TIP3    H224534   5.483   1.487  13.219  0.4312 -1.4845  0.6290
 1015TIP3   OH224535   0.970   0.617   4.154  0.6295 -0.3074  0.5535
 1015TIP3    H124536   1.052   0.663   4.137  0.8178 -0.4747  0.9983
 1015TIP3    H224537   0.917   0.680   4.202  0.6420 -0.3349  0.6026
 1016TIP3   OH224538   0.876   6.815  16.328 -0.1821 -0.3188  0.1430
 1016TIP3    H124539   0.853   6.799  16.419 -0.5886 -4.0066 -0.4488
 1016TIP3    H224540   0.901   6.908  16.325 -0.9935  0.1615  3.7577
 1017TIP3   OH224541   0.025   1.230  14.840  0.7351 -0.3201 -0.4864
 1017TIP3    H124542   0.015   1.155  14.899  0.8758  0.3270  0.3782
 1017TIP3    H224543   0.119   1.237  14.826  0.6805 -0.6863 -1.0883
 1018TIP3   OH224544   5.537   3.171   2.493 -0.0357 -0.2760  0.2198
 1018TIP3    H124545   5.621   3.203   2.527  0.0788  0.6924 -0.9043
 1018TIP3    H224546   5.491   3.140   2.571  0.7536  0.5954  1.0814
 1019TIP3   OH224547   2.174   0.371   6.170 -0.1624  0.1114  0.4246
 1019TIP3    H124548   2.167   0.350   6.077 -0.1288 -1.2576  0.7057
 1019TIP3    H224549   2.095   0.422   6.189 -1.6952 -1.9970  0.2197
 1020TIP3   OH224550   4.477   2.970  11.717 -0.1509 -0.3634  0.9130
 1020TIP3    H124551   4.441   2.977  11.628  1.2506 -1.2771  0.2351
 1020TIP3    H224552   4.564   2.932  11.704  0.9461  1.4453  2.4999
 1021TIP3   OH224553   0.103   5.399   4.728  0.4092 -0.1556 -0.2138
 1021TIP3    H124554   0.081   5.443   4.810 -0.7060 -1.8673  0.4672
 1021TIP3    H224555   0.172   5.453   4.689  0.5468  1.0152  1.5540
 1022TIP3   OH224556   0.928   4.396  12.133 -0.5194 -0.3475  0.3632
 1022TIP3    H124557   0.833   4.396  12.121 -0.5032  1.3916  0.0200
 1022TIP3    H224558   0.951   4.488  12.145  1.0338 -0.8088  1.2534
 1023TIP3   OH224559   3.824   1.173  11.463 -0.6836  0.0667  0.0416
 1023TIP3    H124560   3.803   1.225  11.385 -0.7826 -1.8428 -1.2641
 1023TIP3    H224561   3.744   1.175  11.516 -0.6917  1.1829  0.0183
 1024TIP3   OH224562   6.157   3.527   2.188  0.0355  0.1008 -0.0384
 1024TIP3    H124563   6.136   3.447   2.236  0.5722 -0.7568 -1.1933
 1024TIP3    H224564   6.095   3.592   2.221 -2.3278 -1.5222 -1.1135
 1025TIP3   OH224565   5.321   0.843  14.546 -0.2137 -0.3618  0.0710
 1025TIP3    H124566   5.286   0.928  14.571  1.8188  0.9068 -1.1842
 1025TIP3    H224567   5.265   0.813  14.474  0.6450  1.1920 -1.2877
 1026TIP3   OH224568   5.852   5.645  13.560  0.1999  0.4495 -0.0713
 1026TIP3    H124569   5.920   5.585  13.531  1.4775  0.5722  2.4834
 1026TIP3    H224570   5.804   5.597  13.628 -1.4081  0.8839 -0.8395
 1027TIP3   OH224571   5.628   2.176   5.786 -0.1197 -0.4857 -0.2877
 1027TIP3    H124572   5.584   2.258   5.806  0.7575  0.3941 -1.7654
 1027TIP3    H224573   5.595   2.114   5.850 -1.0060  0.9574  0.6888
 1028TIP3   OH224574   1.355   0.355   2.729 -0.7283 -0.4206  0.1792
 1028TIP3    H124575   1.302   0.408   2.669  1.8093  2.9864  0.6235
 1028TIP3    H224576   1.299   0.340   2.805 -2.2191 -0.1749 -0.8330
 1029TIP3   OH224577   4.347   3.761  11.435 -0.3326 -0.5304 -0.1218
 1029TIP3    H124578   4.394   3.780  11.516 -1.0608  0.6598  0.0431
 1029TIP3    H224579   4.339   3.666  11.434  0.9469 -0.6659  0.4731
 1030TIP3   OH224580   4.696   6.704   0.693  0.0317 -0.5664  0.0008
 1030TIP3    H124581   4.732   6.790   0.715 -2.5997  0.5546  0.3106
 1030TIP3    H224582   4.764   6.663   0.639  1.5920  1.4757  0.2788
 1031TIP3   OH224583   3.291   1.873   5.485  0.1469  0.0269 -0.3243
 1031TIP3    H124584   3.352   1.851   5.555  0.2139 -1.4794 -0.8083
 1031TIP3    H224585   3.248   1.952   5.514  1.1297  0.1742  0.8018
 1032TIP3   OH224586   3.065   0.091  13.054 -0.8555  0.1019 -0.0401
 1032TIP3    H124587   3.035   0.105  13.144 -2.6245  0.8794 -0.6931
 1032TIP3    H224588   3.059  -0.004  13.041 -1.4563  0.0710  0.4051
 1033TIP3   OH224589   2.625   0.880   6.664  0.1906  0.2846  0.4566
 1033TIP3    H124590   2.569   0.858   6.589  1.1173 -0.2429 -0.0993
 1033TIP3    H224591   2.710   0.900   6.625  1.0447 -1.2490  1.4457
 1034TIP3   OH224592   1.079   3.968   2.144  0.3371  0.2279 -0.0862
 1034TIP3    H124593   1.091   4.012   2.228  0.1333 -1.6275  0.9663
 1034TIP3    H224594   1.120   4.027   2.080  1.2490  1.2905  1.4135
 1035TIP3   OH224595   1.879   1.040   5.882  0.1332  0.3384 -0.3447
 1035TIP3    H124596   1.819   1.115   5.881 -0.5241 -0.1324  0.8809
 1035TIP3    H224597   1.900   1.028   5.975  0.1848 -1.0203 -0.5077
 1036TIP3   OH224598   4.043   1.092  14.038 -0.0318  0.5839 -0.2120
 1036TIP3    H124599   4.134   1.119  14.049 -0.0855  0.9668 -0.7363
 1036TIP3    H224600   4.035   1.070  13.946 -0.4755  0.5587 -0.1692
 1037TIP3   OH224601   3.146   0.668  15.375  0.1653 -0.8583  0.0402
 1037TIP3    H124602   3.108   0.584  15.401  0.0353 -0.4616  1.1849
 1037TIP3    H224603   3.152   0.718  15.456  0.7222  0.0561 -0.5426
 1038TIP3   OH224604   0.380   2.084  15.898 -0.1682 -0.1169 -0.1900
 1038TIP3    H124605   0.424   2.053  15.978  0.2101 -0.5701 -0.5721
 1038TIP3    H224606   0.403   2.177  15.893 -0.4160 -0.0199  0.3738
 1039TIP3   OH224607   1.534   6.534   5.968 -0.2298  0.5256 -0.0110
 1039TIP3    H124608   1.570   6.505   6.051 -1.6412  0.0071  0.4418
 1039TIP3    H224609   1.528   6.455   5.914 -0.2336  0.6942 -0.2634
 1040TIP3   OH224610   6.444   2.476  14.401  0.1219 -0.1573  0.2985
 1040TIP3    H124611   6.520   2.466  14.343 -0.1736  2.0911 -0.5676
 1040TIP3    H224612   6.481   2.468  14.490  1.3109  0.3704 -0.1192
 1041TIP3   OH224613   5.841   2.346   6.457  0.2909 -0.0669  0.5872
 1041TIP3    H124614   5.890   2.380   6.383 -0.7597  0.9026  0.2948
 1041TIP3    H224615   5.777   2.287   6.418  0.6833 -0.6781  0.8712
 1042TIP3   OH224616   3.340   2.496   5.818  0.0846 -0.9769 -0.5588
 1042TIP3    H124617   3.282   2.443   5.763  1.4180 -1.6326 -1.3726
 1042TIP3    H224618   3.425   2.453   5.812  0.8622  0.4368 -0.0613
 1043TIP3   OH224619   2.500   4.015  16.027 -0.0794 -0.6316  0.5785
 1043TIP3    H124620   2.519   4.008  15.934 -1.3829 -1.9595  0.3576
 1043TIP3    H224621   2.577   3.978  16.071  0.9361  0.8421  0.1034
 1044TIP3   OH224622   1.647   3.049  11.793 -0.6548 -0.3243  0.0123
 1044TIP3    H124623   1.584   3.119  11.775  0.5289  0.3422 -1.8961
 1044TIP3    H224624   1.661   3.007  11.708  1.9418 -0.0001  0.2039
 1045TIP3   OH224625   3.860   1.933  12.559 -0.1734 -0.0651  0.3512
 1045TIP3    H124626   3.889   2.006  12.504  2.0555  0.1525  1.6734
 1045TIP3    H224627   3.799   1.884  12.504 -0.4161  1.8318 -1.1772
 1046TIP3   OH224628   0.022   6.387   3.799 -0.7057  0.1724  0.2547
 1046TIP3    H124629   0.008   6.336   3.879 -0.2656 -0.6207 -0.1635
 1046TIP3    H224630   0.105   6.355   3.764  0.0130  1.7761  0.4161
 1047TIP3   OH224631   4.370   1.976  14.452  0.1534 -0.3125  0.3510
 1047TIP3    H124632   4.357   2.040  14.382  0.1719  0.8195  1.3597
 1047TIP3    H224633   4.368   1.891  14.407  1.0209  0.4186 -1.1508
 1048TIP3   OH224634   0.929   4.680   2.637 -0.1058 -0.2100 -0.3666
 1048TIP3    H124635   0.909   4.600   2.685 -2.1052 -1.2929 -2.7755
 1048TIP3    H224636   0.925   4.655   2.545  2.7402  1.9209 -1.2160
 1049TIP3   OH224637   5.018   1.298  16.622  0.2089  0.6899 -0.1715
 1049TIP3    H124638   5.025   1.315  16.528  0.0946 -0.8889 -0.4892
 1049TIP3    H224639   5.072   1.221  16.637  0.2089  0.9127  1.0588
 1050TIP3   OH224640   1.336   3.206  11.186 -0.3416 -0.1314  0.0098
 1050TIP3    H124641   1.322   3.222  11.093  1.6791  0.1119 -0.2902
 1050TIP3    H224642   1.336   3.110  11.194  2.2584 -0.2589 -0.7725
 1051TIP3   OH224643   2.259   0.410  12.320 -0.0012  0.2921 -0.3873
 1051TIP3    H124644   2.194   0.340  12.320 -0.7955  0.9901  1.0587
 1051TIP3    H224645   2.254   0.448  12.408  1.5885  1.0879 -0.5922
 1052TIP3   OH224646   2.156   0.078  11.456 -0.2987  0.4141  0.0031
 1052TIP3    H124647   2.087   0.143  11.471 -0.8847  0.0879 -1.1595
 1052TIP3    H224648   2.130   0.003  11.509  0.8962  1.4166  2.1465
 1053TIP3   OH224649   4.228   6.228   4.477  0.8361  0.0131  0.1326
 1053TIP3    H124650   4.133   6.240   4.479  0.7993 -0.2658  0.1224
 1053TIP3    H224651   4.240   6.133   4.472  1.1350 -0.0137  1.1735
 1054TIP3   OH224652   3.553   4.639   4.851 -0.0246  0.0703 -0.2899
 1054TIP3    H124653   3.485   4.618   4.915  0.2910 -2.0953 -0.5748
 1054TIP3    H224654   3.564   4.558   4.801  0.9907  1.1622 -1.9186
 1055TIP3   OH224655   6.318   4.243  10.992  0.6072 -0.3770  0.0797
 1055TIP3    H124656   6.232   4.252  10.953  1.7035 -2.1620 -3.1638
 1055TIP3    H224657   6.348   4.333  11.005 -2.2937  0.3517  3.0759
 1056TIP3   OH224658   2.878   6.482   3.449 -0.5596 -0.0142  0.0578
 1056TIP3    H124659   2.848   6.446   3.533  1.6746 -1.8393  0.1855
 1056TIP3    H224660   2.847   6.419   3.384  1.1244 -0.8508  0.0040
 1057TIP3   OH224661   2.596   4.639  16.906 -0.4198  0.4760  0.0255
 1057TIP3    H124662   2.547   4.558  16.888  0.3176  0.0213  0.0424
 1057TIP3    H224663   2.549   4.707  16.857 -0.9324  0.0060 -0.1447
 1058TIP3   OH224664   1.477   2.002  16.312  0.0678  0.6400  0.6632
 1058TIP3    H124665   1.527   1.978  16.390  0.8187  0.1365  0.0415
 1058TIP3    H224666   1.386   2.003  16.342  0.2681 -0.3081  1.3797
 1059TIP3   OH224667   1.625   4.015  15.210  0.1145  0.4978 -0.3726
 1059TIP3    H124668   1.682   3.938  15.206 -0.3903  0.1542 -1.2366
 1059TIP3    H224669   1.676   4.080  15.257  1.4198  0.3588 -1.5467
 1060TIP3   OH224670   0.605   5.237  13.420  0.3405  0.2180 -0.3281
 1060TIP3    H124671   0.607   5.330  13.399  0.4383  0.3553  0.2918
 1060TIP3    H224672   0.691   5.204  13.392  0.0281  0.1510 -1.2536
 1061TIP3   OH224673   1.331   4.491   4.097 -0.2689  0.3484  0.8796
 1061TIP3    H124674   1.281   4.548   4.156 -1.3181 -0.4587  0.8067
 1061TIP3    H224675   1.365   4.422   4.154  0.8030  0.9024  0.9294
 1062TIP3   OH224676   0.031   6.564   1.806  0.1369 -0.1377  0.5139
 1062TIP3    H124677  -0.044   6.565   1.865 -0.0507 -2.3652  0.3657
 1062TIP3    H224678  -0.004   6.596   1.723 -0.5736 -0.8163  0.5427
 1063TIP3   OH224679   1.204   5.931  11.781 -0.9836  0.1054 -0.0371
 1063TIP3    H124680   1.232   5.886  11.861 -1.2113  0.5260  0.2836
 1063TIP3    H224681   1.202   6.023  11.805 -0.7470  0.2657 -0.6236
 1064TIP3   OH224682   2.282   3.695  16.907 -0.1989  0.2855  0.7257
 1064TIP3    H124683   2.215   3.764  16.904 -0.5054 -0.0284 -0.7114
 1064TIP3    H224684   2.236   3.618  16.940  0.0584  0.6538  1.9998
 1065TIP3   OH224685   0.690   4.194  10.682  0.0000  0.0146 -0.2160
 1065TIP3    H124686   0.756   4.194  10.612  2.2860  0.4635  1.7952
 1065TIP3    H224687   0.686   4.102  10.710 -0.9155 -0.1651 -0.9026
 1066TIP3   OH224688   2.954   3.331   0.413  0.1591 -0.0044  0.5946
 1066TIP3    H124689   2.913   3.388   0.348  0.1295 -0.5355  0.1391
 1066TIP3    H224690   3.013   3.275   0.362 -0.2924 -0.8192  0.9505
 1067TIP3   OH224691   3.367   3.567   2.178 -0.2686 -0.0500 -0.1890
 1067TIP3    H124692   3.406   3.645   2.218  0.9870 -1.3579  1.2365
 1067TIP3    H224693   3.403   3.566   2.089  2.1229 -0.5466  0.7045
 1068TIP3   OH224694   0.332   6.648  16.501 -0.3303  0.3218 -0.5790
 1068TIP3    H124695   0.301   6.685  16.584  0.7289  0.1850 -0.1033
 1068TIP3    H224696   0.297   6.559  16.501 -1.0454  0.5886 -0.6983
 1069TIP3   OH224697   3.143   5.740  16.727  0.0740 -0.5786  0.7650
 1069TIP3    H124698   3.169   5.791  16.803  0.2600  0.8309 -0.1889
 1069TIP3    H224699   3.104   5.804  16.667  1.5069 -1.2717 -1.0426
 1070TIP3   OH224700   0.983   6.008  15.871 -0.0950  0.1570 -0.1307
 1070TIP3    H124701   0.984   6.102  15.853  3.6179  0.3735  0.3958
 1070TIP3    H224702   0.998   6.002  15.965  1.0130 -0.9390 -0.3564
 1071TIP3   OH224703   1.082   2.588   3.045 -0.1567  0.7793 -0.2857
 1071TIP3    H124704   1.085   2.649   2.972  0.9585  0.3607 -0.6029
 1071TIP3    H224705   1.136   2.514   3.017  0.4753  0.7123  1.0518
 1072TIP3   OH224706   2.318   3.897   1.227 -0.0882  0.7855  0.1103
 1072TIP3    H124707   2.226   3.886   1.205 -0.4942  0.3002  1.8909
 1072TIP3    H224708   2.363   3.831   1.174 -0.6628  1.4482 -1.2432
 1073TIP3   OH224709   5.916   1.047  13.754  0.5297 -0.1842  0.1166
 1073TIP3    H124710   5.833   1.005  13.732 -0.6761  1.6948  0.8067
 1073TIP3    H224711   5.935   1.019  13.844 -0.6119  1.1621  0.8180
 1074TIP3   OH224712   4.918   2.537  15.521 -0.5747  0.5116  0.3660
 1074TIP3    H124713   4.889   2.472  15.584 -1.1891 -0.5017 -0.9274
 1074TIP3    H224714   4.915   2.493  15.436 -1.2752  2.2918 -0.6043
 1075TIP3   OH224715   3.329   3.194  11.872 -0.5517 -0.1319 -0.0205
 1075TIP3    H124716   3.313   3.283  11.903 -0.0396 -0.0077 -0.0892
 1075TIP3    H224717   3.406   3.202  11.815  0.6708 -0.9023  1.4545
 1076TIP3   OH224718   1.625   4.149   4.353 -0.0090 -0.1763 -0.2704
 1076TIP3    H124719   1.529   4.147   4.363 -0.0021  1.5276  0.4372
 1076TIP3    H224720   1.658   4.150   4.443  0.6442 -0.0564 -0.5097
 1077TIP3   OH224721   5.607   5.038   2.447 -0.2428  0.2592 -0.6719
 1077TIP3    H124722   5.514   5.021   2.464  0.1184  0.4200  1.8854
 1077TIP3    H224723   5.618   5.131   2.464  0.7554 -0.1719  1.4122
 1078TIP3   OH224724   5.588   2.076  15.543 -0.3652 -0.2822  0.0361
 1078TIP3    H124725   5.658   2.034  15.493  1.0305  1.1095  0.7495
 1078TIP3    H224726   5.630   2.150  15.587 -2.0307 -0.1113  1.4667
 1079TIP3   OH224727   0.480   4.177  13.735  0.1390 -0.1196  0.3002
 1079TIP3    H124728   0.523   4.204  13.655 -1.0115  0.9682  0.0065
 1079TIP3    H224729   0.465   4.083  13.725 -0.7276  0.1485 -1.1460
 1080TIP3   OH224730   6.790   5.746  12.239 -0.2875  0.4588  0.2722
 1080TIP3    H124731   6.770   5.783  12.325 -1.4946 -0.0789  0.2365
 1080TIP3    H224732   6.884   5.727  12.243 -0.3876  0.1201  1.6073
 1081TIP3   OH224733   0.155   6.459  15.405  0.1402  0.0930 -0.4712
 1081TIP3    H124734   0.107   6.539  15.383 -0.6615 -0.3937 -0.5186
 1081TIP3    H224735   0.203   6.437  15.325 -0.5197 -0.0851 -0.8245
 1082TIP3   OH224736   5.599   1.319   1.373 -0.1760 -0.2938  0.1568
 1082TIP3    H124737   5.645   1.324   1.457 -1.2231  1.6506  0.6832
 1082TIP3    H224738   5.525   1.379   1.383 -1.1470 -1.0924 -1.6825
 1083TIP3   OH224739   0.445   2.262  12.118  0.1857 -0.3236 -0.0239
 1083TIP3    H124740   0.395   2.184  12.095 -0.6202  0.4893 -1.1574
 1083TIP3    H224741   0.537   2.234  12.116 -0.1370 -2.5284  4.6241
 1084TIP3   OH224742   4.008   0.766   4.685  0.4303  0.2444  0.1379
 1084TIP3    H124743   4.042   0.681   4.659 -0.8965  0.1568 -1.4941
 1084TIP3    H224744   4.085   0.821   4.694  1.2123 -0.7347 -0.3524
 1085TIP3   OH224745   6.547   0.995  16.417  0.4661  0.9722  0.1824
 1085TIP3    H124746   6.602   0.986  16.339 -0.1717 -0.9327 -0.1183
 1085TIP3    H224747   6.604   0.969  16.489 -0.1117 -1.6131 -0.1960
 1086TIP3   OH224748   1.408   4.292  10.926  0.3771  0.0026 -0.2907
 1086TIP3    H124749   1.340   4.231  10.955  0.6073 -0.8523 -1.4828
 1086TIP3    H224750   1.359   4.365  10.887  0.1017  0.5626  1.0662
 1087TIP3   OH224751   6.638   0.913   3.886  0.2155  0.1443  0.3374
 1087TIP3    H124752   6.718   0.917   3.938 -2.1857  0.4305  4.5065
 1087TIP3    H224753   6.624   1.002   3.855  1.5351  0.0403 -0.6361
 1088TIP3   OH224754   2.796   0.017  13.938 -0.0438  0.3870  0.2614
 1088TIP3    H124755   2.869  -0.037  13.908 -0.0282  0.7560 -0.4012
 1088TIP3    H224756   2.722  -0.043  13.944  0.1901  0.1135  0.4332
 1089TIP3   OH224757   0.175   2.378  11.318 -0.8129 -0.3352  0.1506
 1089TIP3    H124758   0.104   2.381  11.382 -1.1173 -0.4621 -0.1779
 1089TIP3    H224759   0.133   2.402  11.235 -0.8729 -2.2112 -0.4114
 1090TIP3   OH224760   0.731   6.780  12.061  0.5269  0.3627 -0.5424
 1090TIP3    H124761   0.804   6.780  12.123  1.3114 -1.3049 -1.4090
 1090TIP3    H224762   0.753   6.847  11.998  0.6696  0.7494 -0.0874
 1091TIP3   OH224763   5.733   5.407   5.451  0.1685  0.1738 -0.0620
 1091TIP3    H124764   5.805   5.423   5.390  0.3680  0.2843  0.1956
 1091TIP3    H224765   5.774   5.355   5.521 -0.2672 -0.7283 -0.4665
 1092TIP3   OH224766   1.962   4.724   4.647  0.1926 -0.1081  0.2340
 1092TIP3    H124767   1.913   4.648   4.613  0.0291  0.9467 -2.0992
 1092TIP3    H224768   1.925   4.799   4.600  0.8446  1.3650  1.9512
 1093TIP3   OH224769   2.890   1.510  16.323  0.5049  0.4692 -0.5997
 1093TIP3    H124770   2.862   1.518  16.414  0.7673  1.1288 -0.5716
 1093TIP3    H224771   2.985   1.505  16.327  0.4939  0.0855 -0.8092
 1094TIP3   OH224772   2.982   5.163   1.194  0.2534  0.6686  0.1983
 1094TIP3    H124773   2.909   5.194   1.141 -1.0297 -0.9411  0.9431
 1094TIP3    H224774   2.973   5.210   1.277  0.7614  1.3034 -0.0944
 1095TIP3   OH224775   4.557   4.702   2.329  0.3019 -0.3950 -0.7000
 1095TIP3    H124776   4.464   4.724   2.332  0.8024  1.9033 -0.0356
 1095TIP3    H224777   4.581   4.715   2.237  0.2245  0.2826 -0.6291
 1096TIP3   OH224778   2.339   4.844   4.860  0.4351  0.1712  0.7982
 1096TIP3    H124779   2.286   4.920   4.837  0.4018  0.2335  1.0770
 1096TIP3    H224780   2.382   4.819   4.779 -0.4561 -0.2224  0.4336
 1097TIP3   OH224781   0.137   4.026  14.165  0.5486  0.2310 -0.1281
 1097TIP3    H124782   0.164   4.079  14.240 -0.3551  1.1660 -0.4463
 1097TIP3    H224783   0.117   3.940  14.202  0.4743  0.5729  0.6418
 1098TIP3   OH224784   1.823   3.154  14.182 -0.4611  0.2315 -0.0501
 1098TIP3    H124785   1.910   3.120  14.204 -0.4901 -0.3949 -0.8247
 1098TIP3    H224786   1.763   3.107  14.239 -0.4190 -0.3999 -0.5191
 1099TIP3   OH224787   2.218   5.806  13.177  0.7999 -0.1892 -0.2088
 1099TIP3    H124788   2.246   5.768  13.094 -0.7646  0.7475 -1.2048
 1099TIP3    H224789   2.260   5.751  13.244  3.1020 -0.2337 -1.5671
 1100TIP3   OH224790   1.800   0.903   2.669 -0.0664 -0.3610 -0.4496
 1100TIP3    H124791   1.861   0.911   2.742 -0.2566  1.1878 -0.4299
 1100TIP3    H224792   1.856   0.900   2.591  0.1230  3.8309 -0.6792
 1101TIP3   OH224793   0.318   0.986   0.004 -0.0007  0.1822  0.5614
 1101TIP3    H124794   0.337   0.987   0.098 -0.7352  1.4020  0.7244
 1101TIP3    H224795   0.402   1.004  -0.038 -0.0054  1.4985  1.0808
 1102TIP3   OH224796   2.149   6.545  12.128  0.2196  0.3669 -0.0419
 1102TIP3    H124797   2.230   6.504  12.098 -0.6512 -0.7130 -1.0125
 1102TIP3    H224798   2.092   6.544  12.052 -1.1316  0.0049  0.9491
 1103TIP3   OH224799   0.986   6.674  15.840  0.7000 -0.0764 -0.0471
 1103TIP3    H124800   0.964   6.738  15.908  1.0465  0.8983 -0.8372
 1103TIP3    H224801   0.929   6.599  15.859  1.8728 -0.4813  2.2531
 1104TIP3   OH224802   6.072   0.286   1.866  0.4963 -0.2104 -0.5230
 1104TIP3    H124803   6.121   0.263   1.787 -0.1146 -2.3112 -0.3542
 1104TIP3    H224804   5.981   0.267   1.845  0.3938 -1.4983  0.8525
 1105TIP3   OH224805   6.832   0.617   2.111  0.4471  0.5833 -0.0117
 1105TIP3    H124806   6.865   0.706   2.126 -0.3094  0.5799  1.9789
 1105TIP3    H224807   6.815   0.583   2.199 -0.1975 -1.1917 -0.7849
 1106TIP3   OH224808   4.107   2.230  14.848 -0.3056 -0.6177  0.8108
 1106TIP3    H124809   4.154   2.314  14.846  1.6895 -1.6791 -0.7869
 1106TIP3    H224810   4.166   2.171  14.895 -1.7757 -1.1438  2.1014
 1107TIP3   OH224811   2.529   0.717  11.008 -0.3035 -0.4940 -0.2726
 1107TIP3    H124812   2.579   0.636  11.016 -0.2765 -0.3316  1.3731
 1107TIP3    H224813   2.593   0.782  10.979 -0.5513 -1.2478 -2.7437
 1108TIP3   OH224814   5.717   4.086   5.583  0.6796  0.1463 -0.6242
 1108TIP3    H124815   5.659   4.119   5.653  2.3883  0.0152  0.9292
 1108TIP3    H224816   5.774   4.160   5.562  1.2562 -0.3152 -0.6925
 1109TIP3   OH224817   6.197   4.710  11.773  0.3574 -0.1649 -0.0311
 1109TIP3    H124818   6.120   4.685  11.723  1.0008 -0.3482 -0.9570
 1109TIP3    H224819   6.189   4.805  11.784 -0.3994 -0.2874  0.5951
 1110TIP3   OH224820   6.762   1.054  16.228  0.6083 -0.1034 -0.0882
 1110TIP3    H124821   6.754   1.137  16.182 -0.6463 -0.0273  0.2334
 1110TIP3    H224822   6.850   1.055  16.264  0.2785  1.5511  0.7495
 1111TIP3   OH224823   5.848   2.248   4.809 -0.4181 -0.0987 -0.2647
 1111TIP3    H124824   5.840   2.280   4.899 -0.2072 -0.1798 -0.2174
 1111TIP3    H224825   5.839   2.153   4.816  1.3896 -0.2861 -0.1041
 1112TIP3   OH224826   3.664   3.118   1.550 -0.0970  0.2191 -0.2111
 1112TIP3    H124827   3.589   3.150   1.600  0.6881  0.2291  1.0066
 1112TIP3    H224828   3.723   3.083   1.617  0.6279 -0.5128 -1.2172
 1113TIP3   OH224829   5.535   5.352   3.527  0.1318 -0.5899 -0.3311
 1113TIP3    H124830   5.569   5.363   3.438  0.6925 -2.3997 -0.3894
 1113TIP3    H224831   5.612   5.361   3.584 -0.2344  0.6249 -0.0092
 1114TIP3   OH224832   3.326   5.222   2.599  0.0557 -0.0470 -0.0810
 1114TIP3    H124833   3.252   5.194   2.652 -1.2651  2.2214 -0.6037
 1114TIP3    H224834   3.403   5.198   2.651 -1.0569 -1.1613  1.1355
 1115TIP3   OH224835   0.884   4.076   1.317  0.6601 -0.0160 -0.0166
 1115TIP3    H124836   0.977   4.092   1.299  0.0104  1.9945 -2.0280
 1115TIP3    H224837   0.852   4.029   1.240 -0.2036  0.1712  0.2155
 1116TIP3   OH224838   1.778   4.658  14.213  0.1966 -0.1331  0.3882
 1116TIP3    H124839   1.697   4.643  14.164  0.5016 -0.7482  0.0632
 1116TIP3    H224840   1.749   4.675  14.303 -0.2824 -0.6310  0.3326
 1117TIP3   OH224841   3.055   3.330  15.337  0.1729  0.2099  0.4765
 1117TIP3    H124842   3.023   3.383  15.410  2.1035  0.6730  1.0545
 1117TIP3    H224843   3.121   3.273  15.377  1.5027  0.6980 -0.9113
 1118TIP3   OH224844   1.220   0.097  11.076 -0.3148  0.5173  0.3015
 1118TIP3    H124845   1.229   0.012  11.034  2.4113  0.5069  0.6823
 1118TIP3    H224846   1.310   0.123  11.097 -1.0293  3.4858  0.2272
 1119TIP3   OH224847   4.784   4.666  16.385 -0.2299 -0.0247 -0.5139
 1119TIP3    H124848   4.763   4.691  16.475  0.8425 -0.8876  0.0028
 1119TIP3    H224849   4.802   4.749  16.341  0.7790  0.3257  0.4922
 1120TIP3   OH224850   4.531   5.972  13.499  0.6931 -0.7101 -0.3684
 1120TIP3    H124851   4.597   6.022  13.451 -0.0401 -0.4452 -1.1180
 1120TIP3    H224852   4.528   6.012  13.586 -0.2316  0.8951 -1.0952
 1121TIP3   OH224853   3.352   2.706   2.152  0.5050  0.0083 -0.0799
 1121TIP3    H124854   3.359   2.627   2.205  0.9767 -0.8784 -1.3896
 1121TIP3    H224855   3.425   2.699   2.090 -0.0269  0.9848 -0.8508
 1122TIP3   OH224856   2.713   4.407   1.525 -0.2168  0.5822  0.2939
 1122TIP3    H124857   2.712   4.346   1.451 -1.4934  0.6703  0.2240
 1122TIP3    H224858   2.804   4.437   1.530 -0.0575  0.3825 -1.0789
 1123TIP3   OH224859   2.898   2.613  15.296 -0.6964 -0.3657  0.0185
 1123TIP3    H124860   2.948   2.612  15.215 -0.7692 -2.4859 -0.0412
 1123TIP3    H224861   2.955   2.656  15.359 -0.7311  1.5387 -1.1584
 1124TIP3   OH224862   3.011   0.474  11.701  0.5740 -0.2331  0.2609
 1124TIP3    H124863   3.081   0.418  11.667  0.0112 -0.9470  0.2306
 1124TIP3    H224864   3.005   0.450  11.794 -1.3714 -2.1677 -0.2615
 1125TIP3   OH224865   4.986   1.488   0.844  0.0925 -0.1419  0.1441
 1125TIP3    H124866   5.081   1.480   0.832  0.0913  1.3130 -1.1031
 1125TIP3    H224867   4.966   1.577   0.816 -1.7939 -0.7279 -0.5209
 1126TIP3   OH224868   5.781   5.622  12.494  0.3267 -0.1711 -0.1743
 1126TIP3    H124869   5.872   5.623  12.464  0.1493 -3.1721 -1.1570
 1126TIP3    H224870   5.758   5.530  12.497 -2.2435  0.4251  1.5905
 1127TIP3   OH224871   1.250   6.709  14.682 -0.0488 -0.2410 -0.4082
 1127TIP3    H124872   1.249   6.740  14.592 -0.5284  1.8828  0.2615
 1127TIP3    H224873   1.168   6.740  14.720  0.2479 -0.8689  0.8376
 1128TIP3   OH224874   1.376   2.097   0.641 -0.1929 -0.1338 -0.9009
 1128TIP3    H124875   1.452   2.039   0.642  1.0263  1.3200 -2.5781
 1128TIP3    H224876   1.319   2.063   0.710  3.6205  0.8865  3.2772
 1129TIP3   OH224877   2.828   5.570  12.130  0.4796  0.0065  0.5378
 1129TIP3    H124878   2.773   5.576  12.209  1.6047 -0.8220  1.4258
 1129TIP3    H224879   2.833   5.660  12.098 -0.5505  0.2553  1.0259
 1130TIP3   OH224880   5.208   6.258   2.674  0.0329  0.2589 -0.1275
 1130TIP3    H124881   5.136   6.305   2.717 -0.0782 -0.9023  1.0209
 1130TIP3    H224882   5.243   6.200   2.742  1.2864 -0.0682 -1.0088
 1131TIP3   OH224883   2.928   0.517  17.125  0.0812 -0.1753  0.2846
 1131TIP3    H124884   2.874   0.488  17.051  0.9911  0.1556 -0.5355
 1131TIP3    H224885   2.900   0.608  17.140 -1.3249 -0.7752  1.5082
 1132TIP3   OH224886   6.674   6.552  15.982 -0.7568 -0.1320  0.5241
 1132TIP3    H124887   6.581   6.541  15.961 -1.2562 -1.0710  2.9000
 1132TIP3    H224888   6.718   6.479  15.938 -0.8936  1.0857 -1.7401
 1133TIP3   OH224889   4.781   2.438   0.028  0.2189 -0.1740 -0.5573
 1133TIP3    H124890   4.838   2.375   0.072 -1.3390 -1.3209 -0.1327
 1133TIP3    H224891   4.771   2.403  -0.061  1.1219  0.6884 -1.0322
 1134TIP3   OH224892   2.642   3.059  13.860 -0.5512 -0.4269 -0.4798
 1134TIP3    H124893   2.728   3.080  13.896 -0.7454 -0.0204 -0.2386
 1134TIP3    H224894   2.654   3.059  13.765 -0.7524  1.8946 -0.5743
 1135TIP3   OH224895   4.532   5.385   5.143  0.7024 -0.2166 -0.2588
 1135TIP3    H124896   4.580   5.352   5.067  1.5823 -0.6771  0.4880
 1135TIP3    H224897   4.440   5.378   5.117  0.9194 -1.7334 -0.7386
 1136TIP3   OH224898   6.777   5.594   1.214  0.8866 -0.2462  0.1942
 1136TIP3    H124899   6.863   5.621   1.247  1.8988 -1.3463 -1.4157
 1136TIP3    H224900   6.792   5.572   1.123 -1.3024  0.2964 -0.3573
 1137TIP3   OH224901   2.853   4.804  13.264 -0.4256 -0.7038 -0.2266
 1137TIP3    H124902   2.904   4.781  13.187  0.6971 -1.0803  0.6104
 1137TIP3    H224903   2.808   4.723  13.288 -0.3136 -0.7417 -0.1441
 1138TIP3   OH224904   4.079   3.389   0.119 -0.2064  0.8144  0.0981
 1138TIP3    H124905   4.158   3.430   0.154  0.1031 -0.9755  1.6569
 1138TIP3    H224906   4.017   3.389   0.192 -0.8684  0.2398 -0.4431
 1139TIP3   OH224907   6.532   1.249   5.616 -0.1406 -0.4888  0.5167
 1139TIP3    H124908   6.603   1.224   5.556 -1.2968 -0.2923 -0.9954
 1139TIP3    H224909   6.513   1.169   5.665  0.6000 -0.7507  0.4046
 1140TIP3   OH224910   3.075   2.132   4.216  0.4506 -0.5501  0.1114
 1140TIP3    H124911   3.031   2.193   4.156 -0.2394 -2.5817 -1.5823
 1140TIP3    H224912   3.167   2.158   4.212  0.1498  0.5237 -0.3812
 1141TIP3   OH224913   4.178   4.641   1.584  0.1107 -0.1633  0.5469
 1141TIP3    H124914   4.205   4.565   1.636  1.0885 -0.4856 -0.4073
 1141TIP3    H224915   4.126   4.603   1.512  0.4952  0.0788  0.1398
 1142TIP3   OH224916   2.254   1.671   1.889 -0.5760  0.0930  0.9509
 1142TIP3    H124917   2.316   1.711   1.950 -1.6315 -1.6477  3.3076
 1142TIP3    H224918   2.309   1.625   1.825  0.6169 -1.0992  2.7649
 1143TIP3   OH224919   0.084   2.228  11.712  0.4806 -0.1456 -0.2626
 1143TIP3    H124920   0.008   2.176  11.739  0.9108 -0.9011 -0.4771
 1143TIP3    H224921   0.090   2.297  11.778 -2.1718  1.7843 -1.8604
 1144TIP3   OH224922   1.219   3.760   4.497 -0.1731 -0.3018  0.4616
 1144TIP3    H124923   1.158   3.694   4.528 -1.1006  0.4658  0.3325
 1144TIP3    H224924   1.220   3.826   4.567  1.5912 -0.9518  1.0959
 1145TIP3   OH224925   1.220   3.503   4.383  0.2915  0.0413 -0.2309
 1145TIP3    H124926   1.240   3.587   4.423  1.5364 -1.4687  2.5877
 1145TIP3    H224927   1.262   3.507   4.297  3.9408  0.8809  1.4001
 1146TIP3   OH224928   1.203   3.026  16.057  0.2713  0.6331  0.0806
 1146TIP3    H124929   1.209   2.932  16.040 -0.0093  0.8056 -1.0825
 1146TIP3    H224930   1.163   3.062  15.978  0.3290  1.7287  0.5298
 1147TIP3   OH224931   3.826   6.088  14.637  0.3631 -0.4515  0.2351
 1147TIP3    H124932   3.840   5.993  14.633 -1.1430 -0.6692 -1.3738
 1147TIP3    H224933   3.752   6.098  14.697 -2.6441 -0.8520 -3.0794
 1148TIP3   OH224934   3.037   5.556  16.349  0.7004  0.1271 -0.0157
 1148TIP3    H124935   3.028   5.527  16.440 -1.4695  2.2607  0.5320
 1148TIP3    H224936   2.993   5.487  16.298 -0.4188  0.2053  0.8154
 1149TIP3   OH224937   6.121   3.171   1.980 -0.1822 -0.3779  0.4841
 1149TIP3    H124938   6.216   3.159   1.973 -0.3919 -2.3050  0.3402
 1149TIP3    H224939   6.094   3.199   1.893  0.1680 -0.6165  0.2961
 1150TIP3   OH224940   3.968   0.811   2.433 -0.5865  0.5407  0.0910
 1150TIP3    H124941   3.920   0.729   2.439  0.6297 -0.2396 -0.3281
 1150TIP3    H224942   3.934   0.865   2.504 -2.1972  0.1169 -0.3223
 1151TIP3   OH224943   4.417   4.054  15.901 -0.3550  0.4114 -0.7806
 1151TIP3    H124944   4.502   4.011  15.893 -0.5054 -0.1164  0.2255
 1151TIP3    H224945   4.356   3.982  15.916 -0.7211  0.9211  0.2265
 1152TIP3   OH224946   5.017   5.248  12.945  0.0510  0.3209  0.1592
 1152TIP3    H124947   5.094   5.261  12.889  0.9807 -0.7823  1.1375
 1152TIP3    H224948   4.972   5.172  12.908 -0.0968  0.4355  0.1009
 1153TIP3   OH224949   4.642   6.617  11.830  0.1402 -0.1406 -0.0639
 1153TIP3    H124950   4.565   6.625  11.885  0.2664 -1.5106  0.3563
 1153TIP3    H224951   4.642   6.696  11.775  0.8421  2.0787  2.8789
 1154TIP3   OH224952   4.024   5.830  14.111 -0.0829 -0.6036 -0.1222
 1154TIP3    H124953   4.118   5.848  14.114 -0.2195  0.0011  1.3356
 1154TIP3    H224954   4.018   5.736  14.130  0.1860 -0.3995  1.1030
 1155TIP3   OH224955   2.214   0.961  15.639  0.3516  0.4091 -0.3257
 1155TIP3    H124956   2.141   0.942  15.698  1.0007 -2.9250 -0.4446
 1155TIP3    H224957   2.285   0.987  15.697  0.3218 -0.6438  0.2071
 1156TIP3   OH224958   4.840   6.680  14.332  0.1872  0.0230 -0.1733
 1156TIP3    H124959   4.799   6.696  14.248 -0.5376  1.6149  0.4571
 1156TIP3    H224960   4.772   6.698  14.396  0.8893 -0.6237  0.7831
 1157TIP3   OH224961   2.062   2.079  13.900  0.4146 -0.2567 -0.0879
 1157TIP3    H124962   2.022   2.166  13.895  1.6238  0.2910 -0.4118
 1157TIP3    H224963   2.106   2.068  13.816  0.1740 -1.2439 -0.0978
 1158TIP3   OH224964   5.616   4.822   5.473  0.0125 -0.0443 -0.5090
 1158TIP3    H124965   5.668   4.760   5.423 -0.4338  0.1384 -1.2203
 1158TIP3    H224966   5.614   4.901   5.418 -1.6552 -0.3050 -0.8708
 1159TIP3   OH224967   0.535   4.131  13.264 -0.3835 -0.1091  0.5992
 1159TIP3    H124968   0.627   4.158  13.260 -0.8060  1.3290  0.0370
 1159TIP3    H224969   0.526   4.067  13.193  0.1567 -0.2126  0.6155
 1160TIP3   OH224970   2.384   5.272  13.358  0.1152 -0.0730 -0.4346
 1160TIP3    H124971   2.450   5.258  13.290  0.4543  1.5402 -0.4758
 1160TIP3    H224972   2.328   5.341  13.323 -0.7354 -0.4076  0.2249
 1161TIP3   OH224973   1.304   4.502   2.636  0.0974 -0.6005 -0.2005
 1161TIP3    H124974   1.263   4.416   2.649 -2.8773  0.7887  0.5897
 1161TIP3    H224975   1.282   4.526   2.546  0.1861 -0.3294 -0.1513
 1162TIP3   OH224976   2.557   4.833  14.548 -0.2425  0.0855  0.3059
 1162TIP3    H124977   2.635   4.823  14.493 -1.3919 -2.7278 -0.9768
 1162TIP3    H224978   2.505   4.900  14.504  0.1659 -0.0462 -0.3893
 1163TIP3   OH224979   5.904   2.677  17.121  0.1165 -0.0619  0.0544
 1163TIP3    H124980   5.965   2.749  17.103  1.1449 -0.9515 -0.0732
 1163TIP3    H224981   5.832   2.719  17.168  1.0059  0.9429  0.5799
 1164TIP3   OH224982   3.156   1.182  12.847  0.1401  0.5993 -0.1029
 1164TIP3    H124983   3.065   1.196  12.874  0.3519  1.3065  0.2463
 1164TIP3    H224984   3.162   1.224  12.761 -0.6254 -1.9351 -1.5034
 1165TIP3   OH224985   5.122   5.793   0.156 -0.1536 -0.8776  0.0559
 1165TIP3    H124986   5.129   5.857   0.227  0.1203 -1.7622  0.8441
 1165TIP3    H224987   5.200   5.739   0.165 -1.3032 -2.5059  0.6016
 1166TIP3   OH224988   3.962   1.771   5.954  0.4610  0.6302  0.6296
 1166TIP3    H124989   4.048   1.796   5.986 -0.0012  1.3825  1.3285
 1166TIP3    H224990   3.903   1.788   6.028 -0.0214 -1.7691  0.8858
 1167TIP3   OH224991   6.352   2.321  16.600 -0.0860 -0.5873 -0.6171
 1167TIP3    H124992   6.391   2.233  16.603  0.0737 -0.6074  4.0749
 1167TIP3    H224993   6.258   2.304  16.586 -0.0103 -1.4797 -0.1299
 1168TIP3   OH224994   3.453   4.458   3.381  0.3577 -0.0611 -0.2453
 1168TIP3    H124995   3.437   4.411   3.299 -0.4563 -0.7722  0.2957
 1168TIP3    H224996   3.368   4.460   3.425  0.6734  0.7495  0.3621
 1169TIP3   OH224997   1.417   2.567   0.019 -0.2736 -0.1067  0.0979
 1169TIP3    H124998   1.462   2.627  -0.041  1.6063 -0.3916  1.1500
 1169TIP3    H224999   1.375   2.503  -0.038  2.1794 -0.8753 -0.9616
 1170TIP3   OH225000   0.150   2.305   5.308  0.4201  0.1983  0.2532
 1170TIP3    H125001   0.223   2.359   5.339  0.2857  0.4856  0.0833
 1170TIP3    H225002   0.166   2.218   5.345  0.0368  0.6247  1.4922
 1171TIP3   OH225003   1.972   6.497  10.579 -0.0489  0.1402  0.3630
 1171TIP3    H125004   1.884   6.460  10.572 -0.5277  1.4769 -1.1664
 1171TIP3    H225005   1.960   6.576  10.632  0.2002  0.4101  0.0182
 1172TIP3   OH225006   4.583   1.385  15.393 -0.4600  0.2712  0.3316
 1172TIP3    H125007   4.512   1.323  15.378  0.9615 -1.8426  1.8409
 1172TIP3    H225008   4.627   1.353  15.472  1.1579  2.4877  0.4366
 1173TIP3   OH225009   2.732   3.468   1.212  0.0201  0.2299 -0.1602
 1173TIP3    H125010   2.641   3.468   1.181 -0.2310 -1.9597  0.4269
 1173TIP3    H225011   2.784   3.466   1.131 -0.5089 -0.3888 -0.4994
 1174TIP3   OH225012   3.154   6.366  12.563  0.5602 -0.4075  0.1220
 1174TIP3    H125013   3.140   6.423  12.487  0.0832  0.8065  1.0986
 1174TIP3    H225014   3.249   6.370  12.579  0.6178 -0.4223 -0.2062
 1175TIP3   OH225015   6.117   4.653  15.391  0.2587  0.4597 -0.2764
 1175TIP3    H125016   6.133   4.658  15.485  0.5394 -0.7913 -0.2382
 1175TIP3    H225017   6.121   4.744  15.361 -2.5919  1.2333  1.3164
 1176TIP3   OH225018   4.028   6.294   3.902 -0.4170 -0.0352 -0.0418
 1176TIP3    H125019   4.120   6.278   3.880 -0.4361 -1.5613  0.8769
 1176TIP3    H225020   3.986   6.209   3.894 -1.4145  0.3243  1.0939
 1177TIP3   OH225021   2.397   5.318  17.076 -0.1393  0.3220 -0.1222
 1177TIP3    H125022   2.322   5.265  17.051  1.0190 -0.7397 -1.5035
 1177TIP3    H225023   2.428   5.280  17.159 -1.0231  0.6840  0.3833
 1178TIP3   OH225024   4.607   2.644   3.376  0.5655 -0.1154 -0.4761
 1178TIP3    H125025   4.587   2.615   3.287 -1.1586 -0.3044 -0.0611
 1178TIP3    H225026   4.531   2.617   3.427  1.1939  0.6743  0.9161
 1179TIP3   OH225027   2.606   2.848  12.750 -0.0420  0.3041  0.0776
 1179TIP3    H125028   2.670   2.784  12.784 -1.1020 -0.4015  0.8088
 1179TIP3    H225029   2.660   2.917  12.712  1.1789 -1.6857 -2.0920
 1180TIP3   OH225030   4.652   3.933  12.946 -0.3537 -0.6802 -0.3453
 1180TIP3    H125031   4.745   3.921  12.964 -0.5457 -0.7316  0.6532
 1180TIP3    H225032   4.610   3.858  12.987 -0.9581  0.0402  0.3853
 1181TIP3   OH225033   4.331   4.280  16.028 -1.1177 -0.2845  0.0491
 1181TIP3    H125034   4.358   4.202  15.979  0.0712 -0.3753  0.7928
 1181TIP3    H225035   4.323   4.250  16.118  1.5317  0.8309  0.7798
 1182TIP3   OH225036   5.515   5.194   0.818  0.1255  0.2643 -0.2476
 1182TIP3    H125037   5.572   5.119   0.803  0.0771  0.5757 -2.2205
 1182TIP3    H225038   5.538   5.224   0.906  3.3267  0.6359 -1.0720
 1183TIP3   OH225039   6.671   3.646   1.573 -0.6425 -0.0248  0.1555
 1183TIP3    H125040   6.735   3.713   1.550  1.7872 -2.0856  0.4186
 1183TIP3    H225041   6.633   3.619   1.489  1.4257 -1.1256 -0.4978
 1184TIP3   OH225042   3.028   4.211  11.728 -0.0890  0.4914  0.3921
 1184TIP3    H125043   3.039   4.116  11.730  0.1090  0.5156  0.6322
 1184TIP3    H225044   3.064   4.240  11.812  0.6176  0.8608 -0.0369
 1185TIP3   OH225045   0.644   1.096  11.636  0.3263 -0.1721 -0.0098
 1185TIP3    H125046   0.687   1.121  11.554  1.8333 -4.7430 -0.9131
 1185TIP3    H225047   0.711   1.104  11.703  1.1746 -2.4837 -0.5027
 1186TIP3   OH225048   5.256   1.171  11.379  0.3674  0.2820 -0.1791
 1186TIP3    H125049   5.308   1.237  11.332  0.2843  0.7040  0.3131
 1186TIP3    H225050   5.205   1.128  11.311  0.7813  0.3997 -0.5690
 1187TIP3   OH225051   4.470   1.537   4.082 -0.0173  0.2452 -0.0575
 1187TIP3    H125052   4.386   1.508   4.046  0.7669 -1.4831 -0.5856
 1187TIP3    H225053   4.528   1.462   4.072  2.4702  2.2552 -2.4031
 1188TIP3   OH225054   1.921   0.266   3.630  0.2046  0.2057 -0.1318
 1188TIP3    H125055   1.992   0.291   3.690 -0.1846  1.3846 -0.1370
 1188TIP3    H225056   1.927   0.171   3.624  2.1222  0.3095 -0.5364
 1189TIP3   OH225057   4.728   3.258  13.907 -0.0433 -0.3292 -0.0358
 1189TIP3    H125058   4.750   3.304  13.988  0.8107  0.2875 -0.6042
 1189TIP3    H225059   4.779   3.177  13.910  0.1649 -0.1983 -0.0641
 1190TIP3   OH225060   4.242   6.502   6.304  0.0755 -0.2792  0.2544
 1190TIP3    H125061   4.317   6.547   6.264  0.5649 -0.8180  0.5538
 1190TIP3    H225062   4.188   6.573   6.341 -1.3924  0.4742 -2.9137
 1191TIP3   OH225063   3.530   3.017  12.874  0.1454 -0.0912  0.0940
 1191TIP3    H125064   3.516   3.112  12.871 -1.5138 -0.2915  0.2627
 1191TIP3    H225065   3.479   2.988  12.950 -0.9695 -1.3375 -1.0779
 1192TIP3   OH225066   0.287   3.954   3.429 -0.3644  0.4233 -0.6203
 1192TIP3    H125067   0.258   4.044   3.420  0.6197  0.7291 -0.7508
 1192TIP3    H225068   0.363   3.946   3.372  0.3854 -0.1105  0.4074
 1193TIP3   OH225069   3.500   3.162  15.925  0.2894  0.6484 -0.0620
 1193TIP3    H125070   3.550   3.142  15.846  0.9249  2.2041 -0.0845
 1193TIP3    H225071   3.431   3.096  15.927  1.4775 -0.6771 -0.7990
 1194TIP3   OH225072   4.706   4.998  15.118  0.0254 -0.3122  0.4757
 1194TIP3    H125073   4.763   5.015  15.043 -0.0082 -1.0238  0.2877
 1194TIP3    H225074   4.636   5.062  15.110  2.2499  2.6545  2.3225
 1195TIP3   OH225075   2.245   4.465  14.950  0.8418 -0.0050 -0.3259
 1195TIP3    H125076   2.262   4.499  15.038  0.9591  0.1932 -0.4228
 1195TIP3    H225077   2.168   4.513  14.920  1.1461  0.3572 -0.5546
 1196TIP3   OH225078   2.275   2.360  13.687  0.2460  0.5015  0.4501
 1196TIP3    H125079   2.223   2.280  13.687  1.8667 -0.6317 -0.3473
 1196TIP3    H225080   2.288   2.379  13.594 -0.7983  2.2068  0.6100
 1197TIP3   OH225081   4.278   5.656   0.778  0.6462 -0.1621  0.5487
 1197TIP3    H125082   4.277   5.587   0.712 -1.5134  0.5449 -0.2581
 1197TIP3    H225083   4.362   5.700   0.767  0.2663  0.0633 -1.9227
 1198TIP3   OH225084   4.077   1.284  11.140 -0.7875 -0.0157  0.2224
 1198TIP3    H125085   4.074   1.291  11.045 -0.7752  1.5069  0.3044
 1198TIP3    H225086   3.989   1.308  11.169 -1.8017 -3.5223  0.5240
 1199TIP3   OH225087   5.148   3.358   3.689  0.2380 -0.5436  0.0599
 1199TIP3    H125088   5.201   3.431   3.720  1.1862 -1.6690  1.2053
 1199TIP3    H225089   5.193   3.280   3.722 -1.3944 -1.6029 -0.0829
 1200TIP3   OH225090   3.331   2.164   0.712  0.2809  0.1263  0.0462
 1200TIP3    H125091   3.314   2.258   0.720  0.5578  0.1021  1.0342
 1200TIP3    H225092   3.280   2.137   0.636  0.7198  1.2006 -0.6593
 1201TIP3   OH225093   1.772   3.642  13.753 -0.0906 -0.3195 -0.0778
 1201TIP3    H125094   1.727   3.557  13.757 -0.1752 -0.4819 -2.5790
 1201TIP3    H225095   1.806   3.646  13.664 -2.6390  3.5291 -1.1056
 1202TIP3   OH225096   6.533   5.847   5.036 -0.3185 -0.1671  0.2631
 1202TIP3    H125097   6.446   5.831   5.073 -0.8650  0.7242 -0.5865
 1202TIP3    H225098   6.526   5.933   4.995  1.2494  0.3214  0.9649
 1203TIP3   OH225099   1.429   2.637  16.554 -0.0904 -0.1151  0.2868
 1203TIP3    H125100   1.360   2.603  16.496 -1.6812  1.0158  1.4274
 1203TIP3    H225101   1.385   2.649  16.639  1.0412  2.3134  0.6078
 1204TIP3   OH225102   0.128   3.017  12.448 -0.2098 -0.5717  0.8766
 1204TIP3    H125103   0.080   2.935  12.460  0.5053 -1.3410 -1.1033
 1204TIP3    H225104   0.189   2.999  12.376 -2.6757  2.7111 -2.4510
 1205TIP3   OH225105   3.586   3.454   0.944 -1.2662  0.5520  0.2891
 1205TIP3    H125106   3.529   3.438   1.019 -1.2426 -0.9253  0.0085
 1205TIP3    H225107   3.668   3.411   0.966 -0.5020  1.9740  0.3344
 1206TIP3   OH225108   1.401   2.649   2.518  0.8617 -0.2333 -0.4841
 1206TIP3    H125109   1.317   2.686   2.491  0.4915 -0.4045  0.4142
 1206TIP3    H225110   1.412   2.678   2.608  2.2584  0.6429 -0.9146
 1207TIP3   OH225111   5.035   1.434  12.714  0.1325 -0.2203 -0.4108
 1207TIP3    H125112   5.103   1.386  12.763  0.6652  0.9722  0.0722
 1207TIP3    H225113   5.059   1.526  12.725 -0.5622  0.1422 -1.7484
 1208TIP3   OH225114   6.821   1.752   4.364 -0.3289  0.4768  0.0247
 1208TIP3    H125115   6.771   1.745   4.446  0.7927 -1.1037  0.6163
 1208TIP3    H225116   6.901   1.798   4.389 -0.2565  0.5331 -0.3102
 1209TIP3   OH225117   5.201   1.897  12.424 -0.0153  0.3859  0.3190
 1209TIP3    H125118   5.149   1.919  12.346 -0.1046 -0.9038 -0.0083
 1209TIP3    H225119   5.248   1.817  12.400  0.6206  0.4475  1.2998
 1210TIP3   OH225120   6.186   3.983  14.088 -0.0760  0.1587  0.2999
 1210TIP3    H125121   6.280   3.975  14.071 -0.0049 -0.9871  1.1183
 1210TIP3    H225122   6.157   4.051  14.028  1.3992  1.0124  0.4894
 1211TIP3   OH225123   3.932   4.269  10.713 -0.5058 -0.1234 -0.2408
 1211TIP3    H125124   4.013   4.263  10.765 -0.3184 -1.9360 -0.6612
 1211TIP3    H225125   3.961   4.267  10.622 -0.9624  0.7277 -0.4158
 1212TIP3   OH225126   2.315   2.335   5.644 -0.1101  0.0801  0.8136
 1212TIP3    H125127   2.333   2.341   5.737 -0.9623 -1.9515  1.1805
 1212TIP3    H225128   2.395   2.364   5.601 -0.0145  1.8920  2.1338
 1213TIP3   OH225129   6.418   3.788   2.458  0.8755  0.1871  0.1477
 1213TIP3    H125130   6.364   3.838   2.396  0.9628 -0.0178 -0.0962
 1213TIP3    H225131   6.372   3.796   2.542 -0.6381 -1.6326 -0.4394
 1214TIP3   OH225132   3.183   2.177  16.131 -0.1108 -0.1236  0.5432
 1214TIP3    H125133   3.107   2.152  16.079  0.2125 -1.2606  0.5768
 1214TIP3    H225134   3.252   2.118  16.101 -0.0626 -1.2071  2.6092
 1215TIP3   OH225135   0.505   6.387  14.142  0.2223  0.0097  0.6552
 1215TIP3    H125136   0.435   6.332  14.177  1.3031 -1.1512  1.0402
 1215TIP3    H225137   0.494   6.471  14.186 -0.7033 -0.2711  0.9788
 1216TIP3   OH225138   5.491   4.750   1.392 -0.3646 -0.2001 -0.7532
 1216TIP3    H125139   5.548   4.809   1.344 -0.1241  0.5922  0.4510
 1216TIP3    H225140   5.511   4.663   1.358  1.6401  0.0385 -0.3023
 1217TIP3   OH225141   3.601   1.695  11.279  0.4362 -0.2151 -0.1865
 1217TIP3    H125142   3.559   1.780  11.287  0.1325 -0.3246 -0.6046
 1217TIP3    H225143   3.537   1.633  11.313  1.0455 -0.1856  1.0692
 1218TIP3   OH225144   0.968   6.697   0.740  0.0321  0.2672 -0.4142
 1218TIP3    H125145   0.894   6.636   0.744 -0.9577  1.2646 -2.1122
 1218TIP3    H225146   0.997   6.693   0.649  1.4577  0.6363 -0.0015
 1219TIP3   OH225147   1.592   4.183  11.470 -0.0763 -0.1722 -0.0976
 1219TIP3    H125148   1.508   4.142  11.489 -0.7451  1.0847 -0.2200
 1219TIP3    H225149   1.579   4.227  11.386  0.6401  0.1841 -0.0315
 1220TIP3   OH225150   2.395   5.115   3.264  0.1026 -0.5415  0.3369
 1220TIP3    H125151   2.415   5.208   3.274 -0.3250 -0.3939 -0.1421
 1220TIP3    H225152   2.311   5.103   3.309 -0.9424 -0.2353 -1.4440
 1221TIP3   OH225153   6.774   6.641   3.046  0.1659  0.9119 -0.8143
 1221TIP3    H125154   6.690   6.607   3.014 -0.2879  0.4581  0.7543
 1221TIP3    H225155   6.823   6.563   3.073 -0.2652  1.3305  1.3618
 1222TIP3   OH225156   0.373   5.628   1.855 -0.4142  0.2557 -0.2848
 1222TIP3    H125157   0.321   5.628   1.775 -1.1920 -0.7351  0.1919
 1222TIP3    H225158   0.356   5.714   1.894  2.2520  1.9712 -2.5377
 1223TIP3   OH225159   5.600   3.915   2.951 -0.1460 -0.3801 -0.0252
 1223TIP3    H125160   5.562   3.844   2.899 -1.6869  0.9757 -0.8453
 1223TIP3    H225161   5.687   3.929   2.913 -0.6172 -0.5157 -1.2029
 1224TIP3   OH225162   2.996   6.205  14.994  0.3827  0.6285  0.4310
 1224TIP3    H125163   3.040   6.156  14.924  0.8488 -0.5124  1.4749
 1224TIP3    H225164   3.026   6.163  15.075 -3.2523 -0.8178  1.2181
 1225TIP3   OH225165   1.649   6.379  13.448 -0.0121  0.2792 -0.6591
 1225TIP3    H125166   1.607   6.310  13.397 -0.7870  0.3684 -0.1511
 1225TIP3    H225167   1.706   6.423  13.385  0.9468 -1.1725 -0.8649
 1226TIP3   OH225168   0.925   2.514   2.528  0.4683 -0.2238  0.7649
 1226TIP3    H125169   0.992   2.561   2.480  0.7059  0.7106  1.9555
 1226TIP3    H225170   0.884   2.456   2.463 -0.6509  2.4608 -1.0936
 1227TIP3   OH225171   3.779   5.297  14.405  0.4632 -0.4748  0.3102
 1227TIP3    H125172   3.802   5.250  14.485 -0.7623 -0.6206  0.5917
 1227TIP3    H225173   3.684   5.289  14.398  0.4433  0.3461 -0.6570
 1228TIP3   OH225174   3.556   5.267  10.948 -0.1103  0.5707 -0.1934
 1228TIP3    H125175   3.576   5.224  10.865  2.5324 -0.5683  0.9278
 1228TIP3    H225176   3.568   5.361  10.931  1.6839  0.2498 -0.8005
 1229TIP3   OH225177   1.552   1.710  15.615  0.2640  0.1338  0.0677
 1229TIP3    H125178   1.535   1.680  15.526  0.8260  2.4870 -0.9050
 1229TIP3    H225179   1.531   1.634  15.670 -0.4178 -1.2819 -2.0117
 1230TIP3   OH225180   1.635   6.176   5.229 -0.1201  0.3271 -0.2418
 1230TIP3    H125181   1.627   6.203   5.137 -2.2282  0.1338 -0.1674
 1230TIP3    H225182   1.635   6.258   5.278 -1.1152  0.3936 -0.3235
 1231TIP3   OH225183   1.981   1.815   4.743 -0.1919 -0.7277 -0.3594
 1231TIP3    H125184   2.028   1.829   4.825 -0.9187  1.1984 -0.2153
 1231TIP3    H225185   1.949   1.724   4.748  0.8372 -1.0409  0.8979
 1232TIP3   OH225186   0.078   6.601   0.687 -0.1976  0.7398  0.5269
 1232TIP3    H125187  -0.012   6.581   0.713 -0.3548  0.8232  0.0624
 1232TIP3    H225188   0.132   6.548   0.745 -0.5741 -0.1876  0.0470
 1233TIP3   OH225189   5.438   1.085  13.820  0.2016 -0.0267  0.4913
 1233TIP3    H125190   5.509   1.107  13.759 -0.5450  2.1786  0.3234
 1233TIP3    H225191   5.396   1.169  13.838 -0.3638 -0.8042  3.1193
 1234TIP3   OH225192   4.778   2.939  16.143 -0.1568 -0.0538 -0.0896
 1234TIP3    H125193   4.774   2.992  16.223 -0.3109 -1.0184  0.5596
 1234TIP3    H225194   4.692   2.899  16.136 -0.1345 -0.0019 -0.7359
 1235TIP3   OH225195   3.185   6.505  15.768  0.7283 -0.2858 -0.1272
 1235TIP3    H125196   3.187   6.465  15.855 -1.0137 -0.1601  0.0126
 1235TIP3    H225197   3.207   6.597  15.783 -0.3005 -0.0906  0.3322
 1236TIP3   OH225198   0.052   1.602   2.634  0.1435  0.2424 -0.3120
 1236TIP3    H125199  -0.010   1.675   2.636  0.5191  0.6194 -1.4166
 1236TIP3    H225200   0.137   1.643   2.614  1.2538  0.0192  3.3423
 1237TIP3   OH225201   0.292   2.700  15.592 -0.4579 -0.9298 -0.4616
 1237TIP3    H125202   0.232   2.651  15.536 -1.0086 -0.1504 -0.5797
 1237TIP3    H225203   0.335   2.762  15.533 -0.9812 -0.1603 -0.0687
 1238TIP3   OH225204   4.483   1.890  16.115 -0.7710  0.2113 -0.3881
 1238TIP3    H125205   4.570   1.917  16.146 -0.1716 -0.4611 -1.4274
 1238TIP3    H225206   4.498   1.860  16.026 -2.1580  0.4850 -0.7307
 1239TIP3   OH225207   0.351   1.105   4.375 -0.4843 -0.3524 -0.2582
 1239TIP3    H125208   0.413   1.177   4.369 -0.3456 -0.4551 -0.0444
 1239TIP3    H225209   0.332   1.096   4.468  0.5344 -1.4681 -0.1255
 1240TIP3   OH225210   0.296   2.754  13.060  0.2675  0.3734  0.5991
 1240TIP3    H125211   0.289   2.807  13.139  0.4302  0.7449  0.3674
 1240TIP3    H225212   0.387   2.724  13.059  0.3662  0.6665  0.3712
 1241TIP3   OH225213   5.077   5.929   0.714  0.3419 -0.0569 -0.8288
 1241TIP3    H125214   5.007   5.866   0.731  0.1160 -0.2458 -2.3074
 1241TIP3    H225215   5.152   5.895   0.763 -0.9258  0.9530  2.0239
 1242TIP3   OH225216   0.994   3.998   5.815  0.8075 -0.0336 -0.0468
 1242TIP3    H125217   0.901   3.978   5.827  0.5985 -0.7590 -2.2847
 1242TIP3    H225218   1.019   3.949   5.737  3.1404  0.0224  0.5865
 1243TIP3   OH225219   4.224   0.986   3.478  0.3357 -0.3155 -0.0111
 1243TIP3    H125220   4.133   1.016   3.470  0.7550  0.8831 -0.4567
 1243TIP3    H225221   4.275   1.065   3.492  1.4401 -0.8583 -0.7811
 1244TIP3   OH225222   5.046   3.134  15.877  0.4445 -0.2617  0.5611
 1244TIP3    H125223   5.097   3.053  15.873  0.3473 -0.2983 -2.3983
 1244TIP3    H225224   4.960   3.110  15.842  0.2501  1.0001  0.1117
 1245TIP3   OH225225   0.066   1.367   1.292  0.5158  0.0980  0.1350
 1245TIP3    H125226   0.063   1.457   1.260 -0.5923 -0.1545 -0.5127
 1245TIP3    H225227   0.012   1.318   1.231  3.7501 -1.6867 -1.5624
 1246TIP3   OH225228   1.480   1.887  11.437  0.3329 -0.1445 -0.1156
 1246TIP3    H125229   1.573   1.902  11.453  0.1202  0.7949  0.3019
 1246TIP3    H225230   1.463   1.926  11.351  0.1201  0.6319  0.2638
 1247TIP3   OH225231   0.283   5.608   5.160  0.3639 -0.0078 -0.0396
 1247TIP3    H125232   0.281   5.524   5.206 -2.0405  0.3360  0.6165
 1247TIP3    H225233   0.281   5.584   5.067  2.0285 -0.6644  0.0590
 1248TIP3   OH225234   1.483   1.970  12.430  0.3763  0.0351 -0.0321
 1248TIP3    H125235   1.570   1.932  12.441  0.1752 -0.3256  0.3741
 1248TIP3    H225236   1.493   2.061  12.456  0.0296 -0.6504  2.9515
 1249TIP3   OH225237   2.483   1.787   3.155 -0.3904  0.3316 -0.0803
 1249TIP3    H125238   2.402   1.786   3.105  0.4385  0.9941 -1.5160
 1249TIP3    H225239   2.458   1.821   3.241 -1.6965  0.1027 -0.3543
 1250TIP3   OH225240   3.866   4.714   1.363 -0.2103 -0.0916  0.4257
 1250TIP3    H125241   3.801   4.702   1.432 -2.3086 -2.8714 -1.7923
 1250TIP3    H225242   3.866   4.808   1.346 -1.9566  0.2629  2.0678
 1251TIP3   OH225243   5.065   1.169   3.029 -0.0511 -0.3982  0.2193
 1251TIP3    H125244   5.115   1.088   3.030  1.3917  0.3853  2.7464
 1251TIP3    H225245   5.122   1.232   2.984  0.2679 -0.0705  1.0503
 1252TIP3   OH225246   3.377   0.844   2.287 -0.2222  0.2683  0.2060
 1252TIP3    H125247   3.410   0.926   2.250 -2.4971  0.9366 -0.4968
 1252TIP3    H225248   3.387   0.781   2.216  1.0124  0.0248  0.5625
 1253TIP3   OH225249   4.467   1.065   0.030 -0.2809 -0.3150 -0.1170
 1253TIP3    H125250   4.431   1.038  -0.055 -0.8324 -1.6493  0.5199
 1253TIP3    H225251   4.391   1.072   0.087  0.3432 -3.8362  1.4252
 1254TIP3   OH225252   6.834   6.689  15.069  0.2294 -0.2436 -0.5687
 1254TIP3    H125253   6.807   6.630  15.139 -0.4416  2.4370  1.6359
 1254TIP3    H225254   6.782   6.663  14.993 -2.1616 -0.6991  1.1305
 1255TIP3   OH225255   1.286   5.890   1.652 -0.4535 -0.0444 -0.2558
 1255TIP3    H125256   1.220   5.884   1.583  0.1779 -0.5922 -0.8235
 1255TIP3    H225257   1.363   5.847   1.615 -0.2629 -0.8053  0.9801
 1256TIP3   OH225258   6.045   6.486  17.085  1.0832 -0.1142  0.3797
 1256TIP3    H125259   6.010   6.530  17.007  2.3187 -0.0518 -0.1610
 1256TIP3    H225260   6.095   6.412  17.050 -0.2363 -1.4759  1.2327
 1257TIP3   OH225261   5.841   0.825   0.462 -0.1216 -0.2149 -0.2179
 1257TIP3    H125262   5.924   0.869   0.474  0.6561 -1.7313  0.2516
 1257TIP3    H225263   5.776   0.887   0.495  0.8992  0.6575  0.2051
 1258TIP3   OH225264   0.298   4.635   1.115 -0.6898  0.4457 -0.5160
 1258TIP3    H125265   0.366   4.686   1.159 -0.9778  0.5837 -0.2303
 1258TIP3    H225266   0.231   4.622   1.181 -0.1801 -1.1787 -0.2738
 1259TIP3   OH225267   0.303   3.170   2.822  0.2331  0.6016 -0.0694
 1259TIP3    H125268   0.244   3.219   2.878 -0.3047 -0.8714  0.7170
 1259TIP3    H225269   0.271   3.080   2.827  0.9467  0.2111 -1.7479
 1260TIP3   OH225270   6.662   2.839  16.351  0.0021 -0.1076 -0.2502
 1260TIP3    H125271   6.614   2.779  16.408 -1.2177  0.6494 -0.4524
 1260TIP3    H225272   6.745   2.854  16.397 -0.4430 -0.4997  0.7100
 1261TIP3   OH225273   2.704   5.608  13.178 -0.1106  0.6491  0.9126
 1261TIP3    H125274   2.649   5.685  13.169  0.0960  1.2480  3.8804
 1261TIP3    H225275   2.696   5.583  13.270  0.8284 -2.1316  0.3417
 1262TIP3   OH225276   0.460   3.619   2.040 -0.4536 -0.1102  0.1910
 1262TIP3    H125277   0.550   3.651   2.030  0.9901 -4.2978 -2.9691
 1262TIP3    H225278   0.419   3.635   1.956 -1.0744 -2.2806  0.0259
 1263TIP3   OH225279   5.736   2.351  12.360 -0.2137  0.0583 -0.0616
 1263TIP3    H125280   5.752   2.396  12.442 -1.7687 -2.0764  1.5367
 1263TIP3    H225281   5.650   2.383  12.331 -0.5394 -0.5859  0.1775
 1264TIP3   OH225282   0.874   5.934  11.488  0.6931 -0.2133 -0.0047
 1264TIP3    H125283   0.828   5.982  11.419  2.9862  0.1448 -1.3781
 1264TIP3    H225284   0.966   5.935  11.462  1.5320 -0.9780  2.5490
 1265TIP3   OH225285   3.267   4.729   5.261  0.1490 -0.0156  0.8826
 1265TIP3    H125286   3.227   4.808   5.296 -1.0610  0.2802 -1.0505
 1265TIP3    H225287   3.345   4.759   5.215  0.9271 -0.2513  1.9748
 1266TIP3   OH225288   0.698   6.457  13.156 -0.1129 -0.3327 -0.5225
 1266TIP3    H125289   0.758   6.382  13.151 -0.9256 -0.9740 -0.8773
 1266TIP3    H225290   0.685   6.484  13.065  0.5039  0.5221 -0.3712
 1267TIP3   OH225291   6.002   4.183   4.489 -0.4942  0.0638  0.3987
 1267TIP3    H125292   5.918   4.229   4.500 -1.4096 -1.2442 -0.7221
 1267TIP3    H225293   6.013   4.178   4.394  0.4273 -0.5376  0.5299
 1268TIP3   OH225294   2.047   0.328  13.957  0.0274  0.5831 -0.3524
 1268TIP3    H125295   2.133   0.343  13.997 -0.3531  0.7113  0.4543
 1268TIP3    H225296   2.065   0.307  13.866  0.9560  0.0125 -0.0476
 1269TIP3   OH225297   5.843   5.630   0.306  0.2561  0.0519 -0.0384
 1269TIP3    H125298   5.890   5.599   0.229 -0.3599 -0.6646 -0.1322
 1269TIP3    H225299   5.846   5.557   0.368 -1.0367 -0.1508 -0.1845
 1270TIP3   OH225300   5.500   6.522   3.756  0.0204  0.1393 -0.3101
 1270TIP3    H125301   5.475   6.430   3.745 -0.8398  0.4381 -0.8995
 1270TIP3    H225302   5.531   6.527   3.846 -2.3582 -0.1859  0.5949
 1271TIP3   OH225303   6.767   4.774  11.769  0.0088  0.5919 -0.2311
 1271TIP3    H125304   6.799   4.710  11.833 -2.1783  0.3240  0.6953
 1271TIP3    H225305   6.846   4.814  11.733  1.3540 -0.2955  1.5743
 1272TIP3   OH225306   6.142   5.716   2.442  0.0563  0.0856  0.3176
 1272TIP3    H125307   6.163   5.685   2.354  1.3243 -0.5146  0.8006
 1272TIP3    H225308   6.198   5.793   2.454 -2.5511  2.3208 -0.6069
 1273TIP3   OH225309   0.593   3.779   2.781  0.2889 -0.0729 -0.3885
 1273TIP3    H125310   0.613   3.872   2.787  0.6903 -0.1628 -0.3526
 1273TIP3    H225311   0.607   3.745   2.869 -1.5311  0.1628  0.0314
 1274TIP3   OH225312   2.197   2.512   0.113  0.2229 -0.4085  0.0954
 1274TIP3    H125313   2.137   2.439   0.100 -0.2516  0.3336 -2.3053
 1274TIP3    H225314   2.230   2.500   0.202 -1.3856 -2.3716  0.5004
 1275TIP3   OH225315   2.380   2.900  12.580 -0.0467  0.4376  0.0243
 1275TIP3    H125316   2.464   2.901  12.626 -0.0978  1.4408  0.1096
 1275TIP3    H225317   2.375   2.985  12.537 -0.7854  0.1800 -0.4087
 1276TIP3   OH225318   0.006   0.957   5.218 -0.5161 -0.3198  0.1501
 1276TIP3    H125319  -0.016   1.019   5.149 -1.2664  0.2357  0.8728
 1276TIP3    H225320  -0.077   0.941   5.263 -0.4116 -2.1204 -0.2243
 1277TIP3   OH225321   6.817   2.498  11.155 -0.4628 -0.3122 -0.0049
 1277TIP3    H125322   6.768   2.573  11.121 -1.3633 -0.2161  1.4467
 1277TIP3    H225323   6.752   2.447  11.203  0.8293 -0.2204  1.9310
 1278TIP3   OH225324   6.246   1.465   3.152  0.0716 -0.1523 -0.0844
 1278TIP3    H125325   6.167   1.500   3.110  0.1925 -0.6831 -0.7838
 1278TIP3    H225326   6.281   1.403   3.088 -0.3571 -1.8676  1.2616
 1279TIP3   OH225327   2.295   3.422   2.910  0.2203 -0.0493 -0.2784
 1279TIP3    H125328   2.321   3.455   2.823  0.1646 -1.1684 -0.7328
 1279TIP3    H225329   2.373   3.376   2.942 -0.1941 -0.8159 -0.3388
 1280TIP3   OH225330   3.388   2.092  11.455 -0.2668 -0.4511  0.2662
 1280TIP3    H125331   3.459   2.136  11.502 -2.0089  1.7780  0.9634
 1280TIP3    H225332   3.309   2.118  11.501 -1.6594 -2.2509 -0.9495
 1281TIP3   OH225333   3.162   2.208  16.992  0.2913  0.2765 -0.5674
 1281TIP3    H125334   3.201   2.203  16.904  2.8922 -2.6856  0.5625
 1281TIP3    H225335   3.137   2.117  17.011  2.7486  0.1550  2.8818
 1282TIP3   OH225336   2.873   0.421  13.778  0.3364 -0.0765  0.1177
 1282TIP3    H125337   2.961   0.437  13.812  0.8415 -3.2445  0.6425
 1282TIP3    H225338   2.881   0.340  13.728 -2.1280  0.0261 -0.5845
 1283TIP3   OH225339   1.071   1.012   2.806  0.6892  0.4785 -0.3333
 1283TIP3    H125340   1.046   0.922   2.785  0.0858  0.8610 -1.3146
 1283TIP3    H225341   1.007   1.067   2.761  2.5457  1.4608 -1.9580
 1284TIP3   OH225342   5.895   2.793   2.227 -0.0180 -0.5015  0.4749
 1284TIP3    H125343   5.824   2.786   2.290 -0.1515 -0.8882  0.2847
 1284TIP3    H225344   5.908   2.704   2.195 -0.2517 -0.2434 -0.3670
 1285TIP3   OH225345   5.842   6.727   2.809 -0.2155  0.2155 -0.9159
 1285TIP3    H125346   5.765   6.781   2.794  0.5619  1.5098 -0.5018
 1285TIP3    H225347   5.875   6.706   2.722 -1.7861 -1.5487 -1.1383
 1286TIP3   OH225348   2.864   0.515  12.941 -0.7920  0.5076 -0.3131
 1286TIP3    H125349   2.822   0.597  12.913 -2.0050 -0.5251 -1.6284
 1286TIP3    H225350   2.837   0.504  13.032 -2.0599  0.6994 -0.6501
 1287TIP3   OH225351   1.814   3.822  16.516 -0.2478 -0.1634 -0.2104
 1287TIP3    H125352   1.868   3.900  16.511  0.9953 -0.9648  0.2996
 1287TIP3    H225353   1.784   3.820  16.607 -4.1643  2.1834 -1.2121
 1288TIP3   OH225354   1.980   0.033   4.859  0.2441  0.1743 -0.4587
 1288TIP3    H125355   1.921   0.020   4.784 -0.0775  1.1425 -0.3853
 1288TIP3    H225356   1.999  -0.055   4.889 -0.4527 -0.1945 -1.0456
 1289TIP3   OH225357   0.404   3.876  14.367  0.3637  0.0882  0.3642
 1289TIP3    H125358   0.392   3.963  14.330 -1.9102 -0.6368 -0.8179
 1289TIP3    H225359   0.498   3.861  14.366  0.7037  2.1071 -0.3907
 1290TIP3   OH225360   5.410   5.197   3.019 -0.0867  0.2452 -0.7534
 1290TIP3    H125361   5.494   5.171   3.056  0.5220  2.6570 -0.3318
 1290TIP3    H225362   5.350   5.200   3.094 -0.3238 -0.5014 -0.9026
 1291TIP3   OH225363   3.779   5.119   3.461 -0.1597  0.2419  0.5702
 1291TIP3    H125364   3.806   5.034   3.425  0.1075  0.0756  1.1521
 1291TIP3    H225365   3.701   5.099   3.513 -0.0551  0.3399  0.7657
 1292TIP3   OH225366   3.551   6.687   4.736  0.0842  0.0581 -0.3987
 1292TIP3    H125367   3.590   6.697   4.649 -1.6687 -0.1390 -1.2362
 1292TIP3    H225368   3.466   6.729   4.729 -0.2103 -0.2326  1.1471
 1293TIP3   OH225369   6.457   4.434  16.016 -0.0615 -0.0822  0.1839
 1293TIP3    H125370   6.486   4.498  16.081  0.4279  0.0631 -0.1730
 1293TIP3    H225371   6.366   4.414  16.041  0.2430 -0.3223  1.1418
 1294TIP3   OH225372   2.861   6.119   2.463 -0.2782 -0.0547 -0.4714
 1294TIP3    H125373   2.860   6.159   2.376 -3.2425 -0.0117 -0.5195
 1294TIP3    H225374   2.771   6.086   2.476  0.6351 -1.9995  1.7052
 1295TIP3   OH225375   5.444   2.993   0.040 -0.0934 -0.1502  0.1269
 1295TIP3    H125376   5.410   2.910   0.006  2.6108 -1.1238 -0.4379
 1295TIP3    H225377   5.442   2.982   0.135  0.4639 -0.9816  0.0523
 1296TIP3   OH225378   5.953   5.012   1.282 -0.7388  0.2514  0.1247
 1296TIP3    H125379   6.015   4.950   1.322 -1.3077  0.1306  0.8500
 1296TIP3    H225380   5.902   5.045   1.356 -0.6040  1.4157 -0.2877
 1297TIP3   OH225381   0.384   5.368   3.178 -0.4389 -0.6846 -0.9564
 1297TIP3    H125382   0.474   5.379   3.149 -0.0578 -0.3410  0.2832
 1297TIP3    H225383   0.344   5.455   3.167 -0.5146 -0.7437 -1.1564
 1298TIP3   OH225384   2.760   6.762  13.193 -0.2715 -0.0823  0.5345
 1298TIP3    H125385   2.676   6.766  13.239 -0.2630  1.7512  0.4541
 1298TIP3    H225386   2.775   6.851  13.161  1.1940 -0.6170 -0.3958
 1299TIP3   OH225387   3.381   5.152  16.288  0.3456  0.2190  0.3960
 1299TIP3    H125388   3.386   5.247  16.300 -0.1118  0.1517  1.2574
 1299TIP3    H225389   3.470   5.121  16.299  0.6163  0.6112 -0.5818
 1300TIP3   OH225390   4.899   5.273  15.386 -0.1204  0.1000  0.0047
 1300TIP3    H125391   4.896   5.322  15.304 -1.4237 -0.0937 -0.0815
 1300TIP3    H225392   4.876   5.183  15.361  0.9888 -0.2995  0.3591
 1301TIP3   OH225393   4.630   4.822   5.555 -0.0363 -0.7150  0.1748
 1301TIP3    H125394   4.615   4.728   5.567  0.9355 -0.9091 -0.1106
 1301TIP3    H225395   4.722   4.830   5.533  0.4811  0.5037  2.4307
 1302TIP3   OH225396   4.151   2.056  13.044  0.2957  0.0677 -0.6885
 1302TIP3    H125397   4.062   2.040  13.013 -0.4781  0.3871  1.2291
 1302TIP3    H225398   4.196   1.972  13.032 -0.6179 -0.4458 -0.5888
 1303TIP3   OH225399   6.586   0.794  11.841 -0.1209  0.2307 -0.0082
 1303TIP3    H125400   6.593   0.834  11.928 -1.7201  1.9174 -0.5990
 1303TIP3    H225401   6.676   0.777  11.815  0.5618  2.3061  0.8182
 1304TIP3   OH225402   6.297   5.214  13.387  0.6695 -0.0428  0.3398
 1304TIP3    H125403   6.341   5.238  13.469 -0.1623  1.6022  0.3298
 1304TIP3    H225404   6.349   5.255  13.318 -0.2384  1.0157  0.2604
 1305TIP3   OH225405   4.028   4.415   0.289  0.4949  0.3411 -0.7770
 1305TIP3    H125406   4.017   4.508   0.308 -5.0396 -0.0412 -0.4691
 1305TIP3    H225407   4.059   4.377   0.372 -0.4704  1.5726  0.1945
 1306TIP3   OH225408   4.176   1.288  15.538  0.7362  0.2275  0.0743
 1306TIP3    H125409   4.174   1.202  15.579  0.9143  0.1323 -0.1148
 1306TIP3    H225410   4.085   1.318  15.539  0.6684  0.0168  0.0939
 1307TIP3   OH225411   4.311   0.514   0.865 -0.2279 -0.3956  0.3761
 1307TIP3    H125412   4.290   0.571   0.791  0.7721 -1.4589 -0.7897
 1307TIP3    H225413   4.333   0.430   0.824 -0.1246 -1.1563  1.9308
 1308TIP3   OH225414   2.357   0.792  15.907  0.0654  0.1593 -0.3162
 1308TIP3    H125415   2.296   0.854  15.947  0.3241  1.9065 -2.4501
 1308TIP3    H225416   2.396   0.840  15.834  3.3488 -1.1755  0.3800
 1309TIP3   OH225417   0.276   4.566   4.167  0.5410 -0.7790  0.0423
 1309TIP3    H125418   0.261   4.476   4.195  1.2962 -1.0766 -0.4926
 1309TIP3    H225419   0.230   4.573   4.083  2.4326 -1.4094 -1.1215
 1310TIP3   OH225420   5.773   6.502   0.770  0.5739  0.1883  0.1263
 1310TIP3    H125421   5.732   6.417   0.786  0.8920 -0.0173 -0.1327
 1310TIP3    H225422   5.720   6.564   0.819  0.8842 -0.2842  1.0900
 1311TIP3   OH225423   2.075   0.448  15.959  0.0167 -0.5032  0.2963
 1311TIP3    H125424   2.002   0.467  16.018  0.2159 -2.0682  1.0775
 1311TIP3    H225425   2.041   0.383  15.898 -0.0711  0.8293 -1.1614
 1312TIP3   OH225426   5.706   0.860   4.433 -0.2561  0.1569 -0.0510
 1312TIP3    H125427   5.652   0.920   4.381 -1.3925  0.3839  1.3385
 1312TIP3    H225428   5.673   0.773   4.411 -0.6239  0.2401  0.1759
 1313TIP3   OH225429   1.229   0.757   3.683  0.2744  0.1496 -0.0861
 1313TIP3    H125430   1.264   0.772   3.595  1.5664  2.3333  0.7161
 1313TIP3    H225431   1.146   0.804   3.684 -1.1639 -2.1977 -0.9243
 1314TIP3   OH225432   4.669   6.795  16.623 -0.3010 -0.4057 -0.0268
 1314TIP3    H125433   4.640   6.789  16.533 -0.2430  0.1578 -0.0880
 1314TIP3    H225434   4.696   6.887  16.634  0.2000 -0.5946  0.4028
 1315TIP3   OH225435   4.094   1.897   4.010  0.3955 -0.0667  0.2215
 1315TIP3    H125436   4.009   1.928   4.043  0.5299 -0.3570  0.8535
 1315TIP3    H225437   4.127   1.970   3.957  0.1233  0.3700  0.6466
 1316TIP3   OH225438   4.094   6.145   4.162 -0.0771  0.1053 -0.4984
 1316TIP3    H125439   4.099   6.050   4.164 -1.6495 -0.1358 -3.0523
 1316TIP3    H225440   4.137   6.170   4.081  0.5453  1.6182  0.2627
 1317TIP3   OH225441   0.509   2.280   4.948  0.4849  0.1737 -0.0080
 1317TIP3    H125442   0.421   2.256   4.975  0.0715  1.5839 -0.0099
 1317TIP3    H225443   0.499   2.310   4.857  0.9632  0.2927 -0.0260
 1318TIP3   OH225444   6.589   0.209  11.584 -0.5656 -0.1974  0.4841
 1318TIP3    H125445   6.508   0.173  11.621 -0.7522 -1.3833 -0.9614
 1318TIP3    H225446   6.657   0.182  11.646 -1.0894 -0.4894  0.9448
 1319TIP3   OH225447   3.077   5.391  15.490 -0.6033  0.2879  0.5172
 1319TIP3    H125448   3.101   5.308  15.531 -1.2842  0.7612  1.9395
 1319TIP3    H225449   3.037   5.367  15.406 -0.3082 -0.7770  0.6799
 1320TIP3   OH225450   3.165   4.127  13.178  0.2894  0.5844  0.4782
 1320TIP3    H125451   3.095   4.083  13.226  1.4185  0.0334  1.6988
 1320TIP3    H225452   3.134   4.217  13.167 -1.2118  0.0004 -0.3128
 1321TIP3   OH225453   1.315   5.293  11.591 -0.2501 -0.5170 -0.4255
 1321TIP3    H125454   1.371   5.346  11.648 -1.0312 -0.4861  0.3497
 1321TIP3    H225455   1.256   5.248  11.651 -0.2212 -1.5347 -1.1454
 1322TIP3   OH225456   3.787   2.260   5.349  0.2135 -0.4137 -0.0659
 1322TIP3    H125457   3.755   2.195   5.411 -0.5545 -0.0261 -0.0332
 1322TIP3    H225458   3.736   2.339   5.370  0.7607  0.0420 -0.4386
 1323TIP3   OH225459   6.599   3.000  13.724  0.0073 -0.1875  0.5399
 1323TIP3    H125460   6.623   3.012  13.816  2.7915 -0.9912  0.0136
 1323TIP3    H225461   6.645   3.070  13.677 -2.6999  1.2480 -0.1642
 1324TIP3   OH225462   0.197   4.479   3.029  0.5576  0.0637  0.0735
 1324TIP3    H125463   0.210   4.389   3.059 -2.0043  0.2489  2.1396
 1324TIP3    H225464   0.160   4.524   3.105  0.5720  2.5480 -1.2914
 1325TIP3   OH225465   6.085   2.302  16.585 -0.4872 -0.8692 -0.1287
 1325TIP3    H125466   6.046   2.304  16.498  0.4763  0.9624 -0.5562
 1325TIP3    H225467   6.050   2.379  16.629  1.1407 -0.2371  0.1306
 1326TIP3   OH225468   1.624   4.206   3.878 -1.0709  0.3818 -0.3948
 1326TIP3    H125469   1.634   4.299   3.857 -2.7506  0.4333 -1.1290
 1326TIP3    H225470   1.549   4.178   3.826  0.1936 -1.7282 -1.1992
 1327TIP3   OH225471   6.035   0.456  11.128 -0.1547 -0.1786  0.2769
 1327TIP3    H125472   5.991   0.372  11.116 -0.1873 -0.3119  1.2597
 1327TIP3    H225473   6.065   0.455  11.219  0.6532  0.4959  0.0278
 1328TIP3   OH225474   1.949   2.618   1.183  0.2268  0.3021 -0.1164
 1328TIP3    H125475   2.025   2.636   1.128 -1.0750 -0.0302 -2.1301
 1328TIP3    H225476   1.892   2.693   1.169 -1.0175 -0.7465 -0.9045
 1329TIP3   OH225477   5.872   2.271   5.672 -0.2489  0.0363  0.1250
 1329TIP3    H125478   5.876   2.339   5.739 -0.5799  0.5828 -0.4093
 1329TIP3    H225479   5.804   2.211   5.703 -0.4430  0.3189  0.2394
 1330TIP3   OH225480   3.915   2.250  12.147 -0.3065 -0.3084 -0.0721
 1330TIP3    H125481   3.910   2.344  12.164  2.2822 -0.3314  1.3134
 1330TIP3    H225482   3.976   2.242  12.073 -0.9452 -0.8845 -0.5499
 1331TIP3   OH225483   4.693   4.257   3.896 -0.0538 -0.4721  0.7024
 1331TIP3    H125484   4.770   4.238   3.843 -0.7588 -1.1857 -0.1040
 1331TIP3    H225485   4.689   4.353   3.899 -1.3401 -0.2841 -2.6665
 1332TIP3   OH225486   2.118   3.654   4.846 -0.4200 -0.2278 -0.2493
 1332TIP3    H125487   2.034   3.635   4.887 -2.2229  3.6822 -1.6801
 1332TIP3    H225488   2.174   3.685   4.917 -1.0498 -0.3873  0.3182
 1333TIP3   OH225489   2.243   6.492  13.660 -0.5475  0.2687 -0.0339
 1333TIP3    H125490   2.219   6.420  13.602 -1.7535  0.1873  0.5345
 1333TIP3    H225491   2.170   6.499  13.721 -0.1587  1.5681  0.3172
 1334TIP3   OH225492   0.018   2.071  11.069 -0.1836 -0.3970 -0.3824
 1334TIP3    H125493   0.111   2.089  11.081 -0.9216  2.0452  2.7951
 1334TIP3    H225494  -0.021   2.156  11.052 -2.0410 -1.1437 -0.1058
 1335TIP3   OH225495   4.011   4.969  12.473  0.2613  0.0139 -0.0618
 1335TIP3    H125496   4.044   4.997  12.559  1.7390 -0.6656 -0.3707
 1335TIP3    H225497   4.083   4.988  12.413 -0.2505 -0.7315 -0.9367
 1336TIP3   OH225498   1.847   2.165  12.920  0.0070 -0.3180  0.7352
 1336TIP3    H125499   1.927   2.150  12.970 -0.3603 -1.7222  0.9565
 1336TIP3    H225500   1.793   2.219  12.977  0.2135 -0.6073  1.2091
 1337TIP3   OH225501   1.159   3.865   4.166  0.3721 -0.4388 -0.2071
 1337TIP3    H125502   1.138   3.929   4.234  0.9760 -0.9567  0.4958
 1337TIP3    H225503   1.103   3.790   4.185 -1.5192  0.4299 -1.9913
 1338TIP3   OH225504   0.766   0.236  14.985 -0.2946 -1.0443 -0.0330
 1338TIP3    H125505   0.683   0.267  14.951 -0.6935 -1.2836  0.7081
 1338TIP3    H225506   0.764   0.141  14.973 -0.7945 -1.2316  1.3882
 1339TIP3   OH225507   5.956   6.019   4.114  0.3447  0.5893  0.9386
 1339TIP3    H125508   5.999   6.067   4.043  1.9374 -1.8991  0.0851
 1339TIP3    H225509   5.873   6.063   4.126  1.2909  2.9198 -0.4183
 1340TIP3   OH225510   3.121   6.117   6.451 -0.5434  0.3638  0.3613
 1340TIP3    H125511   3.070   6.112   6.532 -1.4186 -0.3497 -0.2103
 1340TIP3    H225512   3.071   6.175   6.395 -1.5907 -1.5449 -0.7674
 1341TIP3   OH225513   2.224   2.115  14.097  0.3164  0.0833 -0.5266
 1341TIP3    H125514   2.178   2.088  14.018  1.4921  0.0565 -1.2182
 1341TIP3    H225515   2.156   2.153  14.152 -0.8238 -1.3709 -0.8531
 1342TIP3   OH225516   1.231   2.917  14.309 -0.1886 -0.3730  0.8316
 1342TIP3    H125517   1.215   2.909  14.403 -1.5453  1.7922  0.8417
 1342TIP3    H225518   1.279   2.999  14.299  0.6269 -0.9527 -0.3235
 1343TIP3   OH225519   1.434   0.348   6.549  0.2638  0.1295 -0.3120
 1343TIP3    H125520   1.500   0.414   6.569  1.5244 -1.3053  0.4139
 1343TIP3    H225521   1.371   0.354   6.621  0.0426  0.9075 -0.5562
 1344TIP3   OH225522   5.427   3.773  15.379 -0.0573  0.2329  0.1572
 1344TIP3    H125523   5.510   3.804  15.413 -0.2466  0.5068  0.3711
 1344TIP3    H225524   5.444   3.756  15.286  0.4974 -0.6484  0.4021
 1345TIP3   OH225525   5.426   4.455  14.115  0.6620 -0.2953 -0.2255
 1345TIP3    H125526   5.448   4.362  14.118 -0.2796 -0.5622 -1.2046
 1345TIP3    H225527   5.465   4.491  14.195  0.2902 -1.6862  0.6183
 1346TIP3   OH225528   4.246   6.279  14.991  0.1733 -0.3129  0.4500
 1346TIP3    H125529   4.332   6.292  14.950 -0.4893 -0.9956 -1.2452
 1346TIP3    H225530   4.185   6.323  14.932 -0.6495  0.3781  1.7709
 1347TIP3   OH225531   1.965   1.280  12.764  0.2735 -0.2585 -0.5603
 1347TIP3    H125532   1.925   1.263  12.679 -0.2858  3.2185 -1.1514
 1347TIP3    H225533   2.054   1.310  12.743  0.5351 -0.4968  0.1611
 1348TIP3   OH225534   3.184   6.041   3.826 -0.0918  0.0403  0.2095
 1348TIP3    H125535   3.260   6.035   3.767  0.7669 -1.6157  1.4056
 1348TIP3    H225536   3.222   6.058   3.912 -1.0766 -0.7897  0.8175
 1349TIP3   OH225537   0.386   3.903   1.121  0.0531 -0.4036  0.1133
 1349TIP3    H125538   0.375   3.811   1.145 -2.6083 -0.1070  0.3222
 1349TIP3    H225539   0.342   3.911   1.036 -0.2817  0.7615  0.3755
 1350TIP3   OH225540   6.486   5.037  15.445 -0.4186  0.0432 -0.4333
 1350TIP3    H125541   6.422   5.108  15.434 -0.0433  0.5479  0.5042
 1350TIP3    H225542   6.451   4.965  15.393 -1.4805  0.4858 -0.3656
 1351TIP3   OH225543   5.399   5.544  17.100  0.2184 -0.2058 -0.3691
 1351TIP3    H125544   5.360   5.530  17.186 -0.6060 -1.6154 -0.9311
 1351TIP3    H225545   5.341   5.606  17.056  0.8264  0.7783  0.1934
 1352TIP3   OH225546   2.138   6.380   4.788 -0.3956 -0.1553 -0.1565
 1352TIP3    H125547   2.065   6.370   4.848 -3.1250  0.0563 -3.2022
 1352TIP3    H225548   2.129   6.308   4.726  2.6487 -0.7303 -0.1116
 1353TIP3   OH225549   4.089   0.313  11.194 -0.3836  0.2366  0.5454
 1353TIP3    H125550   4.071   0.363  11.274  0.2523  0.1608  0.7427
 1353TIP3    H225551   4.018   0.337  11.135 -1.4253 -0.4628  1.4670
 1354TIP3   OH225552   6.084   1.956  12.154  0.1850  0.1964  0.5426
 1354TIP3    H125553   6.144   2.031  12.148  0.2845  0.0243 -1.6476
 1354TIP3    H225554   6.004   1.993  12.191  0.6283  1.1154  0.6403
 1355TIP3   OH225555   2.280   3.245  14.506 -0.3307  0.3671 -0.7400
 1355TIP3    H125556   2.340   3.318  14.518  0.5280 -0.3271 -0.7393
 1355TIP3    H225557   2.193   3.285  14.512  0.1158  1.3274 -0.3901
 1356TIP3   OH225558   5.455   1.581   6.273  0.7805  0.1358 -0.0601
 1356TIP3    H125559   5.391   1.519   6.309 -2.0080  2.4237 -0.7176
 1356TIP3    H225560   5.456   1.654   6.335  0.6945  1.3311 -1.4188
 1357TIP3   OH225561   0.940   1.553   5.520  0.6861 -0.0724  0.5067
 1357TIP3    H125562   0.952   1.510   5.435 -2.4271  1.4345 -0.8684
 1357TIP3    H225563   0.869   1.505   5.561  0.4740  0.7579  1.1313
 1358TIP3   OH225564   3.013   6.187   2.778  0.4326  0.6914 -0.0229
 1358TIP3    H125565   3.047   6.118   2.835  0.4662  1.1069  0.4680
 1358TIP3    H225566   2.939   6.146   2.733  1.6954 -0.3042 -1.2976
 1359TIP3   OH225567   4.477   6.797   2.286  0.0042 -0.1876  0.4607
 1359TIP3    H125568   4.429   6.843   2.217  1.2433  0.5777  0.0852
 1359TIP3    H225569   4.560   6.844   2.294 -0.2462  0.0198  2.7749
 1360TIP3   OH225570   5.498   0.800  13.367  0.4819  0.0655  0.2391
 1360TIP3    H125571   5.541   0.745  13.432 -0.3358 -0.9559 -0.0736
 1360TIP3    H225572   5.526   0.889  13.389  0.0497 -0.2378  2.1211
 1361TIP3   OH225573   1.991   0.580   5.367 -0.0703 -0.4473  0.4785
 1361TIP3    H125574   2.023   0.627   5.290  1.8985 -0.9441  0.9637
 1361TIP3    H225575   1.913   0.630   5.394  1.3597  1.9664  0.3815
 1362TIP3   OH225576   4.767   0.628  12.210 -0.5501  0.2170  0.2359
 1362TIP3    H125577   4.846   0.577  12.229 -1.9344 -1.4441  1.9513
 1362TIP3    H225578   4.703   0.563  12.182 -1.1721  1.6235 -1.8658
 1363TIP3   OH225579   5.485   5.842   2.669  0.6115 -0.3444  0.3032
 1363TIP3    H125580   5.434   5.767   2.701  1.0738 -1.7232 -2.0082
 1363TIP3    H225581   5.576   5.820   2.689  0.6157  0.5798  1.4220
 1364TIP3   OH225582   5.504   5.292  17.052 -0.1630 -0.4061 -0.0836
 1364TIP3    H125583   5.455   5.241  17.116  0.6827  0.0888  0.9836
 1364TIP3    H225584   5.457   5.375  17.047  0.9007  0.3276  1.4479
 1365TIP3   OH225585   2.647   2.135  12.895 -0.7162 -0.5358 -0.5655
 1365TIP3    H125586   2.554   2.145  12.914 -0.1360  1.3889  1.7931
 1365TIP3    H225587   2.676   2.063  12.952 -0.6522 -0.7530 -0.8715
 1366TIP3   OH225588   2.225   5.821  13.626 -0.2575 -0.3095 -0.5903
 1366TIP3    H125589   2.156   5.841  13.564  0.2807 -1.0411 -1.4523
 1366TIP3    H225590   2.179   5.796  13.707 -0.9620  0.3939 -0.7645
 1367TIP3   OH225591   6.608   6.313  12.123  0.0275 -0.6044 -0.3963
 1367TIP3    H125592   6.635   6.252  12.054  0.0332  0.0550 -0.9901
 1367TIP3    H225593   6.513   6.319  12.113 -0.0119 -0.7808 -0.1168
 1368TIP3   OH225594   0.700   6.573  14.687 -0.2599 -0.2412  0.4919
 1368TIP3    H125595   0.746   6.632  14.627  1.4644 -0.1786  1.7731
 1368TIP3    H225596   0.637   6.526  14.633  0.6701  0.3827 -1.1928
 1369TIP3   OH225597   2.120   4.912  11.464 -0.1036  0.0496  1.1031
 1369TIP3    H125598   2.087   4.838  11.514 -2.3734  0.4243  0.2495
 1369TIP3    H225599   2.068   4.913  11.384 -1.7707  3.8317  2.0246
 1370TIP3   OH225600   5.597   1.304   5.533 -0.1690 -0.1606  0.1032
 1370TIP3    H125601   5.657   1.374   5.506  1.9380 -1.7776  0.4428
 1370TIP3    H225602   5.562   1.270   5.450 -1.1401  1.1510 -0.0731
 1371TIP3   OH225603   6.462   5.335  13.128  0.4335 -0.0037  0.1491
 1371TIP3    H125604   6.434   5.306  13.041  0.2740  2.5897 -0.7421
 1371TIP3    H225605   6.481   5.428  13.117  1.0137  0.2510  2.7735
 1372TIP3   OH225606   0.095   3.486   2.617  0.2574  1.1201 -0.2083
 1372TIP3    H125607   0.012   3.448   2.590  1.6009 -1.2393 -1.4571
 1372TIP3    H225608   0.083   3.510   2.709 -1.1127 -1.3753  0.3460
 1373TIP3   OH225609   6.807   6.513  17.058  0.3309 -0.2413  0.6396
 1373TIP3    H125610   6.875   6.456  17.021 -0.8548 -0.7351 -0.9375
 1373TIP3    H225611   6.751   6.454  17.109 -1.5567 -0.8699 -1.9153
 1374TIP3   OH225612   6.726   5.859   1.851 -0.7059  0.1254  0.7886
 1374TIP3    H125613   6.655   5.916   1.881 -0.7007  0.7318 -0.2739
 1374TIP3    H225614   6.805   5.912   1.860 -0.8059  0.6612 -1.0272
 1375TIP3   OH225615   5.304   0.420   0.217 -0.5831  0.3043 -0.2711
 1375TIP3    H125616   5.266   0.507   0.207 -1.0514  0.1407  0.0811
 1375TIP3    H225617   5.231   0.364   0.243 -0.3002 -0.2097 -0.5557
 1376TIP3   OH225618   2.915   5.779  12.545  0.2302 -0.0531 -0.5388
 1376TIP3    H125619   2.883   5.799  12.456 -0.7817 -1.1247 -0.4266
 1376TIP3    H225620   2.861   5.834  12.602 -1.2035 -1.5716 -0.3800
 1377TIP3   OH225621   6.483   6.021  16.626  0.4841 -0.8125 -0.5627
 1377TIP3    H125622   6.484   6.044  16.533 -0.1461 -4.1238 -1.5322
 1377TIP3    H225623   6.451   6.099  16.670 -0.6096  0.3989 -3.2808
 1378TIP3   OH225624   6.549   5.859   2.236 -0.3321 -0.1033 -0.1314
 1378TIP3    H125625   6.471   5.907   2.267 -0.8463 -1.3397  0.5694
 1378TIP3    H225626   6.519   5.816   2.156 -0.5009 -0.8871  0.3441
 1379TIP3   OH225627   6.029   3.966  13.158 -0.3192  0.0967  0.1443
 1379TIP3    H125628   5.958   3.931  13.105 -0.3254 -0.8310  0.7382
 1379TIP3    H225629   5.995   4.048  13.194 -1.0604 -0.2975  0.3577
 1380TIP3   OH225630   4.683   0.203  15.493 -0.3156  0.2818  0.0782
 1380TIP3    H125631   4.715   0.258  15.565  0.4707 -1.1081  0.8206
 1380TIP3    H225632   4.762   0.159  15.460 -0.3434  2.0790 -2.7460
 1381TIP3   OH225633   6.597   1.365  11.163 -0.0421 -0.1417  0.2855
 1381TIP3    H125634   6.692   1.352  11.169 -0.0029 -0.2957 -0.5570
 1381TIP3    H225635   6.564   1.286  11.121 -0.5014  0.0674  0.2407
 1382TIP3   OH225636   6.337   2.315  11.632  0.8214 -0.1885  0.2609
 1382TIP3    H125637   6.325   2.363  11.550  2.0315  0.1236  0.2355
 1382TIP3    H225638   6.252   2.318  11.675  0.1471 -0.4358 -1.0195
 1383TIP3   OH225639   4.475   0.178  12.749 -0.0453  0.8251  0.2976
 1383TIP3    H125640   4.414   0.248  12.770  0.5290  1.1860  0.8151
 1383TIP3    H225641   4.559   0.222  12.736  0.4452  0.2061  1.1717
 1384TIP3   OH225642   6.421   1.071  11.617 -0.5437 -0.0093  0.7785
 1384TIP3    H125643   6.471   1.110  11.546 -0.0924 -1.7394  0.0982
 1384TIP3    H225644   6.343   1.126  11.625  0.6502  1.7580  0.7540
 1385TIP3   OH225645   1.812   5.496  15.033  0.1541  0.8357 -0.3298
 1385TIP3    H125646   1.817   5.405  15.061 -0.0216  0.4676 -1.4492
 1385TIP3    H225647   1.900   5.531  15.047  0.0807  0.6721  0.6250
 1386TIP3   OH225648   3.605   5.074   1.550  0.3583  0.3141  0.1120
 1386TIP3    H125649   3.513   5.055   1.533  0.4669 -0.8597  0.7237
 1386TIP3    H225650   3.642   4.990   1.578  1.4664  0.9080  0.4937
 1387TIP3   OH225651   5.553   1.135   0.836 -0.4608  0.4946  0.2292
 1387TIP3    H125652   5.530   1.090   0.755 -0.6511  1.7869 -0.4614
 1387TIP3    H225653   5.469   1.148   0.880 -0.2305 -1.5230  1.4037
 1388TIP3   OH225654   5.212   2.940  11.272 -0.7214 -0.3339  0.0111
 1388TIP3    H125655   5.228   3.032  11.249 -0.0026 -1.0478 -2.7335
 1388TIP3    H225656   5.284   2.917  11.330 -0.3789  0.5930 -0.0186
 1389TIP3   OH225657   0.618   5.908  16.554 -0.2260 -0.2132 -0.0296
 1389TIP3    H125658   0.559   5.983  16.552  0.8249  0.6324 -2.1220
 1389TIP3    H225659   0.655   5.904  16.466  2.2691 -1.1471  0.9734
 1390TIP3   OH225660   0.178   2.142  16.199  0.6930 -0.8500  0.3287
 1390TIP3    H125661   0.246   2.076  16.197 -2.0236 -3.8919 -0.9757
 1390TIP3    H225662   0.134   2.129  16.283  0.1492 -0.6720  0.0759
 1391TIP3   OH225663   4.398   1.913  12.131  0.6709 -1.1475 -1.1966
 1391TIP3    H125664   4.437   1.941  12.214 -1.9947 -0.7966  0.0493
 1391TIP3    H225665   4.387   1.818  12.141 -2.0918 -0.8062  0.1316
 1392TIP3   OH225666   1.279   6.443   0.224  0.1618  0.4180  0.3835
 1392TIP3    H125667   1.280   6.501   0.148 -1.0213 -0.6578 -0.4902
 1392TIP3    H225668   1.313   6.360   0.192 -0.2586 -0.0212  1.0424
 1393TIP3   OH225669   1.656   3.888   3.550 -0.0104 -0.4285  0.4784
 1393TIP3    H125670   1.581   3.947   3.541  1.0642  0.9790  0.3947
 1393TIP3    H225671   1.704   3.922   3.625  1.0591 -0.7020 -0.0639
 1394TIP3   OH225672   4.340   3.634  14.883 -0.5200  0.4743 -0.2415
 1394TIP3    H125673   4.415   3.575  14.894  0.2298  1.2962 -0.7171
 1394TIP3    H225674   4.292   3.628  14.965 -0.1892 -0.4215 -0.1009
 1395TIP3   OH225675   4.254   5.087   3.945  0.0920 -0.1405 -0.5427
 1395TIP3    H125676   4.338   5.072   3.988  0.3412  0.2936 -0.8575
 1395TIP3    H225677   4.190   5.088   4.015  0.5997  1.4638 -0.0458
 1396TIP3   OH225678   1.948   3.330  16.781 -0.0405  0.4017  0.2787
 1396TIP3    H125679   1.888   3.329  16.706  4.0555 -0.5294 -3.4254
 1396TIP3    H225680   1.968   3.237  16.797  1.3131  0.7153  0.5430
 1397TIP3   OH225681   0.054   1.846   4.849  0.1207 -0.0080 -0.2092
 1397TIP3    H125682   0.018   1.857   4.937  0.4895 -0.0695 -0.0521
 1397TIP3    H225683   0.013   1.917   4.798  1.0652  0.9822  0.3696
 1398TIP3   OH225684   4.041   2.036  13.688 -0.4647  0.2028 -0.0688
 1398TIP3    H125685   4.000   2.082  13.615 -1.2026 -2.0936 -1.2127
 1398TIP3    H225686   4.121   2.000  13.651 -0.8571 -1.0128  0.2156
 1399TIP3   OH225687   4.745   3.601   6.060 -0.2466 -0.3804 -0.3376
 1399TIP3    H125688   4.676   3.537   6.071 -0.4444 -0.3510 -1.3725
 1399TIP3    H225689   4.711   3.663   5.995 -0.4053  1.2566  1.2249
 1400TIP3   OH225690   3.178   6.436   4.436 -0.6622  0.1651  0.6054
 1400TIP3    H125691   3.174   6.474   4.524 -0.2916 -0.6522  0.9880
 1400TIP3    H225692   3.236   6.361   4.445  1.3662  1.4530 -0.8584
 1401TIP3   OH225693   4.500   2.422   2.889  0.0737 -0.2043  0.5941
 1401TIP3    H125694   4.493   2.483   2.815  1.7613  1.7122  1.9245
 1401TIP3    H225695   4.535   2.342   2.850 -1.9649 -0.3640 -1.1592
 1402TIP3   OH225696   0.856   6.147   6.529 -0.1901  0.2530  0.5769
 1402TIP3    H125697   0.815   6.226   6.494 -0.2233 -0.0631 -0.1215
 1402TIP3    H225698   0.793   6.114   6.593 -0.2908  0.6510  0.6852
 1403TIP3   OH225699   1.449   6.182   3.281  0.1325  0.2373 -0.1210
 1403TIP3    H125700   1.487   6.252   3.226  1.2984  0.4519  0.9155
 1403TIP3    H225701   1.386   6.227   3.337  1.5919  0.6669  1.2310
 1404TIP3   OH225702   4.157   1.231  14.565  0.4348  0.4664 -0.1373
 1404TIP3    H125703   4.068   1.264  14.554  0.3961  0.3991 -0.0301
 1404TIP3    H225704   4.160   1.153  14.510 -0.1465 -0.5833  1.2421
 1405TIP3   OH225705   3.853   0.357   1.429  0.0939  0.1152 -0.0564
 1405TIP3    H125706   3.845   0.376   1.522 -4.3282  1.4189 -0.4769
 1405TIP3    H225707   3.822   0.266   1.421 -0.0799  0.1943 -0.2936
 1406TIP3   OH225708   5.771   0.519  15.057  0.4349  0.3942  0.3954
 1406TIP3    H125709   5.825   0.580  15.108 -0.7346  2.2027 -0.4292
 1406TIP3    H225710   5.738   0.571  14.984 -0.2988 -1.3588 -0.5899
 1407TIP3   OH225711   3.941   2.231  16.004 -0.0801  0.2134  0.1657
 1407TIP3    H125712   3.974   2.185  15.927 -0.6903 -0.1585  0.1246
 1407TIP3    H225713   3.846   2.217  16.002 -0.4655  2.4328 -0.5133
 1408TIP3   OH225714   1.271   6.681  10.933 -0.0319  0.4750 -0.6660
 1408TIP3    H125715   1.329   6.701  10.859  1.7613 -1.8722 -0.0159
 1408TIP3    H225716   1.237   6.594  10.914 -1.3310  0.7521  0.2455
 1409TIP3   OH225717   0.714   5.020  16.421 -0.2831  0.5083  0.1051
 1409TIP3    H125718   0.763   5.082  16.367  0.6045 -0.9925 -0.9016
 1409TIP3    H225719   0.624   5.053  16.419 -0.0041  1.2780 -1.1348
 1410TIP3   OH225720   2.762   2.546  16.572  0.3618 -0.6391  0.2393
 1410TIP3    H125721   2.835   2.602  16.544  0.7315  0.4323  3.0338
 1410TIP3    H225722   2.805   2.472  16.615 -0.1688 -0.3276  1.3272
 1411TIP3   OH225723   4.041   0.072  11.590 -0.2296  0.2318 -0.3901
 1411TIP3    H125724   4.071   0.059  11.501  1.2298  2.2366 -0.2690
 1411TIP3    H225725   3.953   0.110  11.580 -0.5858 -0.6844 -0.8976
 1412TIP3   OH225726   2.987   0.221  15.199  0.1239  0.1495  0.3311
 1412TIP3    H125727   3.036   0.247  15.277  0.3880 -0.1400  0.2648
 1412TIP3    H225728   2.912   0.171  15.231 -0.2762  0.8159  0.4487
 1413TIP3   OH225729   2.895   2.784  12.243  0.1417 -0.1788 -0.0954
 1413TIP3    H125730   2.904   2.864  12.191 -2.1014  0.0493 -0.2609
 1413TIP3    H225731   2.853   2.813  12.324  1.4222 -0.8815  0.8474
 1414TIP3   OH225732   4.545   1.653  14.005 -0.6001  0.0815  0.0022
 1414TIP3    H125733   4.598   1.574  14.014  0.3269  0.8946  2.4821
 1414TIP3    H225734   4.590   1.705  13.938  0.3041 -0.3493  0.2602
 1415TIP3   OH225735   4.334   3.104   2.776  0.5546  0.1903 -0.1466
 1415TIP3    H125736   4.256   3.053   2.753  0.2034  0.6888 -0.0753
 1415TIP3    H225737   4.405   3.039   2.778  0.2740 -0.1493 -0.8827
 1416TIP3   OH225738   5.121   4.543   1.848  0.1162 -0.2075  0.0318
 1416TIP3    H125739   5.044   4.577   1.895 -0.3332 -0.9177 -0.1687
 1416TIP3    H225740   5.134   4.456   1.886  0.2839 -0.4384 -0.5531
 1417TIP3   OH225741   4.289   5.802   2.232  0.0265  0.4028 -0.0700
 1417TIP3    H125742   4.278   5.807   2.326  0.5073  0.6791 -0.0263
 1417TIP3    H225743   4.200   5.790   2.198 -0.0158 -1.1499  0.5026
 1418TIP3   OH225744   4.377   5.033  11.986 -0.0477 -0.1080  0.0149
 1418TIP3    H125745   4.345   5.052  11.898 -0.8303 -2.8097 -0.3902
 1418TIP3    H225746   4.402   4.941  11.983  0.1000 -0.2272  2.5642
 1419TIP3   OH225747   2.955   1.829   4.509  0.1270 -0.3337 -0.3349
 1419TIP3    H125748   2.923   1.917   4.488  1.5399 -0.2201 -2.2321
 1419TIP3    H225749   2.988   1.794   4.426  3.4735 -0.9807  1.0981
 1420TIP3   OH225750   2.589   1.315   4.395  0.0117 -0.3506  0.3280
 1420TIP3    H125751   2.647   1.267   4.455 -0.9232 -2.2014 -0.1583
 1420TIP3    H225752   2.624   1.296   4.308 -1.3292 -1.5996  0.0196
 1421TIP3   OH225753   2.307   4.392  17.176  0.4016  0.2421  0.3789
 1421TIP3    H125754   2.254   4.405  17.097 -0.8206  1.3726  1.3237
 1421TIP3    H225755   2.373   4.328  17.151 -0.6157 -0.2268 -1.2451
 1422TIP3   OH225756   1.103   1.952   2.838 -0.1118 -0.0030 -0.7572
 1422TIP3    H125757   1.026   2.009   2.842  0.7252  1.0927  0.3870
 1422TIP3    H225758   1.177   2.010   2.857  0.8057 -1.4048  0.1089
 1423TIP3   OH225759   2.136   0.190   0.459  0.0951 -0.1564  0.0245
 1423TIP3    H125760   2.141   0.202   0.365  1.4721  0.6792  0.1771
 1423TIP3    H225761   2.167   0.100   0.473 -1.3458 -0.7402 -0.3961
 1424TIP3   OH225762   1.915   6.051  11.621 -0.7185 -0.5553 -0.3197
 1424TIP3    H125763   1.823   6.077  11.615 -0.2574  1.3408  0.0478
 1424TIP3    H225764   1.952   6.071  11.535 -0.7093 -1.6214 -0.5719
 1425TIP3   OH225765   3.464   0.026   3.771  0.1994  0.0930  0.4546
 1425TIP3    H125766   3.550   0.062   3.751 -0.1938  0.4492 -0.7064
 1425TIP3    H225767   3.453  -0.045   3.708 -0.7317  0.6579 -0.0406
 1426TIP3   OH225768   5.899   4.806   5.248  0.3295  0.3064  0.1481
 1426TIP3    H125769   5.899   4.830   5.340  0.5542  0.0595  0.2140
 1426TIP3    H225770   5.838   4.732   5.242 -0.4862  0.9809 -0.0806
 1427TIP3   OH225771   5.802   2.171   2.989  0.1604 -0.2361  0.0827
 1427TIP3    H125772   5.808   2.187   2.895  0.3040 -0.9543 -0.0358
 1427TIP3    H225773   5.737   2.234   3.020 -0.3084 -0.3718 -0.5975
 1428TIP3   OH225774   1.156   4.651   4.289  0.2113 -0.1132  0.0614
 1428TIP3    H125775   1.166   4.692   4.375  0.3153 -0.3327  0.1560
 1428TIP3    H225776   1.128   4.722   4.232 -4.0654 -0.6842  1.0746
 1429TIP3   OH225777   0.640   3.049  15.923  0.1243 -0.0640 -0.1247
 1429TIP3    H125778   0.623   3.079  16.013 -1.0006 -0.8884 -0.0502
 1429TIP3    H225779   0.555   3.053  15.880  0.7440  0.8046 -1.3234
 1430TIP3   OH225780   5.080   6.182  12.347  0.2205 -0.1844  0.4377
 1430TIP3    H125781   5.162   6.220  12.379 -0.0046 -0.3068  1.1933
 1430TIP3    H225782   5.040   6.251  12.295  0.3052  0.2521  0.9463
 1431TIP3   OH225783   2.411   2.517  12.923  0.0688 -0.4719 -0.1661
 1431TIP3    H125784   2.468   2.473  12.860 -0.9488 -2.4369  0.1956
 1431TIP3    H225785   2.373   2.590  12.875  2.2249  0.3790 -0.6436
 1432TIP3   OH225786   4.666   6.218   2.728 -0.2272 -0.0344 -0.9235
 1432TIP3    H125787   4.654   6.178   2.642  0.0937 -1.8954 -0.1525
 1432TIP3    H225788   4.698   6.147   2.784 -2.8563  0.3880  1.3683
 1433TIP3   OH225789   1.389   4.043  15.758  0.1625 -0.1124 -0.2223
 1433TIP3    H125790   1.357   4.029  15.847  0.4472 -0.9599 -0.2520
 1433TIP3    H225791   1.348   4.125  15.731 -0.7022 -0.3510  0.3317
 1434TIP3   OH225792   1.495   5.700   4.353  0.2169  0.1303 -0.0201
 1434TIP3    H125793   1.485   5.640   4.427 -0.7661  0.6997  0.3282
 1434TIP3    H225794   1.505   5.643   4.277  0.4084 -0.4657  0.4390
 1435TIP3   OH225795   4.174   3.577   2.998  0.1968 -0.0059  0.2715
 1435TIP3    H125796   4.226   3.651   3.031 -0.0789 -0.3319  1.4960
 1435TIP3    H225797   4.101   3.618   2.952  1.2931  0.4605 -1.1235
 1436TIP3   OH225798   3.299   0.902  10.644  0.4629  0.0224 -0.6756
 1436TIP3    H125799   3.326   0.868  10.729 -2.6011 -1.4218 -0.1666
 1436TIP3    H225800   3.275   0.993  10.661 -2.9148 -0.9879  0.8400
 1437TIP3   OH225801   1.804   0.617   2.838 -0.8825  0.3985  0.2942
 1437TIP3    H125802   1.888   0.650   2.807 -1.1579  0.8202 -0.0065
 1437TIP3    H225803   1.759   0.588   2.759 -0.4311 -1.2195  0.6023
 1438TIP3   OH225804   1.997   2.469  15.464 -0.1989 -0.1119 -0.3628
 1438TIP3    H125805   1.997   2.461  15.559 -3.0552  0.3145 -0.2602
 1438TIP3    H225806   1.962   2.556  15.447  1.0898  0.1713 -1.8467
 1439TIP3   OH225807   0.044   3.878   5.398 -0.6783  0.1097  0.4675
 1439TIP3    H125808   0.106   3.951   5.403  0.7369 -1.1153  1.5301
 1439TIP3    H225809   0.029   3.866   5.304  1.0762  0.1581  0.1373
 1440TIP3   OH225810   4.486   0.868   2.692  0.0440 -0.3824 -0.0936
 1440TIP3    H125811   4.546   0.832   2.628  2.4742 -0.0782  1.8656
 1440TIP3    H225812   4.518   0.957   2.709 -1.2901 -0.0020  0.6519
 1441TIP3   OH225813   6.178   5.885   3.908 -0.2523 -0.2115 -0.1730
 1441TIP3    H125814   6.110   5.825   3.877 -0.4465 -0.1474  0.1232
 1441TIP3    H225815   6.147   5.913   3.995  0.3220 -0.4518  0.1142
 1442TIP3   OH225816   2.881   5.401  11.219 -0.1535 -0.0663  0.3108
 1442TIP3    H125817   2.865   5.330  11.157  0.0750  0.1106  0.0475
 1442TIP3    H225818   2.894   5.357  11.303 -1.7152 -0.2374  0.4882
 1443TIP3   OH225819   6.565   6.315  12.938  0.3945  0.0415  0.2733
 1443TIP3    H125820   6.574   6.242  12.876 -0.1506 -0.2771  0.5607
 1443TIP3    H225821   6.486   6.294  12.988 -0.2629  1.2516 -0.2100
 1444TIP3   OH225822   4.423   0.528   1.495  0.7295 -0.4695  0.8447
 1444TIP3    H125823   4.389   0.602   1.443  3.2381 -0.1459 -0.5436
 1444TIP3    H225824   4.345   0.486   1.531 -0.9909  1.0102 -0.8814
 1445TIP3   OH225825   5.016   5.221  15.653 -0.1649 -1.0144  0.2701
 1445TIP3    H125826   4.985   5.291  15.711  1.7910  0.9784 -0.9035
 1445TIP3    H225827   4.980   5.243  15.567  1.4052 -0.6960 -0.3569
 1446TIP3   OH225828   5.570   3.160  16.630  0.1757 -0.0374  0.2336
 1446TIP3    H125829   5.545   3.084  16.683  0.6253  0.3566  1.0215
 1446TIP3    H225830   5.571   3.233  16.691 -1.1091  0.8000 -0.6818
 1447TIP3   OH225831   1.955   5.441   1.316  0.4503  0.7745  0.1965
 1447TIP3    H125832   2.021   5.455   1.249 -0.2885 -0.1490 -0.7761
 1447TIP3    H225833   1.910   5.525   1.325 -0.5964  0.4943 -1.8018
 1448TIP3   OH225834   0.549   6.406   5.532 -0.4493 -0.6972  0.8630
 1448TIP3    H125835   0.594   6.322   5.536 -1.0983 -1.0525  0.8774
 1448TIP3    H225836   0.491   6.406   5.609 -0.6034 -0.3262  0.7517
 1449TIP3   OH225837   2.560   2.535   2.452 -0.0439 -0.7561 -0.6212
 1449TIP3    H125838   2.630   2.481   2.416 -0.8048 -0.2653 -2.9690
 1449TIP3    H225839   2.605   2.599   2.507  1.1331 -1.7381 -0.3873
 1450TIP3   OH225840   5.321   5.077   5.373  0.4179  0.6252 -0.0037
 1450TIP3    H125841   5.330   4.983   5.382 -0.1383  0.6847  1.2961
 1450TIP3    H225842   5.408   5.107   5.343 -0.0701 -0.5323 -2.9357
 1451TIP3   OH225843   5.891   0.505   0.855  0.3804 -0.2625  0.3848
 1451TIP3    H125844   5.938   0.586   0.836 -0.9557  0.4858  0.1128
 1451TIP3    H225845   5.852   0.479   0.771 -2.0866  0.7695  1.1087
 1452TIP3   OH225846   3.184   3.247  13.029  0.1720  0.3866 -0.5331
 1452TIP3    H125847   3.096   3.266  13.061  0.5680  0.6999  0.4355
 1452TIP3    H225848   3.172   3.212  12.941 -0.8166  1.7614 -0.9591
 1453TIP3   OH225849   0.832   3.846   0.653 -0.2214 -0.3099  0.5663
 1453TIP3    H125850   0.818   3.815   0.742 -0.2844  1.3717  1.1718
 1453TIP3    H225851   0.889   3.922   0.662  1.1652 -1.0795 -0.9971
 1454TIP3   OH225852   5.341   3.362  16.702  0.1129 -0.1655  0.2211
 1454TIP3    H125853   5.253   3.400  16.699  1.0473  2.1245 -1.8953
 1454TIP3    H225854   5.398   3.431  16.669  2.7611 -1.5634  1.5247
 1455TIP3   OH225855   2.478   6.805   5.020  0.4885 -0.0284 -0.2274
 1455TIP3    H125856   2.564   6.805   4.979  1.5909 -1.0722  1.9456
 1455TIP3    H225857   2.489   6.756   5.101 -2.1575 -0.1747  0.1473
 1456TIP3   OH225858   5.306   6.154  11.689 -0.6939 -0.1390  0.2122
 1456TIP3    H125859   5.279   6.063  11.677  0.6744 -0.8868  2.1432
 1456TIP3    H225860   5.384   6.163  11.634 -0.5592 -0.3042  0.3708
 1457TIP3   OH225861   5.686   1.401  13.019  0.3521 -0.0778  0.3068
 1457TIP3    H125862   5.758   1.439  13.069 -0.6585  2.9524 -0.3063
 1457TIP3    H225863   5.728   1.361  12.943  1.5948 -1.5210  1.6963
 1458TIP3   OH225864   5.913   6.206  11.585  0.3542 -0.5637  0.3520
 1458TIP3    H125865   5.853   6.262  11.536  0.6361 -0.5254  0.0493
 1458TIP3    H225866   5.856   6.150  11.638  0.0830  0.9385  1.7144
 1459TIP3   OH225867   2.273   5.033   5.557  0.0207  0.7607 -0.0831
 1459TIP3    H125868   2.250   5.042   5.649 -0.2202  1.9033 -0.2340
 1459TIP3    H225869   2.190   5.023   5.511  0.1878 -0.7816 -0.1094
 1460TIP3   OH225870   5.422   4.027  15.144  0.0312  0.5109 -0.2663
 1460TIP3    H125871   5.379   4.037  15.059 -0.5052  2.1529  0.1594
 1460TIP3    H225872   5.362   4.068  15.206 -0.1695 -1.7268  1.1260
 1461TIP3   OH225873   3.773   2.013   3.660  0.5927  0.4354 -0.2282
 1461TIP3    H125874   3.862   1.980   3.673  0.2795 -0.8302 -1.0385
 1461TIP3    H225875   3.750   2.054   3.743  1.7919  0.4478  0.1192
 1462TIP3   OH225876   2.097   5.769   3.631 -0.3518 -0.4304  0.2338
 1462TIP3    H125877   2.128   5.855   3.659  0.3960 -0.4179 -0.6101
 1462TIP3    H225878   2.115   5.711   3.706 -2.0998  0.3902  1.3387
 1463TIP3   OH225879   3.276   1.766   6.382  0.0490  0.4705 -0.1781
 1463TIP3    H125880   3.262   1.861   6.386  0.6659  0.6444 -1.4574
 1463TIP3    H225881   3.200   1.729   6.428 -0.4003  1.5697  0.0131
 1464TIP3   OH225882   3.858   4.149   6.155 -0.9619 -0.1556 -0.7611
 1464TIP3    H125883   3.827   4.138   6.065 -1.6105  0.0674 -0.5760
 1464TIP3    H225884   3.778   4.163   6.206 -0.6791 -1.2026 -0.0025
 1465TIP3   OH225885   4.747   3.752  13.999  0.2929 -0.2136  0.2009
 1465TIP3    H125886   4.785   3.725  13.916  0.2203 -0.8851  0.3799
 1465TIP3    H225887   4.822   3.762  14.058  0.5307  1.9348 -0.3656
 1466TIP3   OH225888   0.296   6.597  12.553  0.1070  0.3061 -0.7684
 1466TIP3    H125889   0.232   6.656  12.593  1.2796  0.2411  1.3384
 1466TIP3    H225890   0.333   6.548  12.626  2.9164  0.6906 -1.7985
 1467TIP3   OH225891   1.218   3.110  14.634 -0.4332 -0.2135  0.0050
 1467TIP3    H125892   1.199   3.017  14.646 -1.2463  0.0674  1.0257
 1467TIP3    H225893   1.135   3.154  14.650 -0.0804  0.6994 -0.5493
 1468TIP3   OH225894   5.761   3.890   3.697  0.2632  0.3846 -0.0963
 1468TIP3    H125895   5.713   3.852   3.770  2.0918  0.5693  1.2568
 1468TIP3    H225896   5.703   3.877   3.621 -1.5599 -0.0412  1.3036
 1469TIP3   OH225897   0.296   4.982   3.712  0.3922  0.2106  0.3415
 1469TIP3    H125898   0.265   4.970   3.801  2.6411  1.9475  1.4560
 1469TIP3    H225899   0.296   5.077   3.698 -0.8979 -0.0356 -1.9448
 1470TIP3   OH225900   3.714   6.301  12.690 -0.0538  0.1313  0.0067
 1470TIP3    H125901   3.691   6.282  12.782 -0.9833  0.7528 -0.0839
 1470TIP3    H225902   3.740   6.393  12.690  0.2466  0.0497 -0.3093
 1471TIP3   OH225903   6.017   3.941   2.368 -0.1625 -0.4890 -0.5077
 1471TIP3    H125904   6.027   3.846   2.364  0.0800 -0.5280  0.6152
 1471TIP3    H225905   5.965   3.956   2.447 -0.1695  0.3124 -0.6598
 1472TIP3   OH225906   0.797   1.288  14.900 -0.1985  0.1220 -0.1466
 1472TIP3    H125907   0.827   1.197  14.908  0.7227  0.3172 -1.1253
 1472TIP3    H225908   0.729   1.285  14.834 -0.8038  0.0221  0.4675
 1473TIP3   OH225909   1.530   2.745  15.337 -0.0156 -0.2411  0.2325
 1473TIP3    H125910   1.440   2.747  15.371 -1.2559 -0.0314 -2.7540
 1473TIP3    H225911   1.543   2.654  15.308  0.1043  0.0870 -0.7916
 1474TIP3   OH225912   0.463   6.256  16.232  0.5072 -0.4420  0.0152
 1474TIP3    H125913   0.412   6.337  16.235  1.5020  0.2090 -0.1912
 1474TIP3    H225914   0.403   6.191  16.195  0.4553  0.8041 -2.2975
 1475TIP3   OH225915   6.167   2.739   1.079  0.8201  0.1872 -0.7092
 1475TIP3    H125916   6.072   2.725   1.077  0.6266  1.3090 -0.4313
 1475TIP3    H225917   6.199   2.672   1.140  0.0748  0.4134 -0.0424
 1476TIP3   OH225918   6.333   6.100   4.282  0.4706 -0.5876  0.0331
 1476TIP3    H125919   6.414   6.075   4.326 -0.0896 -0.1850  1.3479
 1476TIP3    H225920   6.286   6.153   4.346 -0.7311 -0.6176 -0.7863
 1477TIP3   OH225921   4.325   3.548  16.202  0.2374  0.4430  0.0055
 1477TIP3    H125922   4.375   3.578  16.126 -0.9297 -0.1026 -1.0225
 1477TIP3    H225923   4.349   3.456  16.212 -1.1253 -0.0504 -1.0095
 1478TIP3   OH225924   0.263   5.331  14.727  0.0360 -0.2753 -0.3834
 1478TIP3    H125925   0.306   5.288  14.801 -0.9951 -1.1696 -0.2723
 1478TIP3    H225926   0.245   5.420  14.758  1.2745 -0.0492 -0.2428
 1479TIP3   OH225927   0.268   3.839   1.989  0.3456 -0.7181 -0.1739
 1479TIP3    H125928   0.245   3.928   2.014 -0.2728 -0.7516 -0.5937
 1479TIP3    H225929   0.217   3.783   2.047  0.9329 -0.8110  0.2688
 1480TIP3   OH225930   1.305   4.726   3.485 -0.2564  0.1150  0.4406
 1480TIP3    H125931   1.299   4.676   3.404 -2.3878  1.8586 -0.5965
 1480TIP3    H225932   1.270   4.668   3.552 -2.7703  0.1483 -0.7377
 1481TIP3   OH225933   4.420   5.962   2.058 -0.1981  0.9389  0.1804
 1481TIP3    H125934   4.378   5.908   2.126 -1.4547  0.6284 -0.8082
 1481TIP3    H225935   4.508   5.979   2.092  0.8486 -2.9878 -0.1119
 1482TIP3   OH225936   6.476   5.350  16.567  0.9275  0.7222  0.2303
 1482TIP3    H125937   6.410   5.418  16.582 -1.7497 -1.4368 -0.8289
 1482TIP3    H225938   6.457   5.284  16.633  1.9768 -0.0162 -0.1804
 1483TIP3   OH225939   0.966   6.838  13.211  0.3811  0.6070  0.2675
 1483TIP3    H125940   0.946   6.884  13.130  0.6954  1.4737  0.6688
 1483TIP3    H225941   1.051   6.797  13.196  1.3155  2.2664  0.7462
 1484TIP3   OH225942   4.648   2.839   6.375  0.0740  0.7063 -0.0571
 1484TIP3    H125943   4.711   2.910   6.389  0.5757  0.0611  1.0282
 1484TIP3    H225944   4.572   2.863   6.427  1.4316 -1.0297  3.0107
 1485TIP3   OH225945   4.565   0.878  12.646  0.4029  0.7912 -0.6502
 1485TIP3    H125946   4.565   0.882  12.550  2.3044  0.3790 -0.7164
 1485TIP3    H225947   4.490   0.930  12.673 -1.1250 -0.3843 -2.3903
 1486TIP3   OH225948   1.135   1.881   3.981 -0.6918 -0.0739  0.0355
 1486TIP3    H125949   1.112   1.818   3.913  1.3569 -3.0003  1.8154
 1486TIP3    H225950   1.221   1.915   3.955 -1.1336  0.9383 -0.1681
 1487TIP3   OH225951   2.036   4.852  11.136 -0.1149  0.2162  0.1218
 1487TIP3    H125952   2.066   4.943  11.130  2.2692 -0.4414  0.8377
 1487TIP3    H225953   2.012   4.830  11.046  1.9833  0.7635 -0.6423
 1488TIP3   OH225954   3.486   3.147  15.266  0.0243 -0.6506 -0.2505
 1488TIP3    H125955   3.524   3.227  15.302  0.1358 -1.0275  0.4868
 1488TIP3    H225956   3.526   3.138  15.180 -1.9399  1.4993 -1.5045
 1489TIP3   OH225957   0.638   2.956  16.931  0.2665 -0.2270 -0.0364
 1489TIP3    H125958   0.709   3.001  16.886 -1.5202  0.7704 -1.9806
 1489TIP3    H225959   0.585   3.025  16.970  0.5958 -0.9828  1.9082
 1490TIP3   OH225960   4.614   0.824  16.351  0.3118  0.8351 -0.0677
 1490TIP3    H125961   4.546   0.859  16.410 -1.3807  0.0234 -1.4497
 1490TIP3    H225962   4.638   0.740  16.390 -0.5166  0.4813 -0.2973
 1491TIP3   OH225963   3.547   1.847  16.488 -0.1881  0.7215  0.0883
 1491TIP3    H125964   3.550   1.940  16.470  1.7379  0.9507  1.3320
 1491TIP3    H225965   3.628   1.828  16.535 -0.2778 -1.6813 -0.5653
 1492TIP3   OH225966   5.193   2.298  11.358  0.8999 -0.3180 -0.7523
 1492TIP3    H125967   5.251   2.304  11.434  1.2179 -0.3259 -0.9948
 1492TIP3    H225968   5.211   2.377  11.307  0.1313  0.0785 -0.4347
 1493TIP3   OH225969   4.001   3.401   4.824  0.3210 -0.7437 -0.4139
 1493TIP3    H125970   3.977   3.317   4.864 -2.1722  0.7439  1.4593
 1493TIP3    H225971   4.048   3.448   4.893 -0.2881  0.2408 -0.6482
 1494TIP3   OH225972   5.816   2.844  12.695  0.0723 -0.2217 -0.0613
 1494TIP3    H125973   5.777   2.922  12.733 -0.8558  0.5197 -2.3695
 1494TIP3    H225974   5.753   2.774  12.711 -1.1670  0.4680 -1.7103
 1495TIP3   OH225975   0.567   3.279  14.645  0.2916 -0.9642  0.8618
 1495TIP3    H125976   0.478   3.276  14.610  0.3203 -1.9550  0.8574
 1495TIP3    H225977   0.623   3.275  14.568  0.3480 -0.7796  0.8928
 1496TIP3   OH225978   0.300   4.037   6.154 -0.0970 -0.4424  0.6404
 1496TIP3    H125979   0.241   4.014   6.225  0.2874 -2.0319  0.4798
 1496TIP3    H225980   0.246   4.031   6.075  0.1284 -1.4173  0.5435
 1497TIP3   OH225981   2.939   3.627   3.246  0.3491  0.1959  0.0147
 1497TIP3    H125982   3.030   3.599   3.251  0.3096  0.2412  1.2046
 1497TIP3    H225983   2.938   3.694   3.178  1.3550  0.7438  0.5319
 1498TIP3   OH225984   0.188   5.651   0.402 -0.3873 -0.5152 -0.1489
 1498TIP3    H125985   0.217   5.575   0.352  1.5435  0.4798 -0.6497
 1498TIP3    H225986   0.129   5.698   0.342  0.4267 -0.3186 -0.8192
 1499TIP3   OH225987   6.500   6.714  16.361 -0.0108  0.5581 -0.1083
 1499TIP3    H125988   6.563   6.644  16.348  0.2121  0.6301  0.5421
 1499TIP3    H225989   6.430   6.696  16.298  0.7984  0.6594 -1.0758
 1500TIP3   OH225990   0.744   2.566   1.476 -0.0765  0.4079 -0.3625
 1500TIP3    H125991   0.715   2.475   1.474 -0.3614  0.4462  1.0665
 1500TIP3    H225992   0.664   2.617   1.460 -0.0964  0.4266 -0.2052
 1501TIP3   OH225993   4.075   1.013  15.090 -0.6101  0.5253  0.0246
 1501TIP3    H125994   4.032   1.041  15.171 -2.8332  0.7515 -1.1725
 1501TIP3    H225995   4.131   1.087  15.065 -0.1123  0.5610  1.1687
 1502TIP3   OH225996   0.252   2.774  13.970  0.0984  0.5154  0.1000
 1502TIP3    H125997   0.197   2.752  14.045  1.7920 -1.5264  0.8704
 1502TIP3    H225998   0.209   2.849  13.929 -1.4847  1.0013  2.4572
 1503TIP3   OH225999   5.131   2.781   4.104 -0.2757 -0.6030  0.0274
 1503TIP3    H126000   5.057   2.743   4.151  0.5095 -1.4562  0.6141
 1503TIP3    H226001   5.206   2.771   4.163  0.0874  1.3616 -0.0544
 1504TIP3   OH226002   3.175   2.951  10.588  0.1184 -0.3537 -0.5064
 1504TIP3    H126003   3.259   2.907  10.599 -0.0936 -0.4450  0.9481
 1504TIP3    H226004   3.124   2.892  10.532  1.0370 -0.2502 -1.4708
 1505TIP3   OH226005   1.355   3.192   1.536  0.1779 -0.9704  1.2118
 1505TIP3    H126006   1.429   3.171   1.593  0.8779  0.5356  0.9331
 1505TIP3    H226007   1.286   3.219   1.596  0.9010  0.5822  1.4092
 1506TIP3   OH226008   2.772   1.242   0.075  0.1876  0.5098 -0.4410
 1506TIP3    H126009   2.783   1.203   0.161  0.6342  2.0948  0.2625
 1506TIP3    H226010   2.860   1.243   0.038 -0.0964 -0.7071 -1.1736
 1507TIP3   OH226011   4.096   3.475   3.248  0.2092 -0.6157 -0.5318
 1507TIP3    H126012   4.191   3.483   3.251  0.1641 -0.3318  0.7567
 1507TIP3    H226013   4.078   3.435   3.163  1.5985 -2.1573 -0.1637
 1508TIP3   OH226014   2.884   1.058   2.773  0.2315  0.5001 -0.3633
 1508TIP3    H126015   2.923   1.011   2.699 -0.0003 -0.0444 -0.1484
 1508TIP3    H226016   2.874   0.991   2.841  1.5476  1.2500  0.6062
 1509TIP3   OH226017   2.641   5.088  11.900 -0.0887 -0.1838  0.1500
 1509TIP3    H126018   2.657   4.995  11.887 -0.8587 -0.2713 -0.2339
 1509TIP3    H226019   2.723   5.122  11.937  1.1210 -0.5308 -2.0499
 1510TIP3   OH226020   5.950   5.444  16.520 -0.2488 -0.1483  0.0831
 1510TIP3    H126021   5.881   5.507  16.539  0.2247  0.7009 -0.8750
 1510TIP3    H226022   5.970   5.458  16.427  0.0254 -1.5661 -0.0952
 1511TIP3   OH226023   6.344   5.948  12.435  0.4120 -0.1361 -0.2448
 1511TIP3    H126024   6.326   6.027  12.485 -0.7506 -1.0851  0.9170
 1511TIP3    H226025   6.274   5.944  12.370  1.2860  0.5121 -1.2526
 1512TIP3   OH226026   3.941   2.888  16.719  0.1480 -0.3997 -0.7838
 1512TIP3    H126027   3.867   2.884  16.659  0.3737 -2.2205 -0.9942
 1512TIP3    H226028   3.901   2.907  16.804 -0.3054  0.8839 -1.2632
 1513TIP3   OH226029   4.292   0.071  10.360  0.0590  0.1556 -0.5016
 1513TIP3    H126030   4.241   0.124  10.421 -1.6294 -1.0733 -0.7803
 1513TIP3    H226031   4.357   0.028  10.415  0.1748  0.9675  0.0257
 1514TIP3   OH226032   6.566   4.665   3.702 -0.1228  0.0297 -0.1691
 1514TIP3    H126033   6.529   4.677   3.790  0.2989  2.8856 -0.2734
 1514TIP3    H226034   6.501   4.702   3.643  1.0387  1.2609 -0.7213
 1515TIP3   OH226035   3.946   3.751   4.137  0.3739  0.0852  0.0265
 1515TIP3    H126036   3.884   3.712   4.200  1.1997  1.8674  2.0695
 1515TIP3    H226037   4.029   3.708   4.157  0.7852  1.1454  0.6686
 1516TIP3   OH226038   3.680   5.303   1.446 -0.0095 -0.7724 -0.4857
 1516TIP3    H126039   3.742   5.309   1.373  0.3050 -2.4162 -0.3970
 1516TIP3    H226040   3.679   5.210   1.469  0.1017 -0.2681  1.7850
 1517TIP3   OH226041   0.484   4.047  15.849 -0.1969  0.3506 -0.2167
 1517TIP3    H126042   0.509   3.956  15.864 -1.5422  0.1873  1.3996
 1517TIP3    H226043   0.425   4.068  15.922  1.4754  3.0930  0.4870
 1518TIP3   OH226044   5.992   6.218   6.083 -0.6159  0.2440 -0.4609
 1518TIP3    H126045   6.082   6.197   6.106 -0.3960  1.1688 -0.4224
 1518TIP3    H226046   6.000   6.293   6.024 -1.3878  0.8715  0.2048
 1519TIP3   OH226047   6.184   0.770  12.391  0.3461 -0.2871  0.2241
 1519TIP3    H126048   6.114   0.766  12.326 -1.2508  1.1933  1.7490
 1519TIP3    H226049   6.252   0.824  12.351  0.2275 -0.9259 -0.8813
 1520TIP3   OH226050   3.737   0.265  16.500 -0.8811 -0.3018 -0.0646
 1520TIP3    H126051   3.798   0.315  16.553  2.0449 -1.9833 -1.5637
 1520TIP3    H226052   3.701   0.199  16.559  2.9101 -2.6523 -0.0672
 1521TIP3   OH226053   1.628   5.580  13.056 -0.1644  0.2171 -0.5718
 1521TIP3    H126054   1.657   5.647  12.994 -1.0299  0.6233 -0.5505
 1521TIP3    H226055   1.674   5.501  13.030  1.7497  1.0490  0.0634
 1522TIP3   OH226056   2.392   6.257  11.179  0.2998 -0.1856  0.0663
 1522TIP3    H126057   2.484   6.236  11.163 -0.2085 -1.0083 -2.0994
 1522TIP3    H226058   2.347   6.172  11.175 -0.7473  0.3780 -0.5397
 1523TIP3   OH226059   5.508   4.206  14.180 -0.8156 -0.7754 -0.4909
 1523TIP3    H126060   5.471   4.130  14.135  0.2238 -1.3360 -0.4372
 1523TIP3    H226061   5.602   4.189  14.182 -0.2960  1.4582 -2.2290
 1524TIP3   OH226062   2.053   6.106  11.408 -0.1401  0.2270  0.6105
 1524TIP3    H126063   2.033   6.116  11.315 -0.1928 -3.2949  0.0984
 1524TIP3    H226064   2.143   6.073  11.410 -0.7468 -1.5542  1.5912
 1525TIP3   OH226065   1.500   1.949   5.942 -0.2909 -0.5578  0.5617
 1525TIP3    H126066   1.438   1.941   6.015 -1.3324  0.5889 -0.1640
 1525TIP3    H226067   1.506   1.860   5.907 -1.1502 -0.7869  0.9565
 1526TIP3   OH226068   6.527   3.744  15.678  0.0538 -0.1571  0.3648
 1526TIP3    H126069   6.569   3.740  15.592 -1.0104  0.4039 -0.1997
 1526TIP3    H226070   6.435   3.764  15.660 -0.4910 -1.3395  1.5680
 1527TIP3   OH226071   1.282   1.781  11.859 -0.2340 -0.6900 -0.4013
 1527TIP3    H126072   1.220   1.854  11.865  3.5667  2.8252  1.6451
 1527TIP3    H226073   1.289   1.763  11.766 -0.1527  2.9127 -1.2513
 1528TIP3   OH226074   5.151   6.697   3.349  0.1002  0.3330 -0.6672
 1528TIP3    H126075   5.159   6.723   3.258 -1.2213  0.6365 -0.7149
 1528TIP3    H226076   5.236   6.660   3.371 -0.2864 -2.0019 -2.7093
 1529TIP3   OH226077   3.898   3.383   2.298  0.6553 -0.2118 -0.9475
 1529TIP3    H126078   3.841   3.309   2.275 -0.8877  0.4252  0.5972
 1529TIP3    H226079   3.844   3.460   2.281  1.5705  0.4739 -0.7425
 1530TIP3   OH226080   2.354   2.667  16.263  0.2964  0.5585  0.3390
 1530TIP3    H126081   2.383   2.641  16.350  1.4722 -0.4934 -0.3265
 1530TIP3    H226082   2.397   2.751  16.247  1.1294  0.1321  0.2835
 1531TIP3   OH226083   3.077   6.737   1.722  0.4858 -0.3483  0.4766
 1531TIP3    H126084   3.160   6.705   1.684  0.2667  0.0417 -0.3586
 1531TIP3    H226085   3.028   6.658   1.741  0.8883 -0.5739  0.5895
 1532TIP3   OH226086   0.135   6.002   4.565 -1.1405 -0.1614  0.3055
 1532TIP3    H126087   0.105   6.076   4.619  0.6448 -0.9569  2.5560
 1532TIP3    H226088   0.227   5.991   4.589 -0.4427 -1.0580 -2.4629
 1533TIP3   OH226089   6.386   2.778  12.503 -0.3199  0.4318  0.4507
 1533TIP3    H126090   6.419   2.739  12.584  1.6892  0.7919 -0.1506
 1533TIP3    H226091   6.357   2.704  12.450 -0.3706  0.0942  0.9460
 1534TIP3   OH226092   4.684   2.364  13.185 -0.3118  0.0902 -0.0300
 1534TIP3    H126093   4.650   2.402  13.266  2.5862  1.7577  0.5682
 1534TIP3    H226094   4.777   2.348  13.204  0.3566  0.0762 -2.8644
 1535TIP3   OH226095   2.193   3.524   1.804 -0.3838 -0.3607 -0.4066
 1535TIP3    H126096   2.237   3.441   1.823 -1.4768 -0.8688  0.0387
 1535TIP3    H226097   2.133   3.503   1.733  0.1797  0.3515 -1.1014
 1536TIP3   OH226098   3.535   3.758  14.928 -0.0051  0.5100  0.0026
 1536TIP3    H126099   3.586   3.724  14.854  0.3965  0.5631  0.2489
 1536TIP3    H226100   3.445   3.758  14.897 -0.0279 -0.7914 -0.0077
 1537TIP3   OH226101   4.447   0.253  15.370  0.0431  0.5875 -0.1828
 1537TIP3    H126102   4.528   0.242  15.418  0.4282  1.0239 -0.7110
 1537TIP3    H226103   4.396   0.315  15.422 -0.1971 -0.1184  0.4347
 1538TIP3   OH226104   1.493   2.495  15.234 -0.0381 -0.1258  0.2047
 1538TIP3    H126105   1.578   2.466  15.203 -0.1112  0.8207 -0.9655
 1538TIP3    H226106   1.430   2.455  15.174 -0.2837  0.5446 -0.0006
 1539TIP3   OH226107   6.671   6.815   2.333  0.2477  0.8064  0.4559
 1539TIP3    H126108   6.710   6.728   2.341 -1.6529 -0.0658  0.6791
 1539TIP3    H226109   6.743   6.875   2.353  1.7509 -0.6722 -0.2725
 1540TIP3   OH226110   5.322   5.425   0.253  0.1478  0.2955 -0.2418
 1540TIP3    H126111   5.308   5.340   0.212  0.5222  0.4029 -0.6032
 1540TIP3    H226112   5.414   5.444   0.236  0.3351  0.3110  0.7148
 1541TIP3   OH226113   1.115   0.620  11.128 -0.0070 -0.3263  0.4259
 1541TIP3    H126114   1.035   0.635  11.078  1.0231 -2.3184 -1.9918
 1541TIP3    H226115   1.144   0.533  11.103  1.3868 -0.9081  3.5040
 1542TIP3   OH226116   0.644   4.036   1.457 -0.0768  0.4032  0.1156
 1542TIP3    H126117   0.691   3.981   1.520  0.1440  2.1123  1.5545
 1542TIP3    H226118   0.708   4.052   1.388 -0.1037 -0.9988 -0.2592
 1543TIP3   OH226119   2.806   1.927  12.720 -0.0796  0.8263 -0.2100
 1543TIP3    H126120   2.726   1.967  12.685 -0.4703 -1.6781 -2.4711
 1543TIP3    H226121   2.838   1.871  12.649  1.3791 -1.4940  2.1181
 1544TIP3   OH226122   0.500   5.274  11.761 -0.0050  0.3434 -0.4938
 1544TIP3    H126123   0.482   5.245  11.671  1.2556 -2.6121  0.0870
 1544TIP3    H226124   0.576   5.331  11.753  0.4116 -0.3005 -1.2795
 1545TIP3   OH226125   1.363   5.448  12.628 -0.6828  0.1048  0.0938
 1545TIP3    H126126   1.447   5.406  12.610 -0.9928 -0.6874  0.4806
 1545TIP3    H226127   1.366   5.470  12.721 -1.2557 -0.7414  0.3220
 1546TIP3   OH226128   4.283   4.846  12.355  0.0175  0.0102  0.3751
 1546TIP3    H126129   4.314   4.879  12.440  0.5825 -0.1565  0.2372
 1546TIP3    H226130   4.323   4.905  12.291  2.2492 -1.7555  0.0171
 1547TIP3   OH226131   3.147   2.346   1.324 -0.0756  0.5576 -0.6254
 1547TIP3    H126132   3.116   2.295   1.398  2.3211  0.9043  0.7353
 1547TIP3    H226133   3.071   2.396   1.295 -1.9355 -2.0136 -0.5850
 1548TIP3   OH226134   3.656   2.262   3.394 -0.2695  0.5532  0.2628
 1548TIP3    H126135   3.603   2.294   3.321 -0.6942 -0.7512 -0.0373
 1548TIP3    H226136   3.649   2.329   3.461  0.0694  1.7535 -0.8699
 1549TIP3   OH226137   0.611   1.291  15.431  0.0436  0.0924 -0.7657
 1549TIP3    H126138   0.556   1.302  15.353 -1.0211  0.5339  0.0339
 1549TIP3    H226139   0.571   1.347  15.497 -0.7624 -2.4352  0.9853
 1550TIP3   OH226140   4.275   2.936   3.720  0.0218 -0.0803  0.0194
 1550TIP3    H126141   4.364   2.901   3.722 -0.1493 -0.5142  1.1675
 1550TIP3    H226142   4.262   2.972   3.808 -1.2653 -0.8790  0.1812
 1551TIP3   OH226143   4.928   4.433   4.610 -0.2666 -0.0265 -0.0740
 1551TIP3    H126144   5.008   4.483   4.626 -1.4045  1.4715  1.2254
 1551TIP3    H226145   4.934   4.358   4.669  0.4479 -0.2613 -0.4341
 1552TIP3   OH226146   4.360   2.872   4.929 -0.2957 -0.4670 -0.1865
 1552TIP3    H126147   4.355   2.898   4.837  0.9467  1.3663  0.1950
 1552TIP3    H226148   4.454   2.876   4.949 -0.6670  0.9085  1.5805
 1553TIP3   OH226149   2.744   5.306   1.026  0.0148  0.0915 -0.6056
 1553TIP3    H126150   2.663   5.269   1.062  0.3396 -0.9475 -0.9190
 1553TIP3    H226151   2.731   5.401   1.033  0.3230  0.0291  2.8877
 1554TIP3   OH226152   2.148   3.434  13.713 -0.1720 -0.3630  0.3366
 1554TIP3    H126153   2.077   3.371  13.701 -0.4493 -0.2939  1.5246
 1554TIP3    H226154   2.228   3.382  13.706 -0.3832 -0.7301  0.6108
 1555TIP3   OH226155   1.431   2.757  12.740 -0.5612  0.3529 -0.3763
 1555TIP3    H126156   1.443   2.698  12.665  2.0107  0.6879 -0.3329
 1555TIP3    H226157   1.511   2.810  12.741 -1.1675  1.3225  1.7783
 1556TIP3   OH226158   4.718   1.719  15.881  0.1523 -0.0962 -0.3579
 1556TIP3    H126159   4.634   1.764  15.876 -0.0139 -0.4612 -1.0602
 1556TIP3    H226160   4.738   1.697  15.790  0.6642 -0.6273 -0.1222
 1557TIP3   OH226161   4.715   5.622   0.138  0.2583  0.1274  0.5299
 1557TIP3    H126162   4.780   5.691   0.133  1.3595 -0.9400 -0.9639
 1557TIP3    H226163   4.668   5.627   0.055 -0.5344 -0.0953  0.9531
 1558TIP3   OH226164   2.323   3.424  10.433 -0.8439 -0.6840 -0.1117
 1558TIP3    H126165   2.299   3.422  10.341 -2.2639 -0.8485  0.2421
 1558TIP3    H226166   2.363   3.338  10.449 -0.3183 -0.5383 -0.6378
 1559TIP3   OH226167   4.082   4.136   3.235 -0.1607  0.1891  0.6429
 1559TIP3    H126168   4.002   4.177   3.267 -0.0886 -1.2476  2.9045
 1559TIP3    H226169   4.116   4.089   3.311  2.8437  0.7553 -0.2221
 1560TIP3   OH226170   0.553   1.671  11.198  0.5308 -0.1663  0.3158
 1560TIP3    H126171   0.514   1.748  11.156  0.5357 -0.7249 -0.7314
 1560TIP3    H226172   0.487   1.643  11.262  0.3845  0.4993  0.4650
 1561TIP3   OH226173   3.629   5.139   4.335 -0.5168  0.3572  0.2054
 1561TIP3    H126174   3.534   5.146   4.327 -0.4315 -0.3565 -2.3341
 1561TIP3    H226175   3.651   5.058   4.291  1.3727  1.0101 -0.1579
 1562TIP3   OH226176   0.608   1.169  12.848  0.2506 -0.3014  0.3589
 1562TIP3    H126177   0.639   1.253  12.814  1.2679 -0.4244  0.9728
 1562TIP3    H226178   0.564   1.191  12.931  0.7039 -0.4012  0.6256
 1563TIP3   OH226179   3.847   5.265   4.407  1.0544  0.6632  0.1321
 1563TIP3    H126180   3.762   5.221   4.401  0.6258  1.4884 -0.0620
 1563TIP3    H226181   3.910   5.195   4.424  0.1220  0.2195  2.0285
 1564TIP3   OH226182   2.395   0.278  15.846 -0.0247 -0.3674  0.1110
 1564TIP3    H126183   2.489   0.272  15.834  0.4849  2.0459  1.9412
 1564TIP3    H226184   2.383   0.276  15.941 -1.5509  1.3765  0.0208
 1565TIP3   OH226185   3.918   1.167   4.427  0.4792  0.5512  0.1599
 1565TIP3    H126186   4.012   1.178   4.439  1.3694 -0.2815 -4.4161
 1565TIP3    H226187   3.903   1.073   4.434  0.3409  0.4875 -0.8937
 1566TIP3   OH226188   0.277   5.955   4.191 -0.2335 -0.0039  0.1667
 1566TIP3    H126189   0.241   6.008   4.262 -0.0116  0.6755 -0.2138
 1566TIP3    H226190   0.205   5.945   4.129  0.0544  0.8645 -0.3203
 1567TIP3   OH226191   2.920   6.715  12.724  0.6044 -0.3610 -0.0741
 1567TIP3    H126192   2.985   6.772  12.764  0.7546 -1.1516  0.8388
 1567TIP3    H226193   2.874   6.674  12.798 -0.2982 -0.5312 -0.7043
 1568TIP3   OH226194   4.008   0.967  16.616  0.0365 -0.1683 -0.1578
 1568TIP3    H126195   3.996   0.936  16.705 -0.2471 -1.4927 -0.6320
 1568TIP3    H226196   4.077   0.911  16.580 -0.2241 -0.0120 -0.9289
 1569TIP3   OH226197   2.238   2.845  15.811  0.2030 -0.3782  0.3507
 1569TIP3    H126198   2.247   2.859  15.716 -0.9561  3.5657  0.6163
 1569TIP3    H226199   2.144   2.832  15.823  0.4973 -2.1940  0.9151
 1570TIP3   OH226200   4.065   4.545  12.620  0.3653  0.4104 -0.2848
 1570TIP3    H126201   4.034   4.470  12.671 -1.7330  1.3872  0.0236
 1570TIP3    H226202   4.130   4.587  12.677 -2.0851  1.6053  1.8506
 1571TIP3   OH226203   5.637   6.103   2.269 -0.1191  0.2908 -0.1829
 1571TIP3    H126204   5.700   6.072   2.333  0.1344 -1.3758 -1.1876
 1571TIP3    H226205   5.581   6.027   2.252 -1.1410  1.1527 -0.8118
 1572TIP3   OH226206   1.666   5.775   1.807  0.3846 -0.1813 -0.3513
 1572TIP3    H126207   1.696   5.694   1.767  0.2599 -0.3770 -0.0560
 1572TIP3    H226208   1.619   5.821   1.737  0.1164 -0.5467 -0.4118
 1573TIP3   OH226209   4.696   1.185   6.510 -0.7158 -0.1131 -0.2653
 1573TIP3    H126210   4.771   1.161   6.564 -1.2611 -2.1776 -0.3414
 1573TIP3    H226211   4.654   1.102   6.489 -1.7161  0.8015 -2.1461
 1574TIP3   OH226212   2.728   4.253   5.542  0.2582 -0.1611  0.3201
 1574TIP3    H126213   2.700   4.326   5.597 -0.6527 -0.2889  0.0371
 1574TIP3    H226214   2.818   4.235   5.570  0.4766  1.0228  0.4419
 1575TIP3   OH226215   3.803   3.944  16.757 -0.0374  0.0386 -0.0086
 1575TIP3    H126216   3.858   4.014  16.722  1.2685 -1.3088 -0.7548
 1575TIP3    H226217   3.750   3.915  16.683 -1.7867  1.2616  0.6817
 1576TIP3   OH226218   6.822   3.478   2.358  0.3692 -0.3882  0.6613
 1576TIP3    H126219   6.758   3.504   2.424 -0.6320 -0.4163 -0.2769
 1576TIP3    H226220   6.789   3.395   2.323  0.7771 -0.2706 -0.0209
 1577TIP3   OH226221   3.506   3.960   4.899 -0.2333  0.0201  0.2589
 1577TIP3    H126222   3.441   4.023   4.931 -1.4815 -1.3216  0.4786
 1577TIP3    H226223   3.470   3.875   4.923  1.8063 -0.7603  0.6906
 1578TIP3   OH226224   0.620   4.908   2.490 -0.2997 -0.8234 -0.7221
 1578TIP3    H126225   0.667   4.959   2.424 -0.5584  0.5593  0.1163
 1578TIP3    H226226   0.596   4.972   2.557 -1.0793 -1.9755  0.1415
 1579TIP3   OH226227   5.153   1.564  14.325 -0.2141  0.1445 -0.2367
 1579TIP3    H126228   5.063   1.571  14.294 -0.5492 -0.2730  0.6193
 1579TIP3    H226229   5.145   1.542  14.418  0.7449 -2.3547 -0.6718
 1580TIP3   OH226230   2.779   0.048   3.136  0.2128  0.4772 -0.0999
 1580TIP3    H126231   2.852   0.053   3.197  0.2756 -1.1176 -0.0195
 1580TIP3    H226232   2.702   0.068   3.190  0.5623  2.3025 -0.2182
 1581TIP3   OH226233   5.030   4.007  16.369  0.5174  0.6918  0.8479
 1581TIP3    H126234   5.035   4.100  16.351  1.3081  0.6124  0.6248
 1581TIP3    H226235   5.103   3.969  16.321  1.6540  0.2538  2.7961
 1582TIP3   OH226236   5.326   4.604   0.792 -0.4407 -0.3016  0.8189
 1582TIP3    H126237   5.279   4.664   0.734  0.0767  0.5652  1.2656
 1582TIP3    H226238   5.409   4.648   0.809 -0.1649 -1.0205  1.3931
 1583TIP3   OH226239   4.249   5.237  10.908  0.3392 -0.1448  0.7235
 1583TIP3    H126240   4.221   5.293  10.836  0.3865  1.0132  1.5787
 1583TIP3    H226241   4.287   5.297  10.972 -0.7632 -0.9822  2.2295
 1584TIP3   OH226242   1.726   4.860   5.233  0.0791 -0.2766  0.5941
 1584TIP3    H126243   1.750   4.910   5.155  1.8397  1.4288  2.1099
 1584TIP3    H226244   1.791   4.789   5.237 -0.2095 -0.5598  0.3698
 1585TIP3   OH226245   6.328   5.822   2.640  0.4212 -0.1992  0.5017
 1585TIP3    H126246   6.318   5.847   2.732 -0.7179 -0.2076  0.3959
 1585TIP3    H226247   6.421   5.804   2.630  1.5230  4.4192  0.4498
 1586TIP3   OH226248   1.265   4.862  16.595  0.0608  0.2027  0.8512
 1586TIP3    H126249   1.214   4.841  16.674 -1.7267  1.4214  0.0886
 1586TIP3    H226250   1.242   4.953  16.575  1.1850  0.2096 -0.5631
 1587TIP3   OH226251   0.092   0.661  14.345  0.3897  0.5489  0.3046
 1587TIP3    H126252   0.068   0.741  14.392  0.1168 -0.0664  1.2360
 1587TIP3    H226253   0.059   0.675  14.256 -1.3029  0.7226  0.9281
 1588TIP3   OH226254   0.697   5.436  12.652  0.2809  0.2385  0.1536
 1588TIP3    H126255   0.708   5.482  12.735  2.8384 -1.3193  0.7868
 1588TIP3    H226256   0.780   5.449  12.607  0.3269 -2.0576 -0.5101
 1589TIP3   OH226257   2.706   5.062  16.922 -0.2159  0.1748  0.5018
 1589TIP3    H126258   2.637   5.115  16.959 -1.2829 -0.7667 -0.0764
 1589TIP3    H226259   2.736   5.111  16.846 -0.1520  0.6462  0.8277
 1590TIP3   OH226260   3.141   6.727  16.813 -0.0404  0.2559  0.2952
 1590TIP3    H126261   3.066   6.749  16.759 -0.4457 -1.3306  0.1682
 1590TIP3    H226262   3.190   6.663  16.762  0.9741  0.6819  0.7117
 1591TIP3   OH226263   6.664   4.899   2.532  0.1856 -0.2030  0.6646
 1591TIP3    H126264   6.688   4.814   2.498  0.1174 -0.3255  0.9170
 1591TIP3    H226265   6.589   4.926   2.480  1.3434  0.5461 -0.6842
 1592TIP3   OH226266   5.673   2.922  15.581  0.1784 -0.2259  0.0238
 1592TIP3    H126267   5.763   2.954  15.571  0.2370 -0.8879 -2.3207
 1592TIP3    H226268   5.682   2.827  15.573 -0.7605 -0.2731 -0.4843
 1593TIP3   OH226269   0.633   4.065  14.918  0.1354 -0.3821 -0.9052
 1593TIP3    H126270   0.585   4.143  14.889 -0.5280 -0.7725 -0.8885
 1593TIP3    H226271   0.721   4.097  14.935 -0.3180  0.5323 -0.1442
 1594TIP3   OH226272   3.221   6.652   1.162  0.5920 -0.3293 -0.2213
 1594TIP3    H126273   3.146   6.605   1.198 -0.0586  2.1043  1.8404
 1594TIP3    H226274   3.184   6.713   1.098  0.9530  0.0043 -0.1173
 1595TIP3   OH226275   5.081   4.143   2.308  0.2789 -0.3639  0.4162
 1595TIP3    H126276   4.998   4.184   2.331 -1.1943 -2.6455 -0.4984
 1595TIP3    H226277   5.102   4.087   2.383  1.6420  1.0360  1.1378
 1596TIP3   OH226278   4.550   0.878   2.366 -0.3369  0.0987  0.1814
 1596TIP3    H126279   4.640   0.905   2.348  0.0017 -1.2389 -0.2431
 1596TIP3    H226280   4.557   0.787   2.394 -1.4937  0.1952  0.8585
 1597TIP3   OH226281   4.750   0.453   5.482 -0.3146  0.5188 -0.0358
 1597TIP3    H126282   4.843   0.452   5.505  0.0157 -0.4710 -1.3213
 1597TIP3    H226283   4.730   0.545   5.465  0.0652  0.9285  1.5604
 1598TIP3   OH226284   2.531   6.155   3.285  0.3555  0.2624 -0.6702
 1598TIP3    H126285   2.619   6.188   3.298  0.7249 -0.9353 -0.0088
 1598TIP3    H226286   2.481   6.188   3.360  0.2288  0.9101 -1.0265
 1599TIP3   OH226287   5.105   3.260  17.193 -0.4405  0.1754  0.5848
 1599TIP3    H126288   5.032   3.322  17.195 -1.2034 -0.6155 -1.1418
 1599TIP3    H226289   5.067   3.178  17.164  0.9851 -0.4955  0.5055
 1600TIP3   OH226290   2.190   0.733  10.802 -0.8638 -0.5173  0.2206
 1600TIP3    H126291   2.104   0.745  10.843 -0.4307  1.0983  0.7457
 1600TIP3    H226292   2.242   0.806  10.835  1.3100 -2.4568  1.3753
 1601TIP3   OH226293   3.929   5.111   0.149  0.1337 -0.4441  0.0847
 1601TIP3    H126294   3.982   5.032   0.153 -2.4651 -2.2816  0.5959
 1601TIP3    H226295   3.846   5.087   0.191 -2.0127  1.5350 -2.6447
 1602TIP3   OH226296   2.889   1.623   2.204 -0.1236  0.3192  0.3089
 1602TIP3    H126297   2.958   1.557   2.197  0.7921  1.2190  0.4382
 1602TIP3    H226298   2.871   1.628   2.298  0.1199  0.5433  0.3470
 1603TIP3   OH226299   5.760   1.719  15.666 -0.2649  0.0478  0.7280
 1603TIP3    H126300   5.683   1.675  15.703  0.3096 -2.4023 -0.7449
 1603TIP3    H226301   5.730   1.755  15.583 -0.0288 -0.2652  0.5017
 1604TIP3   OH226302   2.625   4.569   6.536  0.4406 -0.7178 -0.0069
 1604TIP3    H126303   2.646   4.604   6.623 -0.2838 -0.9275  0.2561
 1604TIP3    H226304   2.663   4.481   6.535 -0.0670 -0.9414  0.3163
 1605TIP3   OH226305   4.000   4.899  16.551 -0.3960 -0.5309 -0.0627
 1605TIP3    H126306   4.087   4.869  16.524  0.6024  1.1173  1.1035
 1605TIP3    H226307   3.985   4.856  16.635 -1.0393 -1.3562 -0.5903
 1606TIP3   OH226308   1.821   1.579   1.024 -0.0571 -0.2786  0.5277
 1606TIP3    H126309   1.739   1.543   0.992  0.2872 -3.4638  2.7693
 1606TIP3    H226310   1.828   1.549   1.114  2.1733  2.4787  1.4396
 1607TIP3   OH226311   3.145   4.170  14.538  0.1991 -0.1075 -0.3980
 1607TIP3    H126312   3.063   4.218  14.528 -0.3806 -1.1189 -0.6635
 1607TIP3    H226313   3.212   4.229  14.504 -0.3631  0.8729  0.1502
 1608TIP3   OH226314   0.234   4.750  13.610 -0.2135  0.2110  0.1161
 1608TIP3    H126315   0.268   4.778  13.525  0.0808  1.6356  0.6763
 1608TIP3    H226316   0.219   4.656  13.600  0.6360  0.1910 -1.2329
 1609TIP3   OH226317   3.638   2.483   5.416 -0.3854 -0.0213  0.2986
 1609TIP3    H126318   3.684   2.545   5.472  0.4207 -0.4172  0.0791
 1609TIP3    H226319   3.545   2.498   5.436 -0.2547  1.6504 -0.1635
 1610TIP3   OH226320   0.035   1.018   4.885  0.5446 -0.2965  0.1694
 1610TIP3    H126321   0.011   1.011   4.792 -0.5070 -0.2652  0.4293
 1610TIP3    H226322   0.097   1.091   4.888  0.2545 -0.0156 -0.4426
 1611TIP3   OH226323   1.049   6.017   0.683 -0.3446  0.1123 -0.2220
 1611TIP3    H126324   1.070   6.102   0.645 -1.2689  0.3703 -0.1888
 1611TIP3    H226325   1.119   5.959   0.653 -1.5982  0.0066 -3.4120
 1612TIP3   OH226326   1.822   0.035   5.756  0.1621 -0.4022  0.0533
 1612TIP3    H126327   1.754   0.022   5.690  1.1387 -1.1300 -0.8466
 1612TIP3    H226328   1.896  -0.018   5.726  2.4197  2.9394 -0.8398
 1613TIP3   OH226329   0.048   2.883   6.356  0.4820  0.5086  0.1911
 1613TIP3    H126330   0.090   2.969   6.346  0.1125  0.4758 -2.2610
 1613TIP3    H226331  -0.031   2.900   6.407  0.1433  1.7444 -0.7068
 1614TIP3   OH226332   1.302   5.880  12.023 -0.0685 -0.7771  0.1402
 1614TIP3    H126333   1.252   5.854  12.100 -0.6816 -1.1907 -0.3816
 1614TIP3    H226334   1.391   5.891  12.055 -0.0389 -2.2519  0.6707
 1615TIP3   OH226335   5.881   0.465  16.061  0.0013 -0.4268  0.3746
 1615TIP3    H126336   5.934   0.492  16.136  0.0978  0.8249 -0.1298
 1615TIP3    H226337   5.924   0.503  15.985 -2.1869  1.6087  0.0392
 1616TIP3   OH226338   1.409   5.974  12.352  0.0595 -0.8519 -0.4585
 1616TIP3    H126339   1.328   5.935  12.320  0.8988 -0.9037 -2.7753
 1616TIP3    H226340   1.477   5.914  12.322  1.2053  1.0804 -1.9550
 1617TIP3   OH226341   4.694   6.162  13.367  0.2937  0.9048  0.4072
 1617TIP3    H126342   4.703   6.257  13.373  0.6067  0.8729  0.5044
 1617TIP3    H226343   4.781   6.129  13.389  0.4388  0.6239 -0.5702
 1618TIP3   OH226344   1.552   0.644  16.032  0.4100  0.2305  0.2190
 1618TIP3    H126345   1.539   0.723  16.086 -0.1500 -0.6176  1.3792
 1618TIP3    H226346   1.475   0.642  15.975  0.8617  0.9805 -0.4394
 1619TIP3   OH226347   6.754   1.816  15.468 -0.0007  0.0543 -0.1018
 1619TIP3    H126348   6.688   1.830  15.536 -1.0051 -0.8812 -0.8325
 1619TIP3    H226349   6.803   1.739  15.497  0.5648  0.5498  0.2777
 1620TIP3   OH226350   6.237   6.229   0.328  0.4569  0.0683  0.3208
 1620TIP3    H126351   6.175   6.268   0.266  1.6947  0.7745 -0.5118
 1620TIP3    H226352   6.182   6.195   0.399 -0.9883 -0.4626 -0.9887
 1621TIP3   OH226353   0.869   4.849   5.994  0.1875  0.8774  0.3102
 1621TIP3    H126354   0.873   4.807   6.079  1.3771  0.4739  0.0701
 1621TIP3    H226355   0.921   4.929   6.004  1.2021  0.3078 -0.3120
 1622TIP3   OH226356   0.273   6.206   1.735 -0.6693 -0.6476 -0.2776
 1622TIP3    H126357   0.201   6.152   1.703 -1.0967 -1.0454  1.2616
 1622TIP3    H226358   0.231   6.268   1.795  0.0352  0.3697 -0.8113
 1623TIP3   OH226359   6.129   5.188  13.592 -1.0932  0.1377  0.6999
 1623TIP3    H126360   6.143   5.101  13.630 -1.1588  0.3554  1.2236
 1623TIP3    H226361   6.163   5.181  13.503 -0.1204 -0.1114  1.0804
 1624TIP3   OH226362   4.907   5.688  12.016  0.4294 -0.4215  0.2416
 1624TIP3    H126363   4.998   5.687  12.045  0.9736 -1.6669 -1.3175
 1624TIP3    H226364   4.888   5.597  11.995 -0.8215 -0.0121 -0.4874
 1625TIP3   OH226365   6.771   3.181   0.505  0.6468 -0.1782  0.1187
 1625TIP3    H126366   6.766   3.150   0.414 -0.2731 -1.9579  0.7391
 1625TIP3    H226367   6.826   3.117   0.549 -0.4683 -0.4247  1.2179
 1626TIP3   OH226368   3.999   2.560   1.273  0.6142 -0.3128  0.1737
 1626TIP3    H126369   3.998   2.654   1.289  2.4322 -0.3290  0.5618
 1626TIP3    H226370   3.934   2.525   1.333  1.3694  0.5062  1.5078
 1627TIP3   OH226371   0.343   1.695   4.246  0.0107  0.1002  0.1213
 1627TIP3    H126372   0.339   1.712   4.152  1.9683  1.2844  0.1917
 1627TIP3    H226373   0.292   1.766   4.285  0.0626  0.2118 -0.0123
 1628TIP3   OH226374   1.684   2.283   2.025 -0.0525  0.3744 -0.3389
 1628TIP3    H126375   1.650   2.200   2.056 -0.3365 -0.2871 -2.2766
 1628TIP3    H226376   1.706   2.332   2.104 -2.7415 -0.3206  0.9413
 1629TIP3   OH226377   1.708   4.476   5.964 -0.6541  0.0054  0.4849
 1629TIP3    H126378   1.803   4.485   5.968 -0.5369 -0.5689 -0.5891
 1629TIP3    H226379   1.680   4.475   6.056  0.3429  0.4176  0.8069
 1630TIP3   OH226380   4.893   1.148   3.620  0.1326  0.3364  0.3270
 1630TIP3    H126381   4.869   1.218   3.561  0.8610  2.3898  2.3161
 1630TIP3    H226382   4.819   1.087   3.616 -0.1578  0.7527 -2.0522
 1631TIP3   OH226383   5.161   4.318   1.974 -0.7660  0.6347  0.1871
 1631TIP3    H126384   5.078   4.308   2.021 -0.8224  0.2753  0.0135
 1631TIP3    H226385   5.171   4.236   1.925 -0.5863  0.9067 -0.2334
 1632TIP3   OH226386   3.124   2.266   4.446  0.4999 -0.1603 -0.0902
 1632TIP3    H126387   3.135   2.218   4.528 -0.5964 -1.9471 -0.9242
 1632TIP3    H226388   3.083   2.203   4.386  1.5780  0.9540 -2.1331
 1633TIP3   OH226389   5.847   1.927   0.955  0.2278 -0.2763 -0.9362
 1633TIP3    H126390   5.940   1.910   0.973  0.5300  1.4432 -0.7111
 1633TIP3    H226391   5.803   1.907   1.037  0.3217 -1.5312 -1.1756
 1634TIP3   OH226392   1.908   1.991   4.187  0.3770 -0.1047  0.3742
 1634TIP3    H126393   1.822   1.960   4.215 -0.9387  0.5653 -2.6059
 1634TIP3    H226394   1.940   1.922   4.129  0.4191  1.0478 -1.0141
 1635TIP3   OH226395   4.173   5.893   2.468 -0.0585  0.8935 -0.6962
 1635TIP3    H126396   4.165   5.969   2.410 -0.3378  1.1979 -0.2676
 1635TIP3    H226397   4.093   5.843   2.454 -1.0612  1.9751  0.8244
 1636TIP3   OH226398   1.759   0.355  15.331 -0.0291  0.3652 -0.2908
 1636TIP3    H126399   1.699   0.402  15.390  0.9870 -0.5434  1.5400
 1636TIP3    H226400   1.801   0.425  15.280 -1.7587  1.0914 -0.8179
 1637TIP3   OH226401   1.376   2.205   1.758 -0.0109 -0.0222 -0.3025
 1637TIP3    H126402   1.371   2.200   1.663 -0.1211  1.3392 -0.3801
 1637TIP3    H226403   1.401   2.295   1.777 -1.7197  0.2425  1.0008
 1638TIP3   OH226404   2.164   0.048   5.492 -0.1921 -0.0858 -0.6591
 1638TIP3    H126405   2.069   0.036   5.503 -0.2226 -0.6396 -1.4582
 1638TIP3    H226406   2.202  -0.034   5.521  0.2390  0.9029  1.7901
 1639TIP3   OH226407   4.084   1.372   1.221  0.3620  0.9339  0.5755
 1639TIP3    H126408   4.007   1.389   1.167  1.1031 -0.4042 -0.9894
 1639TIP3    H226409   4.156   1.361   1.159  1.2680 -0.6320  1.8110
 1640TIP3   OH226410   2.807   5.593  16.092  0.1066 -0.0185  0.0136
 1640TIP3    H126411   2.843   5.516  16.136 -0.4563  0.0773  0.6518
 1640TIP3    H226412   2.848   5.592  16.005 -0.2943 -1.3240 -0.1777
 1641TIP3   OH226413   0.198   5.610   1.629  0.1599  0.6152  0.6000
 1641TIP3    H126414   0.108   5.592   1.655  0.9191 -1.1107  2.3663
 1641TIP3    H226415   0.206   5.705   1.631 -1.7969  0.8527 -0.3913
 1642TIP3   OH226416   2.312   3.928  15.617  0.1523  0.2391  0.0045
 1642TIP3    H126417   2.320   3.944  15.523 -0.6203 -1.2012 -0.3328
 1642TIP3    H226418   2.225   3.963  15.640 -0.1911 -0.5385 -0.0867
 1643TIP3   OH226419   4.334   5.235   4.576  0.2977 -0.2809  0.3936
 1643TIP3    H126420   4.264   5.231   4.511  1.8357  3.9695 -1.9253
 1643TIP3    H226421   4.413   5.213   4.528  1.1729  0.1565  1.5856
 1644TIP3   OH226422   5.682   1.269  13.916  0.2328  0.4540  0.1245
 1644TIP3    H126423   5.662   1.250  14.008  1.1092  0.8516  0.4026
 1644TIP3    H226424   5.761   1.219  13.898  0.9339  1.5861  0.0363
 1645TIP3   OH226425   6.830   6.152   1.674 -0.0426 -0.4157  0.1254
 1645TIP3    H126426   6.835   6.191   1.587 -2.4328  1.1108  0.5729
 1645TIP3    H226427   6.752   6.096   1.672 -1.1342  0.9276  1.6599
 1646TIP3   OH226428   4.814   2.664   3.807  0.1621 -0.1063  0.1770
 1646TIP3    H126429   4.790   2.655   3.715 -0.5685  0.1941  0.3247
 1646TIP3    H226430   4.878   2.736   3.808  1.9046 -1.5973 -0.3449
 1647TIP3   OH226431   6.177   1.376  12.958  0.1743 -0.0708 -0.2230
 1647TIP3    H126432   6.197   1.349  13.047  0.5572 -1.8004 -0.7948
 1647TIP3    H226433   6.099   1.327  12.934 -0.7315  1.3840 -0.4178
 1648TIP3   OH226434   1.644   3.502   1.987 -0.0538  0.2238 -0.2021
 1648TIP3    H126435   1.551   3.501   2.007 -0.0647  4.2152  0.9319
 1648TIP3    H226436   1.649   3.504   1.892 -1.2376  0.9151 -0.2668
 1649TIP3   OH226437   6.528   3.201  11.705  0.0207 -0.1605  0.5691
 1649TIP3    H126438   6.613   3.158  11.694  2.0147  3.6880 -1.2560
 1649TIP3    H226439   6.550   3.291  11.730 -3.5964  0.8220  0.8054
 1650TIP3   OH226440   0.974   1.074  13.014 -0.3278 -0.3992  0.3083
 1650TIP3    H126441   1.016   0.998  12.973  1.0090  1.3983 -1.8590
 1650TIP3    H226442   1.024   1.087  13.095 -0.0513 -1.3180  0.3033
 1651TIP3   OH226443   4.861   4.742  15.714  0.2082  0.6421 -0.3032
 1651TIP3    H126444   4.831   4.723  15.625  0.9051  2.9824 -1.1121
 1651TIP3    H226445   4.925   4.675  15.733 -0.4781 -0.3175 -1.2677
 1652TIP3   OH226446   1.442   5.696   1.544 -0.4068  0.2038  0.2483
 1652TIP3    H126447   1.393   5.637   1.601  0.4793 -1.0613 -0.2588
 1652TIP3    H226448   1.406   5.680   1.457  0.2509 -0.0231  0.0181
 1653TIP3   OH226449   0.307   1.054  12.157 -0.0877  0.2118 -0.0257
 1653TIP3    H126450   0.235   1.090  12.104  1.2039  2.1871 -0.5572
 1653TIP3    H226451   0.269   1.044  12.244 -1.5941 -0.8484 -0.7543
 1654TIP3   OH226452   5.125   3.813  16.821  0.1694 -0.4399  0.4396
 1654TIP3    H126453   5.036   3.842  16.802  0.1352 -0.6259  0.3061
 1654TIP3    H226454   5.115   3.751  16.894  0.1971 -0.3981  0.4786
 1655TIP3   OH226455   1.182   0.459  12.934 -0.8131 -0.7203  0.1558
 1655TIP3    H126456   1.216   0.370  12.925 -2.5324 -1.3862 -0.0990
 1655TIP3    H226457   1.155   0.483  12.845 -0.8102 -0.1169  0.3160
 1656TIP3   OH226458   2.192   4.142  12.290  0.0832  0.0998 -0.4361
 1656TIP3    H126459   2.155   4.213  12.342  0.9328  2.1915 -2.4982
 1656TIP3    H226460   2.217   4.075  12.354 -2.3485  0.8357  1.4552
 1657TIP3   OH226461   2.644   6.495  14.230 -0.8534 -0.8241 -0.7182
 1657TIP3    H126462   2.710   6.426  14.241 -2.2582 -2.1635 -0.2734
 1657TIP3    H226463   2.589   6.489  14.308 -1.1359  0.6798 -0.7790
 1658TIP3   OH226464   2.463   5.630   3.888  0.4588 -0.0945  0.0316
 1658TIP3    H126465   2.485   5.699   3.950 -1.5333  2.9058 -2.3470
 1658TIP3    H226466   2.497   5.661   3.804  0.4711 -2.5963 -0.9748
 1659TIP3   OH226467   6.672   4.911  12.783  0.0972  0.7680  0.1721
 1659TIP3    H126468   6.731   4.874  12.848 -0.8494 -0.5009  0.3561
 1659TIP3    H226469   6.621   4.976  12.831 -1.2889 -0.8557  1.0286
 1660TIP3   OH226470   4.795   4.119   5.270  0.1846  0.6458  0.4286
 1660TIP3    H126471   4.868   4.168   5.307  1.9257 -0.6229 -1.0913
 1660TIP3    H226472   4.797   4.035   5.316  1.5772 -0.4676 -1.5006
 1661TIP3   OH226473   0.029   3.942   2.703 -0.7739 -0.4778  0.1693
 1661TIP3    H126474   0.090   4.016   2.698  0.5238 -1.5920 -1.9037
 1661TIP3    H226475  -0.051   3.975   2.662 -0.9797  0.4208  1.2378
 1662TIP3   OH226476   1.319   1.541   3.652  0.4925 -0.1830  0.5658
 1662TIP3    H126477   1.332   1.579   3.565  1.4170  0.6296  1.0375
 1662TIP3    H226478   1.364   1.457   3.649 -2.2347 -1.7099 -0.7403
 1663TIP3   OH226479   4.461   5.863   6.476  0.1497  0.7364 -0.9805
 1663TIP3    H126480   4.471   5.781   6.427 -3.8447  0.4217 -1.6220
 1663TIP3    H226481   4.465   5.836   6.568  2.7066  0.5527 -1.0639
 1664TIP3   OH226482   1.430   6.377   2.293 -0.6337  0.4752 -0.3337
 1664TIP3    H126483   1.444   6.322   2.216 -0.2037  1.8199 -1.2548
 1664TIP3    H226484   1.421   6.466   2.258 -0.4776  1.1133  1.1591
 1665TIP3   OH226485   6.695   2.060  13.202 -0.1346 -0.4210  0.0069
 1665TIP3    H126486   6.602   2.080  13.186 -0.1037 -1.4452 -1.7671
 1665TIP3    H226487   6.705   2.069  13.296 -1.7646  0.8234  0.1258
 1666TIP3   OH226488   1.651   3.288  16.335  0.0317  0.0500  0.1753
 1666TIP3    H126489   1.558   3.292  16.360  0.0354 -0.7659  0.3708
 1666TIP3    H226490   1.650   3.254  16.245  0.1578 -0.7836  0.4754
 1667TIP3   OH226491   0.100   5.573  16.247 -0.0224  0.6073 -0.2389
 1667TIP3    H126492   0.080   5.666  16.236 -1.6204  0.3344  0.1420
 1667TIP3    H226493   0.053   5.530  16.176 -0.2043 -0.0031  0.2428
 1668TIP3   OH226494   5.758   3.985  11.609  0.7501 -0.4702  0.0530
 1668TIP3    H126495   5.783   4.067  11.652 -2.2863  1.0451 -0.7876
 1668TIP3    H226496   5.772   4.002  11.516  0.0865 -0.9145 -0.1325
 1669TIP3   OH226497   0.674   3.688  12.986 -0.1186 -0.5627  0.0063
 1669TIP3    H126498   0.670   3.593  12.984 -2.6602 -0.5213 -1.3658
 1669TIP3    H226499   0.606   3.714  13.048 -0.5504  0.3496 -0.8140
 1670TIP3   OH226500   2.173   4.723   5.055 -0.0056  0.0781  0.3842
 1670TIP3    H126501   2.207   4.664   5.122  1.1896  1.0559  0.6681
 1670TIP3    H226502   2.236   4.717   4.983 -0.4451  0.2046 -0.0140
 1671TIP3   OH226503   3.338   6.707   2.736 -0.1473 -0.2689 -0.2192
 1671TIP3    H126504   3.250   6.671   2.744  0.4210 -1.4357  1.1941
 1671TIP3    H226505   3.390   6.635   2.701  0.3372  0.2894 -0.6699
 1672TIP3   OH226506   1.605   5.899   5.480 -0.5277 -0.7050 -0.1569
 1672TIP3    H126507   1.603   5.905   5.576 -1.3004  1.7495 -0.2544
 1672TIP3    H226508   1.518   5.929   5.453 -0.6117 -2.1859 -1.6273
 1673TIP3   OH226509   2.732   3.449  15.629 -0.0878 -0.1414  0.2532
 1673TIP3    H126510   2.800   3.502  15.588 -0.5185  0.4383  0.2737
 1673TIP3    H226511   2.752   3.452  15.723  0.3732 -0.7188  0.1795
 1674TIP3   OH226512   2.320   1.188   4.356 -0.0510 -0.2898  0.1344
 1674TIP3    H126513   2.290   1.279   4.360 -0.7272 -0.4492 -0.8444
 1674TIP3    H226514   2.397   1.185   4.413 -1.7960  0.1621  2.6770
 1675TIP3   OH226515   2.618   0.683   0.144  0.0922  0.1688 -0.3950
 1675TIP3    H126516   2.656   0.719   0.224  0.4515  0.2411 -0.5978
 1675TIP3    H226517   2.625   0.754   0.080 -1.2751  0.5361 -0.1756
 1676TIP3   OH226518   4.975   4.307  17.147  0.2180 -0.4078  1.0025
 1676TIP3    H126519   4.976   4.391  17.102 -1.2783 -1.4615 -1.2129
 1676TIP3    H226520   4.887   4.301  17.185  0.4385 -0.8161  1.4620
 1677TIP3   OH226521   5.684   6.493  15.426 -0.0226 -0.5379 -0.2089
 1677TIP3    H126522   5.596   6.462  15.403  0.6193 -2.8312  0.2227
 1677TIP3    H226523   5.743   6.445  15.367  0.9545  1.4471 -0.9493
 1678TIP3   OH226524   6.517   3.896  13.550  0.4934 -0.1983  0.5835
 1678TIP3    H126525   6.524   3.811  13.594 -1.0642 -0.7538 -0.1595
 1678TIP3    H226526   6.599   3.907  13.503  0.3571 -1.7485 -0.0528
 1679TIP3   OH226527   5.453   5.443   5.529  0.1086  0.2806 -0.0833
 1679TIP3    H126528   5.429   5.474   5.616  0.3251  1.5320 -0.4483
 1679TIP3    H226529   5.544   5.469   5.518 -0.1726  0.9620 -1.0087
 1680TIP3   OH226530   1.413   1.520   1.631 -0.1559  0.2825  0.2539
 1680TIP3    H126531   1.332   1.549   1.675  0.4897  2.0771  0.3500
 1680TIP3    H226532   1.482   1.574   1.670  0.6568  0.9551 -1.9543
 1681TIP3   OH226533   0.062   5.299   3.045 -0.0784  0.4258 -0.5903
 1681TIP3    H126534   0.064   5.389   3.014 -1.3406  1.1803  1.3982
 1681TIP3    H226535  -0.022   5.289   3.088  0.0381 -1.7206 -0.7284
 1682TIP3   OH226536   0.155   0.597   5.502  0.3009  0.5006  0.2390
 1682TIP3    H126537   0.179   0.672   5.557  1.0211  0.1112  0.4825
 1682TIP3    H226538   0.234   0.579   5.451 -0.2905  0.7144 -0.7709
 1683TIP3   OH226539   0.030   1.528   5.512  0.4307 -0.4582 -0.3772
 1683TIP3    H126540  -0.054   1.534   5.557  0.0330  0.7199 -1.2306
 1683TIP3    H226541   0.095   1.533   5.582 -0.1838 -2.0161  0.3466
 1684TIP3   OH226542   6.151   2.985  16.543  0.6349 -0.3952 -0.8659
 1684TIP3    H126543   6.223   2.926  16.525 -0.4306 -1.1314 -2.9404
 1684TIP3    H226544   6.164   3.059  16.483  0.9511  0.6632  0.4395
 1685TIP3   OH226545   3.707   1.672  14.015  0.1429 -0.3779 -0.0730
 1685TIP3    H126546   3.684   1.622  14.094  0.5931 -1.4645 -0.6123
 1685TIP3    H226547   3.803   1.675  14.015  0.1472 -0.4202 -0.5994
 1686TIP3   OH226548   0.437   2.110   1.047 -0.0282 -0.6631  0.0055
 1686TIP3    H126549   0.348   2.091   1.018 -0.6176 -1.1580  1.9425
 1686TIP3    H226550   0.472   2.171   0.982 -2.0759  0.1871 -0.3635
 1687TIP3   OH226551   4.264   1.221  13.050  0.0794  0.2310  0.1130
 1687TIP3    H126552   4.318   1.205  12.972  0.0754  0.7214  0.0072
 1687TIP3    H226553   4.184   1.259  13.015 -0.3933 -0.5957  0.2625
 1688TIP3   OH226554   4.620   2.693  13.758  0.3547  0.3453  0.6447
 1688TIP3    H126555   4.530   2.725  13.757 -0.1882 -1.0961 -0.8708
 1688TIP3    H226556   4.611   2.598  13.768  1.7277  0.2063  0.6915
 1689TIP3   OH226557   1.012   6.561   3.429 -0.0596 -0.7023 -0.4306
 1689TIP3    H126558   0.961   6.634   3.395  0.7869  0.0413 -0.1377
 1689TIP3    H226559   1.035   6.510   3.352  0.1829 -0.1068 -0.7605
 1690TIP3   OH226560   1.740   3.469   1.087 -0.3776  0.0587  0.3210
 1690TIP3    H126561   1.694   3.388   1.062 -0.9254  0.0313  1.3250
 1690TIP3    H226562   1.670   3.532   1.101 -0.0190  0.4064  0.5595
 1691TIP3   OH226563   3.091   1.242  16.392  0.3357 -0.0341  0.2394
 1691TIP3    H126564   3.082   1.335  16.414 -1.1635 -0.0253 -0.3489
 1691TIP3    H226565   3.154   1.240  16.320  1.5442  0.3688  1.2516
 1692TIP3   OH226566   5.906   2.682   2.802  0.3463  0.9806  0.1360
 1692TIP3    H126567   5.964   2.606   2.789  2.2019  2.1373  1.1598
 1692TIP3    H226568   5.931   2.743   2.733 -0.1624  1.2312  0.1717
 1693TIP3   OH226569   4.165   5.711  16.510 -0.1470  0.7748  0.1004
 1693TIP3    H126570   4.142   5.730  16.601 -1.4540 -0.1084 -0.0112
 1693TIP3    H226571   4.241   5.653  16.516  0.0698  1.1079  0.6142
 1694TIP3   OH226572   0.356   3.538   1.521 -0.3142 -0.1074 -0.2190
 1694TIP3    H126573   0.400   3.518   1.438 -0.8333 -0.9382 -0.3104
 1694TIP3    H226574   0.271   3.495   1.514  0.7498 -2.9296  1.9495
 1695TIP3   OH226575   1.104   6.547  10.356  0.0108 -0.1408  0.0521
 1695TIP3    H126576   1.015   6.563  10.386 -0.4855  1.1219 -1.9119
 1695TIP3    H226577   1.105   6.454  10.332 -0.8642 -0.1009 -0.1600
 1696TIP3   OH226578   2.502   3.685   1.144 -0.1360 -0.0403  0.4032
 1696TIP3    H126579   2.552   3.766   1.137 -0.9194  0.4234  0.1507
 1696TIP3    H226580   2.472   3.667   1.055  0.0222 -0.6076  0.4589
 1697TIP3   OH226581   0.943   6.734   5.470  0.6587 -0.2452  0.2859
 1697TIP3    H126582   0.855   6.772   5.462 -0.0285 -1.9268 -0.7294
 1697TIP3    H226583   0.952   6.713   5.563 -0.3223 -0.7052  0.2877
 1698TIP3   OH226584   2.334   0.517  10.874  0.4724  0.4884 -0.1476
 1698TIP3    H126585   2.282   0.594  10.852  1.0042  1.2264  1.0469
 1698TIP3    H226586   2.387   0.545  10.949  1.8681 -0.5328 -0.7123
 1699TIP3   OH226587   3.354   2.908  13.607 -0.1484 -0.0355 -0.3103
 1699TIP3    H126588   3.388   2.934  13.693  3.7785 -0.2641 -1.5843
 1699TIP3    H226589   3.329   2.816  13.618  0.9402 -0.2621  0.4893
 1700TIP3   OH226590   0.159   6.101   2.227  0.6944 -0.1291  0.3496
 1700TIP3    H126591   0.099   6.042   2.180  0.4879  0.4324 -0.1099
 1700TIP3    H226592   0.146   6.080   2.319  0.0118 -0.2351  0.2376
 1701TIP3   OH226593   2.108   1.610   2.453 -0.1227 -0.1985 -0.4598
 1701TIP3    H126594   2.125   1.527   2.496  0.4749  1.3024  2.5081
 1701TIP3    H226595   2.012   1.614   2.445 -0.1500 -1.1695 -0.7006
 1702TIP3   OH226596   5.066   3.338  13.181 -0.4862  0.5701 -0.4545
 1702TIP3    H126597   5.000   3.366  13.117 -1.1833 -2.8589 -1.4806
 1702TIP3    H226598   5.016   3.321  13.261 -0.6056 -0.3152 -0.6989
 1703TIP3   OH226599   5.379   0.868   4.878 -0.1394 -0.1439  0.3555
 1703TIP3    H126600   5.373   0.801   4.811 -1.8696  0.7483 -0.4607
 1703TIP3    H226601   5.322   0.837   4.949 -1.5559  0.7462 -0.3434
 1704TIP3   OH226602   2.485   3.198  12.183  0.4546 -0.6267 -0.4812
 1704TIP3    H126603   2.435   3.159  12.255  2.0577 -0.7302  0.6179
 1704TIP3    H226604   2.419   3.241  12.129 -0.8674 -1.0867  0.7080
 1705TIP3   OH226605   0.259   5.886   1.642  0.4629  0.3921  0.2240
 1705TIP3    H126606   0.313   5.938   1.702  1.0498  0.3229 -0.2306
 1705TIP3    H226607   0.236   5.947   1.571  2.4278 -0.3070 -1.1025
 1706TIP3   OH226608   2.202   0.876   2.688 -0.4207 -0.2208 -0.2416
 1706TIP3    H126609   2.249   0.801   2.651 -0.1577  0.8468 -2.2298
 1706TIP3    H226610   2.258   0.906   2.760 -0.1102 -1.4029  0.0315
 1707TIP3   OH226611   1.154   1.292  14.800  0.2368 -0.0572  0.6960
 1707TIP3    H126612   1.236   1.322  14.762  0.3443  1.0028  1.7186
 1707TIP3    H226613   1.140   1.349  14.876 -0.7538 -1.0976  1.3265
 1708TIP3   OH226614   2.349   4.086   0.616 -0.2967 -0.6904 -0.7595
 1708TIP3    H126615   2.289   4.098   0.542 -0.6257 -0.2559 -0.4333
 1708TIP3    H226616   2.293   4.055   0.688 -0.1220 -0.3749 -0.4811
 1709TIP3   OH226617   1.615   5.809  14.672 -0.5584 -0.0475 -0.5815
 1709TIP3    H126618   1.649   5.724  14.644 -0.1573 -1.3656  3.2513
 1709TIP3    H226619   1.691   5.854  14.710 -1.6197 -0.1081  1.7923
 1710TIP3   OH226620   6.811   2.487  16.313 -0.1037 -0.8974  0.3132
 1710TIP3    H126621   6.722   2.453  16.322 -1.2222  1.9494  1.1366
 1710TIP3    H226622   6.807   2.575  16.352  2.9498 -0.4669 -0.1110
 1711TIP3   OH226623   6.263   4.724  16.631  0.0683  1.0430 -0.2217
 1711TIP3    H126624   6.319   4.681  16.566 -0.1174 -0.7954  0.7705
 1711TIP3    H226625   6.323   4.759  16.696  0.1431 -0.2196  0.4197
 1712TIP3   OH226626   4.794   6.243   4.911  0.4009  0.1946 -1.1060
 1712TIP3    H126627   4.739   6.167   4.932 -0.0211  0.5170 -1.0422
 1712TIP3    H226628   4.873   6.230   4.963 -0.3822  0.6810  0.2831
 1713TIP3   OH226629   5.936   2.597   1.084  0.0448 -0.5933  0.2431
 1713TIP3    H126630   5.927   2.590   1.179  0.7565  0.0085  0.3642
 1713TIP3    H226631   5.848   2.614   1.052  0.0296  0.7320  0.9472
 1714TIP3   OH226632   6.607   6.246  12.397  0.5194 -0.6109  0.1116
 1714TIP3    H126633   6.609   6.267  12.304 -0.0092  0.1297  0.2584
 1714TIP3    H226634   6.588   6.152  12.400  1.0637 -0.7485 -0.5282
 1715TIP3   OH226635   6.402   4.066   6.481  0.1467 -0.3559 -0.3595
 1715TIP3    H126636   6.351   4.071   6.561 -0.7400 -0.7151 -0.8936
 1715TIP3    H226637   6.391   3.976   6.450 -0.8741  0.1987 -1.7382
 1716TIP3   OH226638   5.397   3.806  15.931  0.0845  0.1023  0.4199
 1716TIP3    H126639   5.396   3.749  16.008  1.1363 -0.3569  0.1116
 1716TIP3    H226640   5.430   3.890  15.964  1.2397 -0.3080  0.3441
 1717TIP3   OH226641   4.146   0.204   1.956 -0.2621  0.2247  0.8570
 1717TIP3    H126642   4.093   0.206   1.877 -0.1775  0.2127  0.7995
 1717TIP3    H226643   4.110   0.274   2.011 -0.7720 -0.2294  1.1048
 1718TIP3   OH226644   2.237   3.085  12.988  0.2608  0.1660  0.2633
 1718TIP3    H126645   2.285   3.166  13.005  1.3883 -0.4545  0.0977
 1718TIP3    H226646   2.304   3.019  12.973 -0.6209 -0.9730  1.0936
 1719TIP3   OH226647   5.000   1.420  14.789  0.1957 -0.3236  0.3520
 1719TIP3    H126648   5.043   1.458  14.712  0.6349 -0.6065  0.4520
 1719TIP3    H226649   4.963   1.337  14.757  0.4723 -0.4932  0.4691
 1720TIP3   OH226650   4.786   6.831   2.912  0.0301 -0.6808 -0.6701
 1720TIP3    H126651   4.700   6.859   2.879 -0.1714  0.0036  0.3946
 1720TIP3    H226652   4.768   6.797   3.000  0.8716 -0.3399 -0.3608
 1721TIP3   OH226653   1.073   1.565   6.630 -0.5929 -0.5848 -0.7057
 1721TIP3    H126654   1.150   1.524   6.591 -0.2092 -0.1286 -0.4312
 1721TIP3    H226655   0.999   1.529   6.580 -0.0953  0.3055 -2.1657
 1722TIP3   OH226656   3.986   2.095  11.647  0.4765 -0.1296 -0.3876
 1722TIP3    H126657   4.074   2.062  11.633  0.5126  0.4257 -1.6097
 1722TIP3    H226658   3.945   2.032  11.706  1.4447 -0.8019 -0.4185
 1723TIP3   OH226659   3.498   0.931  13.034  0.0857 -0.3595  0.1090
 1723TIP3    H126660   3.486   1.020  13.067 -0.8939 -0.5348  0.2542
 1723TIP3    H226661   3.410   0.902  13.010  0.1972 -1.7703  1.2661
 1724TIP3   OH226662   2.662   5.669  12.714  0.2236  0.2807  0.2260
 1724TIP3    H126663   2.690   5.607  12.646 -0.2592 -0.1353  0.3984
 1724TIP3    H226664   2.731   5.665  12.780  0.7797  0.8116 -0.3119
 1725TIP3   OH226665   3.601   6.060  14.321 -0.1371 -0.3843 -0.0783
 1725TIP3    H126666   3.647   6.003  14.381 -0.7817  0.1845  0.9813
 1725TIP3    H226667   3.543   6.112  14.376 -0.9291 -0.0186 -1.2110
 1726TIP3   OH226668   6.679   0.459  10.516  0.4478 -0.4284  1.0942
 1726TIP3    H126669   6.614   0.475  10.447  0.6803  0.3730  1.0549
 1726TIP3    H226670   6.643   0.501  10.594  0.6522 -0.4765  1.2147
 1727TIP3   OH226671   3.069   3.754   5.788 -0.2277  0.1741  0.2358
 1727TIP3    H126672   3.026   3.671   5.767 -0.1322  0.3722 -0.7685
 1727TIP3    H226673   2.999   3.809   5.822  0.0258 -0.9029  2.7339
 1728TIP3   OH226674   4.610   2.614   1.307 -0.0902  0.1563  1.0376
 1728TIP3    H126675   4.551   2.558   1.257 -0.2774  0.8081  0.5104
 1728TIP3    H226676   4.688   2.622   1.252  0.0057  0.2736  1.1895
 1729TIP3   OH226677   4.120   4.446   3.240 -0.0197 -0.7569 -0.0027
 1729TIP3    H126678   4.152   4.385   3.307  0.7969  0.3511  0.6439
 1729TIP3    H226679   4.026   4.428   3.235 -0.2502 -0.3498  2.0000
 1730TIP3   OH226680   2.894   1.789   4.786 -0.3918  0.0829 -0.0107
 1730TIP3    H126681   2.934   1.810   4.701  0.5068  0.0733  0.4051
 1730TIP3    H226682   2.905   1.695   4.795 -1.2042 -0.0430 -0.2344
 1731TIP3   OH226683   6.238   3.489   1.892 -0.3880 -0.2990  0.4140
 1731TIP3    H126684   6.233   3.515   1.984  1.5692  0.0745  0.4629
 1731TIP3    H226685   6.214   3.568   1.843  1.0486  0.2826  0.6073
 1732TIP3   OH226686   0.094   5.663  12.705  0.3397  0.4659  0.0737
 1732TIP3    H126687   0.063   5.614  12.781  2.0193 -1.4583 -0.4036
 1732TIP3    H226688   0.140   5.599  12.652  3.2837  2.6605 -0.2662
 1733TIP3   OH226689   2.606   0.878  10.176  0.3304 -0.2746 -0.3027
 1733TIP3    H126690   2.531   0.819  10.166 -1.1886  1.2865  1.1312
 1733TIP3    H226691   2.608   0.928  10.094 -1.0942  0.6017  0.1618
 1734TIP3   OH226692   3.644   1.873  12.775  0.8548 -0.0411  0.5091
 1734TIP3    H126693   3.687   1.886  12.691  1.0238  0.2005  0.6307
 1734TIP3    H226694   3.615   1.782  12.774  1.1002 -0.1165  0.3031
 1735TIP3   OH226695   5.313   1.071   2.707  0.6109 -0.3203 -0.3042
 1735TIP3    H126696   5.351   1.097   2.623  1.0489 -1.9146 -0.6278
 1735TIP3    H226697   5.350   0.985   2.725 -0.3721 -0.5105  0.9649
 1736TIP3   OH226698   1.294   6.136   5.687 -0.9189  0.1150  0.5391
 1736TIP3    H126699   1.302   6.068   5.620  0.7876  0.4737  0.3282
 1736TIP3    H226700   1.230   6.197   5.652  0.7855  0.9127 -1.3898
 1737TIP3   OH226701   6.604   6.748   0.502  0.4287 -0.6938 -0.5735
 1737TIP3    H126702   6.611   6.829   0.553 -3.4087  0.5908 -1.7030
 1737TIP3    H226703   6.649   6.768   0.420  0.1561  0.0230 -0.5539
 1738TIP3   OH226704   1.644   5.891   0.692  0.0871  0.4543 -0.2894
 1738TIP3    H126705   1.714   5.888   0.758 -0.0419  0.4659 -0.1523
 1738TIP3    H226706   1.666   5.968   0.639 -0.3551  1.0315  0.3502
 1739TIP3   OH226707   3.193   2.235   1.022 -0.4448  0.2518  0.2280
 1739TIP3    H126708   3.191   2.261   1.115 -0.7628  0.6752  0.1053
 1739TIP3    H226709   3.103   2.245   0.993 -0.6436 -1.2879  0.2462
 1740TIP3   OH226710   1.979   2.761  15.916  0.2471  0.4663 -0.1161
 1740TIP3    H126711   1.952   2.721  15.998 -0.3895  1.4974  0.1938
 1740TIP3    H226712   1.988   2.854  15.936  2.0184  0.4612 -0.7433
 1741TIP3   OH226713   0.202   1.122   1.340 -0.8518 -0.3124 -0.2514
 1741TIP3    H126714   0.163   1.197   1.295 -1.6510 -0.1584  0.6598
 1741TIP3    H226715   0.287   1.154   1.370 -2.1967  1.1565  2.3786
 1742TIP3   OH226716   6.609   0.856   2.778 -0.1605  0.5320  0.0953
 1742TIP3    H126717   6.560   0.934   2.806 -0.2124  0.6107 -0.2145
 1742TIP3    H226718   6.543   0.797   2.744  0.0807  1.1453 -1.5075
 1743TIP3   OH226719   0.924   3.708  16.586 -0.0703  0.5063 -0.3194
 1743TIP3    H126720   0.898   3.669  16.503  1.2038 -0.7206 -0.1965
 1743TIP3    H226721   1.016   3.682  16.597 -0.0542  1.0661  1.2245
 1744TIP3   OH226722   3.795   3.059   1.106 -0.2290 -0.2288  0.0959
 1744TIP3    H126723   3.838   3.001   1.043  1.3132  0.1114  0.7885
 1744TIP3    H226724   3.789   3.143   1.060  0.5782 -0.0736  0.2552
 1745TIP3   OH226725   0.462   6.391   2.365 -0.1313 -0.1160  0.0095
 1745TIP3    H126726   0.480   6.302   2.335 -3.2324 -1.0239  0.4683
 1745TIP3    H226727   0.471   6.387   2.460 -0.1402  0.0890  0.0206
 1746TIP3   OH226728   2.035   1.571   3.102 -0.5350 -0.0089 -0.2745
 1746TIP3    H126729   2.117   1.525   3.087 -0.1917  0.6086 -0.3270
 1746TIP3    H226730   1.998   1.586   3.015 -0.2185  0.5654 -0.3190
 1747TIP3   OH226731   4.757   1.995   0.551 -0.3034 -0.2483 -0.0188
 1747TIP3    H126732   4.677   1.948   0.527 -1.1054  1.0965 -0.0640
 1747TIP3    H226733   4.766   1.980   0.645 -0.9304  0.0751  0.0917
 1748TIP3   OH226734   0.847   5.113  14.221  0.3857  0.4468 -0.3874
 1748TIP3    H126735   0.927   5.138  14.177  0.9871 -0.0722  0.3827
 1748TIP3    H226736   0.809   5.045  14.166  1.0285 -0.0566 -0.2213
 1749TIP3   OH226737   5.806   1.029   4.636  0.0633  0.6819 -0.0069
 1749TIP3    H126738   5.711   1.044   4.634 -0.3849 -1.7572  0.2795
 1749TIP3    H226739   5.825   0.982   4.555  0.9926  0.8607  0.0977
 1750TIP3   OH226740   5.961   3.454   5.833  0.2781 -0.3914  0.0532
 1750TIP3    H126741   5.901   3.396   5.881  0.2085 -1.4395 -1.2369
 1750TIP3    H226742   5.983   3.405   5.753  1.6813  0.5999 -0.2145
 1751TIP3   OH226743   3.533   0.867   5.235  0.4969 -0.1930  0.7628
 1751TIP3    H126744   3.438   0.866   5.248  0.4386  0.5411  0.4214
 1751TIP3    H226745   3.564   0.935   5.294  1.0882 -1.9351  2.5838
 1752TIP3   OH226746   5.893   6.704   5.927  0.0833 -0.4275  0.2890
 1752TIP3    H126747   5.856   6.770   5.985 -0.5117  0.3633 -0.9591
 1752TIP3    H226748   5.896   6.746   5.841  0.2901 -1.8041 -0.4030
 1753TIP3   OH226749   5.923   2.933   0.929  0.7516 -0.3249  0.0924
 1753TIP3    H126750   5.996   2.903   0.875  2.2160 -0.0366  1.8344
 1753TIP3    H226751   5.852   2.872   0.909  1.7858 -1.2460 -0.8896
 1754TIP3   OH226752   0.921   0.145   5.157 -0.6664 -0.0747  0.8531
 1754TIP3    H126753   0.942   0.051   5.164 -1.1060 -0.1576  1.1270
 1754TIP3    H226754   0.964   0.184   5.233  0.1461  0.0649  0.3270
 1755TIP3   OH226755   3.480   5.830   0.398  0.3691  0.3685  0.0308
 1755TIP3    H126756   3.399   5.806   0.443  0.5768  0.2426  0.3402
 1755TIP3    H226757   3.471   5.923   0.379 -0.2280  0.1661 -0.7258
 1756TIP3   OH226758   0.563   5.175   3.420 -0.0591 -0.0897  0.3818
 1756TIP3    H126759   0.543   5.213   3.335  0.4490  0.5174  0.5283
 1756TIP3    H226760   0.486   5.193   3.473 -0.3735 -0.4611  0.0628
 1757TIP3   OH226761   0.241   5.212   6.211 -0.2139  0.2315  0.2936
 1757TIP3    H126762   0.300   5.149   6.169 -0.2234  0.9674 -0.8556
 1757TIP3    H226763   0.218   5.170   6.294  1.0220 -0.5760  0.2651
 1758TIP3   OH226764   4.528   3.571  16.729 -0.3932 -0.5703 -0.3969
 1758TIP3    H126765   4.607   3.539  16.685 -0.6210 -0.6710 -0.7375
 1758TIP3    H226766   4.499   3.496  16.782  1.4126  0.3757  2.1375
 1759TIP3   OH226767   3.172   2.149  12.321 -0.1143 -0.6078  0.2094
 1759TIP3    H126768   3.155   2.230  12.272 -0.7669 -0.4601  0.6597
 1759TIP3    H226769   3.266   2.150  12.338 -0.0342 -0.1974 -0.2254
 1760TIP3   OH226770   5.358   6.096  14.182 -0.6489  0.2577  0.0788
 1760TIP3    H126771   5.427   6.078  14.118  0.7674 -1.2435  1.9231
 1760TIP3    H226772   5.405   6.119  14.262 -2.3633  2.0375  0.6467
 1761TIP3   OH226773   3.766   1.131   2.859  0.2234  0.1283  0.3108
 1761TIP3    H126774   3.752   1.214   2.906  2.4208  0.6271  0.1971
 1761TIP3    H226775   3.827   1.083   2.915 -0.6497 -1.2298  0.1268
 1762TIP3   OH226776   1.778   6.742  15.350  0.2413 -0.2403 -0.1125
 1762TIP3    H126777   1.818   6.808  15.407  0.3244  0.5007 -1.0170
 1762TIP3    H226778   1.707   6.788  15.306 -0.2325 -0.9825 -0.1434
 1763TIP3   OH226779   4.843   3.987  12.740  0.4373 -0.0514  0.4581
 1763TIP3    H126780   4.819   3.921  12.675  1.3247  0.1470 -0.0735
 1763TIP3    H226781   4.900   3.941  12.801  3.3400  0.7957 -1.4014
 1764TIP3   OH226782   3.715   6.127   4.035  0.1369 -0.3516  1.0335
 1764TIP3    H126783   3.673   6.183   3.970 -0.0504 -1.7390 -0.0793
 1764TIP3    H226784   3.786   6.084   3.988  1.4693  0.3144  2.3447
 1765TIP3   OH226785   2.016   5.671   4.293  0.2693  0.8644  0.7522
 1765TIP3    H126786   2.073   5.597   4.276  0.5597  0.8243  1.8594
 1765TIP3    H226787   2.048   5.709   4.374  0.3889  2.4608  0.0063
 1766TIP3   OH226788   0.677   0.456  12.245 -0.9029 -0.3933  0.2498
 1766TIP3    H126789   0.641   0.526  12.301  0.3840  0.4447  0.0765
 1766TIP3    H226790   0.757   0.494  12.209 -0.3823 -1.8462 -0.1626
 1767TIP3   OH226791   5.430   1.611  14.358 -0.7332 -0.3829 -0.5100
 1767TIP3    H126792   5.463   1.587  14.445  1.2786 -1.5328 -1.5189
 1767TIP3    H226793   5.340   1.578  14.356 -1.5287  1.3546  1.7621
 1768TIP3   OH226794   0.480   1.081  17.003  0.1089 -0.2258 -0.0853
 1768TIP3    H126795   0.483   1.005  16.945  1.8473  0.0455 -0.4098
 1768TIP3    H226796   0.441   1.150  16.950  0.9161 -0.2109 -0.6883
 1769TIP3   OH226797   2.818   2.512   3.806 -0.1885  0.4902  0.0468
 1769TIP3    H126798   2.816   2.576   3.878  0.5270  1.2693 -0.6047
 1769TIP3    H226799   2.750   2.449   3.829 -1.1279  1.6419  0.5705
 1770TIP3   OH226800   6.219   5.837   0.619 -0.5831 -0.2535  0.3395
 1770TIP3    H126801   6.164   5.776   0.669  2.2427 -2.4702  1.0208
 1770TIP3    H226802   6.270   5.883   0.686  0.1379 -0.0505 -0.3357
 1771TIP3   OH226803   2.603   0.151  16.363  0.2216 -0.5988  0.5981
 1771TIP3    H126804   2.590   0.217  16.295 -0.4601 -0.4843  0.8355
 1771TIP3    H226805   2.595   0.067  16.317  2.6997 -0.5651 -0.0225
 1772TIP3   OH226806   6.525   4.118   3.059  0.3842 -0.6575 -0.1831
 1772TIP3    H126807   6.607   4.091   3.016  0.6231  2.2195 -1.7716
 1772TIP3    H226808   6.498   4.196   3.011 -2.2554 -0.3538  1.6222
 1773TIP3   OH226809   2.769   3.975  15.912 -0.3616  0.0998  0.0218
 1773TIP3    H126810   2.803   3.887  15.897  0.8737  0.1987  1.9731
 1773TIP3    H226811   2.699   3.985  15.847 -0.4594 -2.2527 -0.3068
 1774TIP3   OH226812   1.958   4.826   6.216  0.1453  0.0661 -0.0057
 1774TIP3    H126813   2.045   4.851   6.184  0.2959 -0.1312  0.2423
 1774TIP3    H226814   1.975   4.784   6.300 -0.2552  0.7617  0.4346
 1775TIP3   OH226815   4.955   5.084   2.125 -0.5099 -0.3031 -0.6325
 1775TIP3    H126816   5.037   5.065   2.171 -0.9312  0.7325  0.5924
 1775TIP3    H226817   4.983   5.118   2.039  0.2942 -1.6881 -0.9465
 1776TIP3   OH226818   4.144   1.178   0.657  0.1217 -0.6682  0.4339
 1776TIP3    H126819   4.132   1.084   0.638 -0.8358 -0.3534 -0.6897
 1776TIP3    H226820   4.098   1.191   0.740 -0.1414 -1.1079  0.3633
 1777TIP3   OH226821   3.090   3.980  14.208 -0.4515 -0.0879  0.1374
 1777TIP3    H126822   3.143   4.058  14.226  1.5815 -1.4327  0.3295
 1777TIP3    H226823   3.025   3.979  14.277 -0.0729  1.0628  0.5383
 1778TIP3   OH226824   4.429   3.867   0.741 -0.0722  0.0011  0.0610
 1778TIP3    H126825   4.429   3.870   0.837 -0.8231  0.6762  0.0566
 1778TIP3    H226826   4.490   3.797   0.719 -2.1144 -2.2616  1.1011
 1779TIP3   OH226827   3.236   4.462   5.339 -0.4402 -0.1087  0.2669
 1779TIP3    H126828   3.257   4.553   5.316  0.4539 -0.2770  0.4006
 1779TIP3    H226829   3.265   4.411   5.263  0.2051 -0.4101  0.7167
 1780TIP3   OH226830   5.260   5.959   1.954 -0.0241 -0.0825  0.7174
 1780TIP3    H126831   5.276   6.039   2.003 -0.3950  0.3392  0.1557
 1780TIP3    H226832   5.325   5.960   1.884 -0.0631 -0.2487  0.6769
 1781TIP3   OH226833   2.047   3.371  16.133  0.1904 -0.1581 -0.2594
 1781TIP3    H126834   2.038   3.396  16.041  1.1938  1.0258 -0.0655
 1781TIP3    H226835   2.141   3.364  16.147  0.0940  0.3884  0.8413
 1782TIP3   OH226836   4.005   2.043   1.074 -0.2743 -0.1240  0.7275
 1782TIP3    H126837   4.038   1.955   1.059 -2.6229 -1.1675  1.1773
 1782TIP3    H226838   3.926   2.049   1.021 -0.6031  1.4305  1.3209
 1783TIP3   OH226839   1.434   6.019  16.325 -0.3208 -0.6237  0.3324
 1783TIP3    H126840   1.418   5.925  16.335  1.0301 -0.9631 -0.4789
 1783TIP3    H226841   1.429   6.034  16.231  0.2951 -0.0589  0.3824
 1784TIP3   OH226842   4.914   5.900   3.639 -0.7416  0.8153  0.9595
 1784TIP3    H126843   4.887   5.822   3.590 -0.3613  0.9498  0.5393
 1784TIP3    H226844   4.869   5.891   3.724 -0.4972  0.0085  1.0080
 1785TIP3   OH226845   1.092   1.942   3.291  0.2426 -0.4799  0.9104
 1785TIP3    H126846   1.019   1.891   3.256  0.3658 -0.4930  0.6732
 1785TIP3    H226847   1.059   1.977   3.374  0.0703 -0.7326  0.9490
 1786TIP3   OH226848   3.237   3.855  16.019 -0.2284 -0.7269 -0.3754
 1786TIP3    H126849   3.274   3.942  16.004  1.1291 -1.2016  0.1033
 1786TIP3    H226850   3.209   3.825  15.932  1.3852 -0.7327 -0.9108
 1787TIP3   OH226851   0.851   0.264   3.355 -0.3238  0.0878 -0.3333
 1787TIP3    H126852   0.797   0.308   3.290  1.1551  0.7101 -1.1728
 1787TIP3    H226853   0.941   0.290   3.335  0.3556 -1.2207  0.7838
 1788TIP3   OH226854   2.187   6.191   5.371 -0.3584  0.1751 -0.2639
 1788TIP3    H126855   2.194   6.267   5.313 -4.3655  1.3980  0.5666
 1788TIP3    H226856   2.164   6.119   5.313  1.4356 -0.0301 -0.7934
 1789TIP3   OH226857   2.979   4.552   5.600 -0.9651 -0.1742 -0.4502
 1789TIP3    H126858   3.041   4.624   5.594 -0.9530 -0.2803 -1.7062
 1789TIP3    H226859   2.909   4.575   5.540 -1.0942 -1.0802 -0.6598
 1790TIP3   OH226860   5.381   4.621   3.424  0.7441 -0.1653  0.2044
 1790TIP3    H126861   5.362   4.534   3.458  0.1504 -0.0442  0.1951
 1790TIP3    H226862   5.302   4.646   3.375  0.3864  0.8728  1.2378
 1791TIP3   OH226863   2.935   2.296  14.034  0.8551 -0.4745 -0.2107
 1791TIP3    H126864   2.941   2.381  14.078  1.8444 -0.6898  0.0860
 1791TIP3    H226865   2.899   2.237  14.100 -2.0378  0.1381 -1.0623
 1792TIP3   OH226866   0.794   4.970   3.854 -0.6683  0.3503  0.3424
 1792TIP3    H126867   0.843   5.052   3.847  1.3905 -0.6992  1.3263
 1792TIP3    H226868   0.827   4.916   3.781 -1.8332  0.2846 -0.1606
 1793TIP3   OH226869   3.289   4.068   1.406  0.7439 -0.3397 -0.2239
 1793TIP3    H126870   3.204   4.098   1.440  0.5487  0.2575 -1.2208
 1793TIP3    H226871   3.266   4.005   1.338  1.1337 -1.0580  0.2887
 1794TIP3   OH226872   3.206   1.171  15.580 -0.4856  0.4566 -0.1160
 1794TIP3    H126873   3.233   1.124  15.658 -0.3254  0.1302 -0.3662
 1794TIP3    H226874   3.152   1.243  15.612  2.3012  2.3801  0.5976
 1795TIP3   OH226875   1.291   2.946  11.188  0.2037  0.4304 -0.2700
 1795TIP3    H126876   1.322   2.875  11.245  0.3921  1.5408  1.0751
 1795TIP3    H226877   1.315   2.918  11.100  0.8880 -0.8548  0.2865
 1796TIP3   OH226878   4.072   1.627   1.855  0.1215 -0.2202  0.7180
 1796TIP3    H126879   4.145   1.587   1.808 -0.5371 -0.5987 -0.0070
 1796TIP3    H226880   4.019   1.668   1.787 -0.8147 -0.7245  1.1295
 1797TIP3   OH226881   0.787   0.659   1.997 -0.3408  0.1025  0.2578
 1797TIP3    H126882   0.710   0.710   2.022  0.8524  1.7449  0.7426
 1797TIP3    H226883   0.809   0.609   2.076 -0.6329 -0.0336  0.2558
 1798TIP3   OH226884   1.284   1.458   2.368  0.1097  0.1574  0.1596
 1798TIP3    H126885   1.299   1.369   2.399 -0.5259 -0.6336 -1.6623
 1798TIP3    H226886   1.270   1.509   2.448 -0.4363 -1.5397  1.2037
 1799TIP3   OH226887   5.315   5.160   0.536 -0.2449 -0.0397  0.1332
 1799TIP3    H126888   5.360   5.217   0.474  0.6352 -0.0545  0.7322
 1799TIP3    H226889   5.241   5.124   0.487 -0.2469  0.8536 -0.5420
 1800TIP3   OH226890   2.471   6.612  11.353  0.7897  0.4112 -0.1797
 1800TIP3    H126891   2.564   6.593  11.360  0.2587 -2.0411  1.4555
 1800TIP3    H226892   2.442   6.624  11.444 -0.8086 -0.9068 -0.4621
 1801TIP3   OH226893   0.308   1.426   5.418 -0.1271 -0.1083 -0.3886
 1801TIP3    H126894   0.256   1.477   5.479  0.1505  0.7849 -0.8807
 1801TIP3    H226895   0.271   1.338   5.422 -0.3677  0.0303  0.7562
 1802TIP3   OH226896   4.543   1.921  12.378  0.1128 -0.4358 -0.2006
 1802TIP3    H126897   4.628   1.923  12.423  0.4917 -0.9395 -0.8688
 1802TIP3    H226898   4.491   1.859  12.429 -0.1065  0.4080  0.6267
 1803TIP3   OH226899   4.483   6.243   0.194 -0.0366 -0.4660  0.3140
 1803TIP3    H126900   4.467   6.300   0.269 -0.4218 -0.1110 -0.0325
 1803TIP3    H226901   4.573   6.261   0.168 -0.5930  1.0226 -0.6624
 1804TIP3   OH226902   6.794   2.380  15.385 -0.7255 -0.6427 -0.4299
 1804TIP3    H126903   6.706   2.350  15.360 -0.6585 -1.4965  0.3320
 1804TIP3    H226904   6.814   2.333  15.465  0.9237 -1.3711 -1.2132
 1805TIP3   OH226905   4.780   5.741  14.923  0.0980 -0.0778 -0.3224
 1805TIP3    H126906   4.841   5.723  14.995 -0.3383  1.0178  0.3417
 1805TIP3    H226907   4.744   5.655  14.900  1.4731 -0.6728 -0.3585
 1806TIP3   OH226908   1.811   3.797  15.158  0.0643  0.1848 -0.0062
 1806TIP3    H126909   1.758   3.787  15.079 -0.2003 -0.1753  0.2139
 1806TIP3    H226910   1.897   3.824  15.126 -0.1083  0.2782 -0.3989
 1807TIP3   OH226911   3.720   0.606   1.320 -0.2290 -0.3520  0.1453
 1807TIP3    H126912   3.729   0.674   1.387 -0.9634  0.7545 -0.8434
 1807TIP3    H226913   3.796   0.549   1.333  2.3044  2.4900 -1.0826
 1808TIP3   OH226914   2.207   0.933  11.731  0.1464 -0.3165 -0.3904
 1808TIP3    H126915   2.244   1.012  11.692 -2.0119  0.1350 -1.6674
 1808TIP3    H226916   2.165   0.887  11.658 -0.2628 -1.6848  0.6581
 1809TIP3   OH226917   5.638   5.003   4.342 -0.1175 -0.2174 -0.1319
 1809TIP3    H126918   5.706   4.972   4.282 -0.5265 -1.0885 -0.1660
 1809TIP3    H226919   5.596   4.923   4.374  0.8848  0.1278  2.2868
 1810TIP3   OH226920   1.008   3.547   0.123 -0.4639 -0.3170  0.1898
 1810TIP3    H126921   0.976   3.488   0.055 -1.0378  0.8959 -0.6170
 1810TIP3    H226922   0.978   3.508   0.205  1.2463 -2.4502 -0.1068
 1811TIP3   OH226923   2.266   4.441  15.680  0.5136 -0.0100 -0.0469
 1811TIP3    H126924   2.323   4.402  15.613 -1.3889 -1.5963 -0.8400
 1811TIP3    H226925   2.279   4.385  15.757  1.6705  1.0008  0.5369
 1812TIP3   OH226926   3.451   5.581  11.628  0.0489  0.4363 -0.2372
 1812TIP3    H126927   3.453   5.557  11.536 -0.3506  1.3867 -0.5120
 1812TIP3    H226928   3.494   5.509  11.674 -0.7284 -0.5767 -1.0500
 1813TIP3   OH226929   1.883   5.314   1.607 -0.3717  0.1616 -0.4863
 1813TIP3    H126930   1.858   5.319   1.515 -1.2644 -0.7404 -0.2970
 1813TIP3    H226931   1.820   5.254   1.647 -0.9973  1.7446  1.0569
 1814TIP3   OH226932   2.444   1.231   3.005  0.1585 -0.3128  0.0503
 1814TIP3    H126933   2.388   1.261   2.932 -0.6279 -0.5400  0.5446
 1814TIP3    H226934   2.530   1.219   2.965 -0.0504  0.4081 -0.6547
 1815TIP3   OH226935   0.244   6.841   5.894 -0.1495  0.2690 -0.6368
 1815TIP3    H126936   0.322   6.893   5.916  0.9481 -1.7322  0.5510
 1815TIP3    H226937   0.274   6.779   5.828 -0.1637 -1.7187  1.1226
 1816TIP3   OH226938   0.574   2.998   3.341 -1.3105 -0.1954  0.3893
 1816TIP3    H126939   0.644   2.948   3.300 -0.8598 -0.2337  1.1858
 1816TIP3    H226940   0.496   2.976   3.291 -0.8487 -0.5384 -0.1942
 1817TIP3   OH226941   5.436   6.375  15.404 -0.4350  0.1348  0.3142
 1817TIP3    H126942   5.350   6.398  15.371  0.2400  1.8616 -0.3727
 1817TIP3    H226943   5.427   6.375  15.499 -0.7208  2.4778  0.3244
 1818TIP3   OH226944   6.110   1.917   1.042  0.0505 -0.2554  0.6442
 1818TIP3    H126945   6.163   1.846   1.005  0.9372  0.3418  0.7431
 1818TIP3    H226946   6.174   1.982   1.070 -0.6420 -0.3231  2.4625
 1819TIP3   OH226947   1.768   5.072   2.219  0.2238 -0.1523 -0.2221
 1819TIP3    H126948   1.775   5.058   2.313  0.5216 -0.0111 -0.2223
 1819TIP3    H226949   1.680   5.109   2.207  0.5386  0.7375  0.1127
 1820TIP3   OH226950   5.368   6.690  14.574  0.6685 -0.0489 -0.0182
 1820TIP3    H126951   5.305   6.710  14.643  1.9404  0.6874  0.9921
 1820TIP3    H226952   5.345   6.602  14.545 -1.4138  0.5615 -0.3929
 1821TIP3   OH226953   1.350   5.777  13.752 -0.3549 -0.0666  0.0007
 1821TIP3    H126954   1.263   5.791  13.715  0.0061 -0.0450 -0.8653
 1821TIP3    H226955   1.362   5.848  13.815 -0.3716  0.8313 -0.9811
 1822TIP3   OH226956   0.307   5.201  13.595  0.0030  0.0584 -0.5086
 1822TIP3    H126957   0.387   5.225  13.549  0.7923 -0.8744  0.3347
 1822TIP3    H226958   0.257   5.283  13.602  1.5836  0.9982  0.3182
 1823TIP3   OH226959   4.804   4.939  15.902 -0.0320  0.7790  0.3649
 1823TIP3    H126960   4.878   4.998  15.891 -0.2526  1.2776  1.4242
 1823TIP3    H226961   4.829   4.860  15.855  0.8674  1.2075  0.1060
 1824TIP3   OH226962   5.642   1.229  14.197  0.2556  0.0106  0.0936
 1824TIP3    H126963   5.681   1.271  14.274  0.7059  1.5095 -0.9048
 1824TIP3    H226964   5.548   1.242  14.207  0.3969  1.4942 -0.2840
 1825TIP3   OH226965   0.934   5.381   3.100 -0.4503 -0.1063  0.2026
 1825TIP3    H126966   0.991   5.409   3.028 -0.3096 -1.7790 -0.3843
 1825TIP3    H226967   0.977   5.414   3.179 -0.4558  1.5167 -0.4182
 1826TIP3   OH226968   6.715   0.429  14.138  0.2028  0.1172 -0.4099
 1826TIP3    H126969   6.627   0.402  14.109 -0.1733  0.9244 -0.0619
 1826TIP3    H226970   6.770   0.352  14.121 -0.6834 -0.6082 -0.1009
 1827TIP3   OH226971   0.918   3.584   4.165 -0.7442 -0.1993  0.3064
 1827TIP3    H126972   0.975   3.510   4.190 -0.1905 -0.0226 -0.3987
 1827TIP3    H226973   0.885   3.560   4.079 -0.7713  0.2562  0.1896
 1828TIP3   OH226974   0.074   2.699   2.967  0.2578 -0.3136  0.4778
 1828TIP3    H126975   0.151   2.718   2.914 -1.3826  0.9604 -1.6161
 1828TIP3    H226976   0.097   2.730   3.054  2.0030  0.2887 -0.1512
 1829TIP3   OH226977   1.169   5.195  11.774  0.0879  0.4052 -0.0509
 1829TIP3    H126978   1.089   5.145  11.792  0.7089 -0.1297  1.3949
 1829TIP3    H226979   1.236   5.151  11.827  1.1822  1.2840 -0.6829
 1830TIP3   OH226980   3.641   0.757   6.194 -0.7696  0.0235  0.4075
 1830TIP3    H126981   3.701   0.757   6.269 -1.3608 -0.6592  0.8917
 1830TIP3    H226982   3.588   0.678   6.206 -0.5736 -0.3473 -0.9735
 1831TIP3   OH226983   4.683   5.894  12.399  0.0776 -0.0009  0.2685
 1831TIP3    H126984   4.671   5.820  12.458 -0.4355 -0.3138 -0.2138
 1831TIP3    H226985   4.733   5.858  12.326 -0.9821 -0.1166 -0.4133
 1832TIP3   OH226986   6.517   0.438  13.544 -0.2298 -0.1265  0.2267
 1832TIP3    H126987   6.504   0.375  13.616  0.7539 -1.3805 -0.6537
 1832TIP3    H226988   6.612   0.447  13.538 -0.3564  1.8697  0.6528
 1833TIP3   OH226989   0.358   3.899  16.587 -0.2868 -0.0645 -0.1137
 1833TIP3    H126990   0.299   3.889  16.513 -2.2579  0.4006  1.2986
 1833TIP3    H226991   0.359   3.814  16.630  2.7599 -1.0821 -1.8788
 1834TIP3   OH226992   2.413   0.532   0.471 -0.9386 -0.4973  0.5433
 1834TIP3    H126993   2.355   0.505   0.399 -1.5567  1.7517  0.1029
 1834TIP3    H226994   2.355   0.538   0.547 -1.5734  2.3767 -0.0342
 1835TIP3   OH226995   6.610   2.200   2.380 -0.0135 -0.0736  0.1914
 1835TIP3    H126996   6.524   2.217   2.343 -1.4220 -1.7753  2.3978
 1835TIP3    H226997   6.617   2.104   2.381  1.4565  0.0122  1.0197
 1836TIP3   OH226998   2.533   6.255  16.282  0.5872  0.2906  0.1930
 1836TIP3    H126999   2.627   6.247  16.264  0.3693 -3.0650 -0.1892
 1836TIP3    H227000   2.508   6.170  16.318 -2.6872  0.3009 -1.6413
 1837TIP3   OH227001   6.354   1.761   2.580 -0.2586  0.4447  0.3026
 1837TIP3    H127002   6.350   1.667   2.562  1.9409  0.2663  0.3592
 1837TIP3    H227003   6.373   1.766   2.673 -0.6744  0.9637  0.3605
 1838TIP3   OH227004   5.128   5.045  10.778  0.2535 -0.5969  0.0545
 1838TIP3    H127005   5.150   4.961  10.738  1.7189 -0.2878  0.1433
 1838TIP3    H227006   5.065   5.024  10.847 -1.8016 -1.2234 -1.9173
 1839TIP3   OH227007   4.547   6.114  12.501  0.5847  0.6923 -0.0428
 1839TIP3    H127008   4.575   6.037  12.453  1.9828  1.5494 -0.6783
 1839TIP3    H227009   4.619   6.176  12.491 -0.6686  2.2377  0.0882
 1840TIP3   OH227010   5.509   0.850  16.634  0.2479  0.3626  0.0396
 1840TIP3    H127011   5.435   0.801  16.670  1.6925 -1.8461  0.1830
 1840TIP3    H227012   5.555   0.883  16.711 -0.3267  1.3908 -0.0384
 1841TIP3   OH227013   0.423   1.171  13.535 -0.4367  0.0420  0.1709
 1841TIP3    H127014   0.358   1.103  13.549 -0.4657 -0.3403 -1.5707
 1841TIP3    H227015   0.490   1.130  13.480  1.0151  0.5940  1.4533
 1842TIP3   OH227016   4.417   4.730   3.026  0.2813  0.6417 -0.6797
 1842TIP3    H127017   4.466   4.663   2.978  2.1738 -0.0490  1.9443
 1842TIP3    H227018   4.331   4.732   2.984  1.3049 -0.8580 -3.0966
 1843TIP3   OH227019   0.742   4.546  16.937  0.0259 -0.1220  0.4786
 1843TIP3    H127020   0.781   4.534  17.023  0.4723 -0.5671  0.2229
 1843TIP3    H227021   0.667   4.486  16.935  0.8241 -1.1293  0.0739
 1844TIP3   OH227022   0.805   1.061   0.735  0.0275  0.0569  0.5383
 1844TIP3    H127023   0.826   0.969   0.721 -1.3144 -0.4125  1.4209
 1844TIP3    H227024   0.719   1.073   0.696  0.8474  1.3705 -0.9911
 1845TIP3   OH227025   4.434   2.465  12.573 -0.1882  0.3407 -0.1763
 1845TIP3    H127026   4.389   2.381  12.565  0.8906 -0.1453 -1.6878
 1845TIP3    H227027   4.519   2.450  12.530  0.5488  1.8262  0.6942
 1846TIP3   OH227028   5.273   0.959  15.367 -0.1671 -0.7874 -0.0770
 1846TIP3    H127029   5.366   0.954  15.391  0.0593 -0.7164 -0.9271
 1846TIP3    H227030   5.250   1.050  15.381  0.6518 -0.1190 -2.5308
 1847TIP3   OH227031   3.578   1.226   5.684 -0.1434  0.1332  0.0601
 1847TIP3    H127032   3.508   1.226   5.749 -1.2327 -0.1929 -1.0624
 1847TIP3    H227033   3.646   1.282   5.721 -0.4378 -0.5864  1.7552
 1848TIP3   OH227034   5.276   5.562  14.242 -0.8856 -0.3611  0.0220
 1848TIP3    H127035   5.202   5.518  14.283 -0.8430 -0.0234  0.4839
 1848TIP3    H227036   5.271   5.652  14.275 -1.0916  0.0379 -1.0607
 1849TIP3   OH227037   2.054   1.473   1.836  0.2309 -0.5910  0.2755
 1849TIP3    H127038   1.995   1.400   1.818  1.6574 -1.7187 -0.0528
 1849TIP3    H227039   2.077   1.507   1.749  0.4239 -0.4704  0.3734
 1850TIP3   OH227040   2.548   5.007   1.348  0.1647  0.0453 -0.1049
 1850TIP3    H127041   2.545   4.914   1.326  1.1220  0.1235 -0.6362
 1850TIP3    H227042   2.639   5.022   1.375  0.5440  1.2280 -1.9018
 1851TIP3   OH227043   0.152   4.674   1.742 -0.3918 -0.5140 -0.2536
 1851TIP3    H127044   0.196   4.758   1.749  1.6917 -1.5002 -0.6765
 1851TIP3    H227045   0.066   4.694   1.706  0.5443  1.3181 -1.6191
 1852TIP3   OH227046   6.137   4.032   0.510  0.1049  0.0722  0.0707
 1852TIP3    H127047   6.058   4.037   0.457 -0.8826 -2.0351  1.2154
 1852TIP3    H227048   6.117   4.086   0.587  1.0432  2.0678 -1.0015
 1853TIP3   OH227049   3.272   1.862   1.117  0.1049  0.0793  0.3008
 1853TIP3    H127050   3.269   1.934   1.179  0.4506  0.4171 -0.0679
 1853TIP3    H227051   3.250   1.901   1.033  3.3064  0.4587 -0.5138
 1854TIP3   OH227052   3.036   0.425   2.181 -0.2123  0.6753 -0.2889
 1854TIP3    H127053   3.045   0.465   2.268 -2.3913  0.1255  0.2575
 1854TIP3    H227054   2.944   0.436   2.159 -0.6881 -2.9228 -0.6286
 1855TIP3   OH227055   0.701   6.331   4.636 -0.4198  0.6447 -0.2788
 1855TIP3    H127056   0.685   6.349   4.543 -0.5792 -0.1209 -0.4043
 1855TIP3    H227057   0.673   6.240   4.648 -1.1980  0.9939  0.7057
 1856TIP3   OH227058   6.086   6.146  16.318 -0.0691  0.3829 -0.0036
 1856TIP3    H127059   6.004   6.114  16.279 -0.2862  1.0290 -0.0805
 1856TIP3    H227060   6.126   6.067  16.357 -0.3649 -0.0686 -0.6005
 1857TIP3   OH227061   6.767   2.394   5.080  0.9821 -0.4254 -0.1055
 1857TIP3    H127062   6.852   2.403   5.038  0.2714  0.7800 -1.3960
 1857TIP3    H227063   6.762   2.469   5.139  1.1362 -0.9628  0.6033
 1858TIP3   OH227064   6.726   0.318   4.228 -0.3366 -0.5110  0.3952
 1858TIP3    H127065   6.686   0.366   4.301  0.8411  1.2535 -0.0606
 1858TIP3    H227066   6.669   0.335   4.153 -0.0727 -0.0372  0.2983
 1859TIP3   OH227067   3.924   0.021   2.125 -0.6826 -0.3296  0.3903
 1859TIP3    H127068   4.002   0.062   2.162 -0.6646  0.7947 -0.8017
 1859TIP3    H227069   3.941  -0.073   2.132  0.5738 -0.1089  0.5777
 1860TIP3   OH227070   4.876   2.189  15.438 -0.7407 -0.0244  0.2751
 1860TIP3    H127071   4.798   2.235  15.469 -1.5746 -0.8752 -0.4969
 1860TIP3    H227072   4.882   2.111  15.492 -0.1878  0.2323  0.5930
 1861TIP3   OH227073   1.552   1.033   5.715 -0.2822  0.1246  0.3356
 1861TIP3    H127074   1.635   1.077   5.730 -0.8503  0.9768  1.1550
 1861TIP3    H227075   1.491   1.104   5.693 -1.0703 -0.3332  0.9947
 1862TIP3   OH227076   4.508   5.452  12.177  0.0659  1.0104 -0.2406
 1862TIP3    H127077   4.453   5.515  12.130 -1.0500  0.3837  0.1820
 1862TIP3    H227078   4.453   5.374  12.185  1.4501 -0.0664 -0.8286
 1863TIP3   OH227079   6.694   0.750   5.430  0.1859  0.2363 -0.1788
 1863TIP3    H127080   6.730   0.667   5.460  0.1193  0.3314  0.1597
 1863TIP3    H227081   6.655   0.729   5.345  1.7714  0.2982 -0.9679
 1864TIP3   OH227082   2.883   0.406  14.987  0.1709  0.6952 -0.2961
 1864TIP3    H127083   2.804   0.427  15.038 -1.0625 -0.9837 -1.3902
 1864TIP3    H227084   2.932   0.347  15.044 -0.4083  0.1020 -0.3954
 1865TIP3   OH227085   5.425   0.194   3.044  0.5054  0.1281  0.4642
 1865TIP3    H127086   5.422   0.166   3.135 -2.5966  3.1653  1.5117
 1865TIP3    H227087   5.461   0.282   3.047  1.1514 -0.0269 -1.3933
 1866TIP3   OH227088   1.911   0.408  13.668  0.1152 -0.2893  0.2155
 1866TIP3    H127089   1.899   0.450  13.583 -0.8593  0.2557  0.6027
 1866TIP3    H227090   1.976   0.340  13.652 -0.3539 -0.4705 -1.0582
 1867TIP3   OH227091   5.507   3.025   0.344 -0.1364 -0.3081  0.0807
 1867TIP3    H127092   5.481   3.037   0.435  0.9992 -0.8180  0.4984
 1867TIP3    H227093   5.572   3.093   0.329 -1.6621  0.9682 -0.9457
 1868TIP3   OH227094   5.494   1.736   5.911  0.2146 -0.4109 -0.1981
 1868TIP3    H127095   5.549   1.727   5.833  1.3699  1.1655  0.3728
 1868TIP3    H227096   5.510   1.657   5.962  1.5083 -0.2766 -0.3531
 1869TIP3   OH227097   2.014   2.736  11.443 -0.1563  0.1365 -0.7227
 1869TIP3    H127098   2.079   2.673  11.474 -1.8284 -1.1054  0.4955
 1869TIP3    H227099   2.047   2.821  11.472  1.2534 -0.3700 -0.7650
 1870TIP3   OH227100   4.196   2.479   3.206 -0.2120  0.0156  0.2499
 1870TIP3    H127101   4.108   2.473   3.243 -0.8503 -1.4449 -1.3445
 1870TIP3    H227102   4.244   2.407   3.247  0.7694  1.7237  2.2671
 1871TIP3   OH227103   4.058   1.738  16.182  0.0041 -0.3731  0.4145
 1871TIP3    H127104   4.037   1.744  16.275  0.6526  0.8745  0.4974
 1871TIP3    H227105   4.148   1.704  16.180 -0.5647 -1.9288  0.1789
 1872TIP3   OH227106   0.449   0.297   2.488 -0.5024  0.0568  0.2572
 1872TIP3    H127107   0.452   0.259   2.575 -0.5341  0.7517  0.5690
 1872TIP3    H227108   0.372   0.354   2.490 -1.5686 -1.2616 -0.7935
 1873TIP3   OH227109   5.138   6.173  15.646  0.0618  0.0812 -0.1967
 1873TIP3    H127110   5.043   6.173  15.663 -0.0379  0.2672 -0.7548
 1873TIP3    H227111   5.166   6.085  15.671 -0.6908 -0.8436 -2.4083
 1874TIP3   OH227112   3.908   2.824  14.361 -0.2587 -0.2370  0.3687
 1874TIP3    H127113   3.866   2.789  14.283 -0.3032  2.1627 -0.7885
 1874TIP3    H227114   4.000   2.830  14.339 -0.1840 -0.0869  0.7069
 1875TIP3   OH227115   6.801   6.285   0.575 -0.6125 -0.6738  0.2450
 1875TIP3    H127116   6.875   6.311   0.630 -0.1226  0.1191 -0.7515
 1875TIP3    H227117   6.725   6.287   0.634 -0.0159 -0.4454  1.0260
 1876TIP3   OH227118   0.534   4.538   4.932  0.1808  0.6190  0.2864
 1876TIP3    H127119   0.525   4.557   5.026  0.4453  1.1643  0.2008
 1876TIP3    H227120   0.604   4.596   4.902 -1.3335  2.0212 -0.7076
 1877TIP3   OH227121   3.579   6.190   2.777 -0.1121  0.1709  0.7420
 1877TIP3    H127122   3.582   6.284   2.795  0.1275  0.2730  0.1854
 1877TIP3    H227123   3.664   6.157   2.806  0.5383  0.4468 -0.7460
 1878TIP3   OH227124   2.044   1.443   3.538 -0.3056  0.2639 -0.2613
 1878TIP3    H127125   2.126   1.428   3.492  0.2905  1.5829  0.3407
 1878TIP3    H227126   1.977   1.413   3.476  0.6261 -1.6003 -0.4343
 1879TIP3   OH227127   0.204   0.541   2.849 -0.1008 -0.1562 -0.1471
 1879TIP3    H127128   0.123   0.591   2.856 -0.2301 -0.5836  2.0793
 1879TIP3    H227129   0.223   0.514   2.939  1.7898 -1.2151 -0.8201
 1880TIP3   OH227130   2.177   3.886   1.754 -0.0337  0.1565  1.0830
 1880TIP3    H127131   2.243   3.852   1.694  0.3341  2.4686  0.0522
 1880TIP3    H227132   2.212   3.869   1.841  0.5573 -1.1469  0.6140
 1881TIP3   OH227133   2.907   6.273   4.550  0.1341 -0.0185 -0.0768
 1881TIP3    H127134   2.885   6.366   4.547 -1.7621 -0.4445 -0.2407
 1881TIP3    H227135   2.942   6.259   4.638 -0.3543  0.6816  0.2326
 1882TIP3   OH227136   3.191   0.959  13.283 -0.3836  0.0253  0.2679
 1882TIP3    H127137   3.225   1.014  13.212 -1.8906  0.2858 -0.2977
 1882TIP3    H227138   3.145   1.021  13.341  1.1320 -0.1246  1.7144
 1883TIP3   OH227139   2.838   5.761  17.093  0.1828 -0.0390 -0.4068
 1883TIP3    H127140   2.785   5.840  17.099 -1.0689 -0.9541  1.7231
 1883TIP3    H227141   2.912   5.778  17.152  0.2475 -0.2416 -0.4298
 1884TIP3   OH227142   1.035   6.683  15.570  0.2823 -0.2492  0.2520
 1884TIP3    H127143   0.975   6.732  15.514 -0.4383 -0.3512  0.9152
 1884TIP3    H227144   1.001   6.695  15.659  1.9902  0.7883  0.8362
 1885TIP3   OH227145   5.009   4.740   4.544 -0.7978  0.1345 -0.3121
 1885TIP3    H127146   5.011   4.727   4.449  2.0799 -0.7433 -0.2307
 1885TIP3    H227147   5.090   4.699   4.575 -0.4507  2.4728  2.2487
 1886TIP3   OH227148   3.116   2.585   2.592  0.0644 -0.0220  0.4920
 1886TIP3    H127149   3.125   2.680   2.580  0.5943 -0.1141  0.0929
 1886TIP3    H227150   3.045   2.575   2.656 -1.8314  0.5522 -1.4138
 1887TIP3   OH227151   2.234   6.185   5.101 -0.3410  0.3915  0.6176
 1887TIP3    H127152   2.157   6.191   5.045 -0.5569 -1.1778  0.7020
 1887TIP3    H227153   2.279   6.269   5.089  0.0778 -0.1569 -2.5744
 1888TIP3   OH227154   2.304   5.527  16.302 -0.1252 -0.1319  0.0973
 1888TIP3    H127155   2.240   5.480  16.354  1.7142 -0.4291  2.2367
 1888TIP3    H227156   2.277   5.619  16.309 -2.0141 -0.4676 -1.6399
 1889TIP3   OH227157   2.017   4.037  10.551  0.1580  0.1731 -0.9219
 1889TIP3    H127158   2.058   4.095  10.616  0.2394  1.2055 -1.8770
 1889TIP3    H227159   2.070   3.957  10.554  0.5344  0.4350 -0.1622
 1890TIP3   OH227160   1.225   1.466  14.541  0.2562 -0.4849  0.1258
 1890TIP3    H127161   1.141   1.503  14.515 -0.0516 -0.7667  0.7193
 1890TIP3    H227162   1.261   1.529  14.603  1.9347  1.2577 -2.4128
 1891TIP3   OH227163   2.261   6.282  16.199  0.3140  0.0704  0.1497
 1891TIP3    H127164   2.235   6.211  16.140  0.1173  1.1782 -1.1649
 1891TIP3    H227165   2.354   6.297  16.177  0.0574  0.9387 -0.3975
 1892TIP3   OH227166   1.931   1.556   4.837 -0.4315 -0.1207  0.7585
 1892TIP3    H127167   2.025   1.534   4.834 -0.1826  0.8773  0.7065
 1892TIP3    H227168   1.888   1.473   4.858  0.3786 -0.7944 -0.1426
 1893TIP3   OH227169   0.485   4.100  11.736 -0.3125  0.5831  0.7362
 1893TIP3    H127170   0.553   4.156  11.773 -2.0571  2.4697  1.2352
 1893TIP3    H227171   0.521   4.073  11.651  0.2767  3.2218  0.0524
 1894TIP3   OH227172   3.212   5.496   3.605 -0.0385  0.1971 -0.1229
 1894TIP3    H127173   3.242   5.427   3.546  2.9639  2.0271 -0.9599
 1894TIP3    H227174   3.292   5.542   3.631 -1.7401  2.3813  1.6902
 1895TIP3   OH227175   4.295   3.242   0.918  0.1628 -0.4564  0.3600
 1895TIP3    H127176   4.284   3.234   1.012 -1.2274  0.6094  0.3248
 1895TIP3    H227177   4.341   3.326   0.907  2.9936 -1.9171  0.1784
 1896TIP3   OH227178   3.612   3.767   6.112  0.0819  0.5446  0.4922
 1896TIP3    H127179   3.520   3.792   6.101 -0.4506 -1.8227 -1.2118
 1896TIP3    H227180   3.610   3.697   6.177  0.3360 -1.0650 -1.1775
 1897TIP3   OH227181   2.091   1.308   5.464  0.1262  0.4121 -0.2827
 1897TIP3    H127182   2.186   1.309   5.476  0.0903 -1.1094  0.2615
 1897TIP3    H227183   2.056   1.272   5.545 -0.8765  0.3746 -0.7156
 1898TIP3   OH227184   3.851   6.394   0.925  0.5629 -0.6752 -0.3547
 1898TIP3    H127185   3.837   6.368   1.016 -0.7606  0.9070 -0.0555
 1898TIP3    H227186   3.935   6.439   0.926 -0.2078  0.8556  0.5006
 1899TIP3   OH227187   1.354   6.093   2.191  0.3257 -0.2320 -0.1980
 1899TIP3    H127188   1.408   6.036   2.136 -0.2832 -1.0842  0.0834
 1899TIP3    H227189   1.318   6.035   2.258 -0.2753  0.4894  0.1122
 1900TIP3   OH227190   5.834   3.445   0.322  0.0934 -0.4270 -0.3803
 1900TIP3    H127191   5.814   3.438   0.416  0.3054 -1.0014 -0.3739
 1900TIP3    H227192   5.753   3.475   0.282  0.6058  2.0623  0.2652
 1901TIP3   OH227193   4.878   1.338  10.322  0.3544 -0.2588  0.2401
 1901TIP3    H127194   4.915   1.380  10.400  0.7398  1.7972 -0.9440
 1901TIP3    H227195   4.794   1.304  10.350 -1.0573  3.2971  0.9386
 1902TIP3   OH227196   4.417   0.470  12.895 -0.9894  0.0467 -0.1239
 1902TIP3    H127197   4.392   0.524  12.970 -1.3472  0.3231 -0.4385
 1902TIP3    H227198   4.355   0.493  12.827 -0.4460  0.0588 -0.6245
 1903TIP3   OH227199   4.306   6.368   5.582 -0.0122  0.7457 -0.7751
 1903TIP3    H127200   4.256   6.366   5.664 -0.1391  2.0089 -0.7977
 1903TIP3    H227201   4.391   6.331   5.605 -0.4713 -0.0766 -0.3776
 1904TIP3   OH227202   1.248   3.378  11.480 -0.3618 -0.0031 -0.5762
 1904TIP3    H127203   1.203   3.313  11.426  0.1477  0.6783 -1.8520
 1904TIP3    H227204   1.182   3.446  11.496 -0.6678 -0.4500  0.1262
 1905TIP3   OH227205   6.634   4.629   6.626 -0.1119 -0.3496 -0.1930
 1905TIP3    H127206   6.671   4.622   6.714  1.4231 -0.6998 -0.8359
 1905TIP3    H227207   6.604   4.719   6.619  0.0265 -0.2398  0.5879
 1906TIP3   OH227208   5.519   0.699  11.943 -0.2464 -0.5699  0.0704
 1906TIP3    H127209   5.525   0.772  11.881  0.8793 -0.4243  0.3333
 1906TIP3    H227210   5.564   0.627  11.899 -0.3524 -0.7704  0.2886
 1907TIP3   OH227211   5.586   2.549  11.971  0.4917 -0.3008  0.0397
 1907TIP3    H127212   5.655   2.492  12.007  0.2573 -1.4184 -1.2084
 1907TIP3    H227213   5.505   2.500  11.987  0.2455 -0.1377 -0.6816
 1908TIP3   OH227214   5.318   4.016  16.904 -0.5307  0.0264  0.3466
 1908TIP3    H127215   5.253   4.077  16.869 -1.1789 -0.9341 -0.1966
 1908TIP3    H227216   5.278   3.929  16.893  0.6785 -0.5638  0.3637
 1909TIP3   OH227217   5.775   0.321  13.884  0.0053  0.2807  0.0288
 1909TIP3    H127218   5.833   0.311  13.960 -0.7675  0.0694  0.6130
 1909TIP3    H227219   5.818   0.274  13.814  0.6098  0.2520  0.4132
 1910TIP3   OH227220   3.707   1.787   2.011 -0.1396 -0.1957  0.5216
 1910TIP3    H127221   3.649   1.740   1.951  2.3180 -0.9624 -1.4213
 1910TIP3    H227222   3.721   1.725   2.083 -0.0743 -0.8524 -0.0426
 1911TIP3   OH227223   5.851   4.605   0.260 -0.0991 -0.1247  0.1797
 1911TIP3    H127224   5.763   4.568   0.249  0.4897 -1.4727 -0.0880
 1911TIP3    H227225   5.864   4.608   0.355  0.0847 -1.1782  0.1899
 1912TIP3   OH227226   6.417   1.089  13.633  0.0764  0.0156  0.0395
 1912TIP3    H127227   6.331   1.051  13.614  0.1037 -0.1841  0.3022
 1912TIP3    H227228   6.444   1.047  13.715  0.9581 -0.8251 -0.6426
 1913TIP3   OH227229   3.343   4.359  14.463  0.1573  0.0569  0.3098
 1913TIP3    H127230   3.369   4.449  14.445  0.5102 -0.1658 -0.2901
 1913TIP3    H227231   3.296   4.331  14.385 -3.0504  0.8414  1.7953
 1914TIP3   OH227232   2.398   2.897  16.452 -0.2790 -0.3024  0.4242
 1914TIP3    H127233   2.402   2.927  16.543  1.1632 -1.2876  0.7295
 1914TIP3    H227234   2.345   2.817  16.456 -1.6539  0.5784  0.0999
 1915TIP3   OH227235   3.556   3.671  15.856 -0.1237 -0.6042 -0.2867
 1915TIP3    H127236   3.527   3.756  15.825 -0.1913 -0.8444 -0.8943
 1915TIP3    H227237   3.523   3.665  15.945  0.7340  0.4209  0.1196
 1916TIP3   OH227238   6.049   2.534  11.657 -0.3590 -0.8457  0.2170
 1916TIP3    H127239   6.134   2.491  11.669 -0.5281 -1.4163 -0.4875
 1916TIP3    H227240   6.032   2.580  11.739  0.8054 -0.4143  0.2200
 1917TIP3   OH227241   4.485   5.680   1.562  0.1326  0.1117  0.7169
 1917TIP3    H127242   4.458   5.719   1.645  0.1316  1.3660  0.1587
 1917TIP3    H227243   4.467   5.748   1.497 -0.7593 -1.1823 -0.4571
 1918TIP3   OH227244   3.453   5.585   0.233 -0.3997  0.0572 -0.1350
 1918TIP3    H127245   3.474   5.501   0.273 -0.5165 -0.0697 -0.3336
 1918TIP3    H227246   3.366   5.607   0.266 -0.8616 -0.4611 -0.9663
 1919TIP3   OH227247   1.099   5.549  15.006  0.3311 -0.0495  0.2941
 1919TIP3    H127248   1.173   5.526  14.950  0.2861 -0.5620  0.4402
 1919TIP3    H227249   1.033   5.584  14.947 -0.2749 -1.8811 -0.1951
 1920TIP3   OH227250   6.804   2.245  15.143  0.4431 -0.0932 -0.6351
 1920TIP3    H127251   6.846   2.303  15.206 -0.4363 -1.0123  0.8730
 1920TIP3    H227252   6.799   2.161  15.189 -1.2425 -0.4966 -1.4996
 1921TIP3   OH227253   1.216   3.123   2.369 -0.3719  0.7290 -0.0856
 1921TIP3    H127254   1.282   3.174   2.416  0.4225 -0.5639  0.2354
 1921TIP3    H227255   1.134   3.172   2.383 -0.1773  0.4478  2.6143
 1922TIP3   OH227256   4.707   1.589   5.524  0.2836 -0.0465 -0.5828
 1922TIP3    H127257   4.794   1.620   5.500  0.5809 -0.2380  0.2114
 1922TIP3    H227258   4.651   1.666   5.516  0.6995  0.2995 -0.2241
 1923TIP3   OH227259   5.141   2.887   3.006  0.3223  0.1487  0.1046
 1923TIP3    H127260   5.149   2.831   3.083  0.3761  1.6447  1.2446
 1923TIP3    H227261   5.210   2.857   2.947  1.5863  0.2125  1.4897
 1924TIP3   OH227262   1.956   4.418   5.641  0.1279  0.4032 -0.0766
 1924TIP3    H127263   1.887   4.481   5.622 -0.9453 -1.1987 -1.7718
 1924TIP3    H227264   2.008   4.414   5.561  0.0945 -0.9135 -0.0588
 1925TIP3   OH227265   6.724   0.981  13.739 -0.1747  0.2958  0.1296
 1925TIP3    H127266   6.716   1.030  13.821  1.0425 -1.8750  1.6375
 1925TIP3    H227267   6.805   1.012  13.699 -1.6364  2.6551 -1.3024
 1926TIP3   OH227268   4.137   6.271   5.803 -0.3595  0.2962 -0.4220
 1926TIP3    H127269   4.217   6.219   5.807 -0.8914 -0.4420  1.9008
 1926TIP3    H227270   4.144   6.332   5.876 -1.9840  0.1099 -0.0727
 1927TIP3   OH227271   6.282   1.661  15.172 -0.4321 -0.3354  0.1759
 1927TIP3    H127272   6.364   1.707  15.189  0.7863 -1.8938 -1.0701
 1927TIP3    H227273   6.243   1.649  15.258  1.1367 -0.3828  0.9252
 1928TIP3   OH227274   6.044   3.098   5.368 -0.2215  0.2553 -0.9630
 1928TIP3    H127275   5.996   3.115   5.287  0.7761 -1.3154 -1.9223
 1928TIP3    H227276   6.135   3.114   5.347 -0.0125  0.5723  0.0926
 1929TIP3   OH227277   1.799   3.105   0.327  0.7321 -0.0896  0.0743
 1929TIP3    H127278   1.832   3.112   0.417  0.5508  0.7780  0.0849
 1929TIP3    H227279   1.842   3.027   0.291  1.0766 -0.2415  0.7982
 1930TIP3   OH227280   5.214   5.708   4.785  0.2618  0.2340 -0.0800
 1930TIP3    H127281   5.247   5.649   4.717  1.8168  3.2708 -2.2263
 1930TIP3    H227282   5.238   5.665   4.867  1.8614 -1.8085 -1.4956
 1931TIP3   OH227283   1.410   1.988   1.017 -0.1540 -0.2662 -0.5934
 1931TIP3    H127284   1.428   1.919   1.081  1.3681 -0.7493 -1.5088
 1931TIP3    H227285   1.320   1.972   0.990 -0.0995 -1.3832 -0.1753
 1932TIP3   OH227286   6.117   3.711   1.736  0.0277 -0.0429 -0.3912
 1932TIP3    H127287   6.117   3.806   1.727 -0.7381  0.0032 -0.0627
 1932TIP3    H227288   6.186   3.681   1.677 -1.0084  0.5822 -2.0045
 1933TIP3   OH227289   4.705   4.373  15.205  0.4499 -0.2376 -0.6946
 1933TIP3    H127290   4.616   4.404  15.192  0.1269 -0.3550  0.9929
 1933TIP3    H227291   4.703   4.282  15.175  0.4056  0.1805 -2.0241
 1934TIP3   OH227292   0.082   1.005  13.537  0.7525 -0.5016  0.1041
 1934TIP3    H127293   0.094   1.024  13.444  0.1612 -1.3096 -0.1484
 1934TIP3    H227294   0.117   0.916  13.547  0.0172 -0.7527  0.4712
 1935TIP3   OH227295   4.530   5.594  16.276  0.0109 -0.1077  0.3437
 1935TIP3    H127296   4.607   5.539  16.266  0.2874  0.3540 -0.1262
 1935TIP3    H227297   4.489   5.594  16.190  1.4537  2.5133 -0.4422
 1936TIP3   OH227298   6.314   2.539   0.724  0.1015  0.9396  0.2767
 1936TIP3    H127299   6.381   2.498   0.669 -0.9338 -2.3745  1.2733
 1936TIP3    H227300   6.245   2.564   0.663  0.0713 -0.3044 -0.2226
 1937TIP3   OH227301   4.036   2.324  15.226 -0.2827  0.1614 -0.3110
 1937TIP3    H127302   4.076   2.243  15.255  0.3371 -0.0630 -1.7143
 1937TIP3    H227303   4.100   2.392  15.247 -0.0118  0.0504 -0.7642
 1938TIP3   OH227304   5.350   0.646  16.151 -0.4085 -0.3580 -0.4737
 1938TIP3    H127305   5.389   0.714  16.206 -0.4753 -0.0613 -0.7899
 1938TIP3    H227306   5.415   0.576  16.151 -0.7793 -0.7120  0.6683
 1939TIP3   OH227307   1.158   4.073   4.364  0.0498 -0.2136  0.0978
 1939TIP3    H127308   1.240   4.076   4.414 -0.0964  2.7434  0.3311
 1939TIP3    H227309   1.093   4.044   4.428  0.6888 -1.5261  0.1927
 1940TIP3   OH227310   4.143   0.530  16.756  0.6886  0.1740 -0.0359
 1940TIP3    H127311   4.177   0.504  16.671 -0.5017  0.1261 -0.5181
 1940TIP3    H227312   4.220   0.540  16.811  1.4225 -0.6442 -0.8848
 1941TIP3   OH227313   1.337   1.097  12.435 -0.0171 -0.1535  0.1908
 1941TIP3    H127314   1.321   1.005  12.457  3.6738 -0.5180  2.1551
 1941TIP3    H227315   1.344   1.099  12.340 -0.0621 -1.8991  0.1319
 1942TIP3   OH227316   4.745   1.628  11.427  0.4877 -0.2641  0.3495
 1942TIP3    H127317   4.718   1.540  11.455  0.3319 -0.0167  1.0147
 1942TIP3    H227318   4.837   1.618  11.403  1.3352 -0.0836  3.1137
 1943TIP3   OH227319   2.092   3.745  10.438  0.1297  0.3775  0.1481
 1943TIP3    H127320   2.061   3.743  10.347 -0.0446 -2.7365  0.1630
 1943TIP3    H227321   2.178   3.786  10.433 -0.5659  1.8006 -1.1326
 1944TIP3   OH227322   3.561   5.039   2.610 -0.9084 -0.2944 -0.1571
 1944TIP3    H127323   3.612   5.082   2.679 -1.0908  1.5427 -1.0930
 1944TIP3    H227324   3.545   4.951   2.643  0.4092  0.0076  1.4131
 1945TIP3   OH227325   5.672   2.848  11.128  0.3564 -0.0643  0.6271
 1945TIP3    H127326   5.700   2.777  11.071 -0.4547 -1.4939  1.9181
 1945TIP3    H227327   5.625   2.804  11.199  0.6371  1.6898  1.9673
 1946TIP3   OH227328   4.989   4.220   3.290  0.2052  0.4322 -0.1584
 1946TIP3    H127329   4.916   4.162   3.310  0.4061  0.5770  1.1167
 1946TIP3    H227330   4.950   4.308   3.284  0.6374  1.2695  4.8004
 1947TIP3   OH227331   3.939   4.140   2.007 -0.2181  0.1176 -0.7293
 1947TIP3    H127332   4.033   4.152   2.003 -0.2028 -0.3197 -2.1683
 1947TIP3    H227333   3.902   4.224   1.983 -0.1801 -0.0449 -1.3669
 1948TIP3   OH227334   0.597   2.410   2.345  0.1218  0.3378 -0.4359
 1948TIP3    H127335   0.565   2.474   2.282 -0.1906  2.1311  1.4476
 1948TIP3    H227336   0.526   2.398   2.408  1.4131  0.8671  1.2201
 1949TIP3   OH227337   2.227   6.733   3.456  0.3361 -0.2824  0.6753
 1949TIP3    H127338   2.158   6.668   3.450 -0.3477  0.4546  0.4093
 1949TIP3    H227339   2.237   6.766   3.366  1.4517 -0.8027  0.5884
 1950TIP3   OH227340   0.527   5.104  12.346 -0.3300 -0.0862  0.0100
 1950TIP3    H127341   0.469   5.111  12.271  0.4282  2.0047 -0.4498
 1950TIP3    H227342   0.614   5.092  12.308 -0.1880 -1.2160  0.6407
 1951TIP3   OH227343   2.806   2.100  10.760  0.4448 -0.0348  0.3941
 1951TIP3    H127344   2.808   2.174  10.820  2.8897 -1.0710  1.7761
 1951TIP3    H227345   2.898   2.088  10.733 -0.3308 -0.6100 -2.3461
 1952TIP3   OH227346   1.372   3.259  16.433  0.4449 -0.2147  0.3069
 1952TIP3    H127347   1.343   3.229  16.347  0.1682  0.5718  0.1215
 1952TIP3    H227348   1.349   3.188  16.492 -0.4255 -0.2705 -0.0888
 1953TIP3   OH227349   4.324   0.664   3.164  0.2725  0.6226 -0.1479
 1953TIP3    H127350   4.332   0.755   3.193  0.4351  0.4663  0.3012
 1953TIP3    H227351   4.377   0.660   3.085  0.7447  0.7783  0.1562
 1954TIP3   OH227352   0.544   0.640  12.847  0.0704  0.0356  0.0418
 1954TIP3    H127353   0.608   0.620  12.779  3.6461  0.8607  2.8415
 1954TIP3    H227354   0.518   0.731  12.829  2.3465  0.8627  0.6532
 1955TIP3   OH227355   4.286   3.514   0.266  0.1436 -0.3536 -0.4933
 1955TIP3    H127356   4.313   3.433   0.309 -1.0031 -0.3995  0.1708
 1955TIP3    H227357   4.357   3.576   0.285 -0.2913 -0.3851  1.4340
 1956TIP3   OH227358   3.168   5.957   2.890 -0.0298 -0.3082 -0.0861
 1956TIP3    H127359   3.246   5.979   2.940 -1.0783 -2.1745  2.5688
 1956TIP3    H227360   3.201   5.936   2.802  1.8136  3.6749 -0.5556
 1957TIP3   OH227361   6.372   6.512   4.515 -0.3795 -0.8736 -0.4694
 1957TIP3    H127362   6.433   6.512   4.441 -0.8479 -0.3468 -0.8693
 1957TIP3    H227363   6.410   6.575   4.577 -0.2386 -0.9470 -0.4813
 1958TIP3   OH227364   3.400   5.646  16.793 -0.1497  0.5152 -0.0770
 1958TIP3    H127365   3.395   5.560  16.835 -0.6343  0.1107 -0.9409
 1958TIP3    H227366   3.326   5.695  16.830 -0.0650  0.4508  0.1754
 1959TIP3   OH227367   0.988   2.516  10.961  0.3592  0.8822  0.4180
 1959TIP3    H127368   1.067   2.558  10.993 -0.1447  3.7116 -1.6219
 1959TIP3    H227369   0.977   2.550  10.872 -1.9972 -1.1015 -0.1712
 1960TIP3   OH227370   4.959   2.305  13.171  0.4652  0.9992  0.0713
 1960TIP3    H127371   4.957   2.355  13.089  1.6299  2.3107  0.8026
 1960TIP3    H227372   5.025   2.238  13.157 -1.7950 -1.1428 -1.2801
 1961TIP3   OH227373   1.453   5.007   5.496  0.1123 -0.2010  0.6517
 1961TIP3    H127374   1.451   4.922   5.451 -0.8696  1.0967 -1.9502
 1961TIP3    H227375   1.362   5.027   5.513 -0.0118  1.6890 -1.6941
 1962TIP3   OH227376   2.758   2.576   4.210  0.2062 -0.8983 -0.0630
 1962TIP3    H127377   2.665   2.552   4.217  0.9325 -3.5029  2.3627
 1962TIP3    H227378   2.759   2.645   4.143 -3.6164  0.1896  0.7244
 1963TIP3   OH227379   4.742   4.445  11.580 -0.5466 -0.2956  0.0592
 1963TIP3    H127380   4.692   4.526  11.577 -1.6531 -0.9778 -0.9413
 1963TIP3    H227381   4.833   4.472  11.590 -0.7559  1.1054 -1.5543
 1964TIP3   OH227382   1.817   6.544   1.766 -0.7180  0.1551  0.0018
 1964TIP3    H127383   1.837   6.541   1.672 -0.9727 -0.7086 -0.0306
 1964TIP3    H227384   1.902   6.556   1.808 -0.4782 -0.4825 -0.2884
 1965TIP3   OH227385   0.246   2.724   1.764  0.1170  0.1552  0.0980
 1965TIP3    H127386   0.207   2.689   1.844  1.8840 -1.7417  0.2211
 1965TIP3    H227387   0.325   2.770   1.793  0.4340 -0.0018 -0.4782
 1966TIP3   OH227388   2.187   1.502  14.635  0.4782 -0.1124 -0.3900
 1966TIP3    H127389   2.104   1.456  14.625  0.0724  0.4901  0.1424
 1966TIP3    H227390   2.248   1.434  14.664  0.1255 -0.5121 -0.5650
 1967TIP3   OH227391   1.307   2.098   2.892  0.0025 -0.7877  0.0868
 1967TIP3    H127392   1.395   2.130   2.873 -0.7714  1.3191 -0.2318
 1967TIP3    H227393   1.317   2.047   2.972  1.5678 -0.8973 -0.1472
 1968TIP3   OH227394   4.237   0.570  11.017 -0.0498 -0.3879 -0.0172
 1968TIP3    H127395   4.314   0.626  11.003 -0.5974 -0.2121 -3.1211
 1968TIP3    H227396   4.163   0.625  10.993 -0.6165 -2.2701 -3.1285
 1969TIP3   OH227397   0.980   1.954   3.554  0.2885  0.0974 -0.3262
 1969TIP3    H127398   0.896   1.956   3.507  0.9369 -0.1914 -1.5373
 1969TIP3    H227399   0.958   1.979   3.644 -0.7187  2.6369 -1.1969
 1970TIP3   OH227400   5.079   2.816  10.330  0.3333 -0.4197  0.0914
 1970TIP3    H127401   5.136   2.759  10.278  0.3298 -0.2412 -0.1106
 1970TIP3    H227402   5.047   2.760  10.401 -0.3460 -0.9134 -0.5877
 1971TIP3   OH227403   4.728   2.434   5.654  0.0738  0.0180  0.2741
 1971TIP3    H127404   4.718   2.458   5.562 -1.6277 -0.7112  0.2250
 1971TIP3    H227405   4.646   2.462   5.694  0.2773 -0.8262  1.3109
 1972TIP3   OH227406   2.773   4.902  15.032  0.4882  0.3311  0.2003
 1972TIP3    H127407   2.696   4.958  15.042  0.6945  0.6869 -0.1907
 1972TIP3    H227408   2.833   4.953  14.978  0.7034 -0.2430 -0.1036
 1973TIP3   OH227409   1.805   4.164   2.531 -0.1954 -0.0915  0.2636
 1973TIP3    H127410   1.747   4.240   2.525  1.0815  0.9354  0.4352
 1973TIP3    H227411   1.769   4.101   2.468 -0.6118  1.1285 -0.7563
 1974TIP3   OH227412   0.832   3.353   2.177  0.0310  0.4972 -0.2663
 1974TIP3    H127413   0.805   3.293   2.107  0.0679 -0.3277  0.4213
 1974TIP3    H227414   0.823   3.440   2.137  0.2303  0.0388 -1.3615
 1975TIP3   OH227415   6.310   6.191  14.969 -0.3894  0.2043 -0.0813
 1975TIP3    H127416   6.299   6.110  14.919  0.8184  0.5095 -0.8796
 1975TIP3    H227417   6.365   6.165  15.043 -0.0372  0.2747 -0.3143
 1976TIP3   OH227418   0.742   2.311   0.300  0.3880  0.5473  0.5059
 1976TIP3    H127419   0.739   2.228   0.252  1.6071 -0.9020  2.7572
 1976TIP3    H227420   0.794   2.369   0.244 -0.1119 -0.3123 -0.9131
 1977TIP3   OH227421   2.613   0.382  16.211  0.2953  0.1087  0.5007
 1977TIP3    H127422   2.634   0.405  16.121 -1.4913  1.0386  0.2777
 1977TIP3    H227423   2.545   0.445  16.237 -0.3318 -1.0970  1.9630
 1978TIP3   OH227424   4.815   3.947   3.200  0.0453 -0.1457  0.0959
 1978TIP3    H127425   4.869   3.916   3.127 -0.2842  1.1631 -0.7331
 1978TIP3    H227426   4.749   4.003   3.159 -0.1272  0.6377  1.4015
 1979TIP3   OH227427   5.852   0.881  10.711 -0.5164 -0.2358  0.0364
 1979TIP3    H127428   5.896   0.807  10.668 -0.3167 -0.5524  0.7734
 1979TIP3    H227429   5.909   0.956  10.693 -0.4872 -0.3460 -0.3390
 1980TIP3   OH227430   4.515   0.444  15.855  0.4531 -0.3505  0.5941
 1980TIP3    H127431   4.562   0.524  15.878  0.7623  0.1981 -1.6819
 1980TIP3    H227432   4.530   0.385  15.929  0.7260  1.4613  2.0514
 1981TIP3   OH227433   0.917   5.919   3.788  0.4184  0.6592  0.2279
 1981TIP3    H127434   0.941   5.842   3.839 -0.6136  0.9034  1.1332
 1981TIP3    H227435   0.979   5.987   3.816  0.3969  0.5559  0.5343
 1982TIP3   OH227436   3.888   1.532  16.662  0.2297 -0.3580 -0.6862
 1982TIP3    H127437   3.896   1.484  16.580  3.2722 -0.6172 -0.3625
 1982TIP3    H227438   3.978   1.555  16.685 -0.5653  0.1753  2.3093
 1983TIP3   OH227439   6.463   2.088  11.488 -0.5590  0.1937 -0.3123
 1983TIP3    H127440   6.423   2.100  11.402  0.6858  0.6704 -0.8320
 1983TIP3    H227441   6.414   2.146  11.545 -2.3210 -1.1330 -0.3658
 1984TIP3   OH227442   3.449   4.757  12.132 -0.4071 -0.3742  0.5740
 1984TIP3    H127443   3.521   4.718  12.181  0.3688  0.1321 -0.1340
 1984TIP3    H227444   3.489   4.785  12.049 -1.5650 -0.6922 -0.1093
 1985TIP3   OH227445   4.783   5.075  12.641  0.8394 -0.5410  0.0705
 1985TIP3    H127446   4.741   5.113  12.718  3.4817 -1.8881  2.3149
 1985TIP3    H227447   4.709   5.047  12.586 -1.1605  2.1934  1.0856
 1986TIP3   OH227448   3.290   5.373   5.404 -0.5548  0.0254 -0.6137
 1986TIP3    H127449   3.277   5.311   5.476 -1.0521  0.4289 -0.3480
 1986TIP3    H227450   3.216   5.434   5.411 -1.1543 -0.4897 -2.0655
 1987TIP3   OH227451   0.466   2.610  11.597 -0.1676 -0.1648 -0.0539
 1987TIP3    H127452   0.495   2.537  11.652 -1.0312  0.8759  1.8782
 1987TIP3    H227453   0.371   2.600  11.593 -0.2992  0.8341  0.2578
 1988TIP3   OH227454   2.450   5.107  16.029  0.1571  0.3466  0.4095
 1988TIP3    H127455   2.379   5.123  16.092  0.0264 -0.0585  0.3651
 1988TIP3    H227456   2.530   5.129  16.077  0.1389 -0.9496  1.0595
 1989TIP3   OH227457   1.698   5.300  13.571  0.1614 -0.3997 -0.2787
 1989TIP3    H127458   1.749   5.345  13.503 -0.1354  2.4548  1.2309
 1989TIP3    H227459   1.759   5.289  13.644 -0.7722  1.3347  0.8382
 1990TIP3   OH227460   4.762   4.364  11.059  0.5110  0.0444 -0.1255
 1990TIP3    H127461   4.702   4.423  11.014  0.9854  0.5852 -0.0544
 1990TIP3    H227462   4.747   4.379  11.152  1.0012  0.4407 -0.1056
 1991TIP3   OH227463   2.024   0.589  16.391  0.4754 -0.1085  0.3513
 1991TIP3    H127464   1.992   0.546  16.312 -0.5190  1.3980 -0.1086
 1991TIP3    H227465   1.973   0.549  16.462 -0.7811  0.6153 -0.1190
 1992TIP3   OH227466   1.324   2.766   1.864  0.2204 -0.4127 -0.4713
 1992TIP3    H127467   1.288   2.844   1.822  0.9475  0.0482 -0.2553
 1992TIP3    H227468   1.418   2.781   1.867  0.1531 -0.0502  2.0533
 1993TIP3   OH227469   2.538   4.566   5.598 -0.2756 -0.6147 -0.0026
 1993TIP3    H127470   2.498   4.649   5.573 -1.6096 -0.9548  0.8881
 1993TIP3    H227471   2.631   4.579   5.584 -0.3257  1.4270  1.1152
 1994TIP3   OH227472   1.191   4.025  15.963 -0.3460  0.0821  0.6196
 1994TIP3    H127473   1.163   4.095  16.022 -2.4326 -1.2885  1.3798
 1994TIP3    H227474   1.154   4.049  15.878  0.3687  0.7075  0.4757
 1995TIP3   OH227475   4.552   1.438  16.805  0.5166 -0.3662  0.3160
 1995TIP3    H127476   4.567   1.344  16.809  0.7089 -0.3123  0.9531
 1995TIP3    H227477   4.481   1.454  16.867 -1.2290 -0.4124 -1.5684
 1996TIP3   OH227478   4.271   0.687   4.094 -0.5076 -0.3237  0.3467
 1996TIP3    H127479   4.280   0.779   4.071  0.2723 -0.7279 -1.0816
 1996TIP3    H227480   4.323   0.641   4.028 -0.8653 -1.7830  1.0536
 1997TIP3   OH227481   5.231   4.787  14.826  0.2946 -0.2689  0.2476
 1997TIP3    H127482   5.151   4.758  14.870  0.5135 -0.1678  0.7173
 1997TIP3    H227483   5.247   4.721  14.759 -1.9460  1.3062 -2.0424
 1998TIP3   OH227484   0.200   5.482  13.573  0.2237 -0.0951  0.3188
 1998TIP3    H127485   0.112   5.509  13.601 -0.6645 -2.8767  0.5145
 1998TIP3    H227486   0.259   5.524  13.636 -0.8961  1.9613  0.0881
 1999TIP3   OH227487   2.635   1.357  11.467  0.6282  0.4460 -0.2989
 1999TIP3    H127488   2.586   1.427  11.424  0.6548  1.5392  1.3831
 1999TIP3    H227489   2.670   1.397  11.547 -0.6243 -1.8586  1.5191
 2000TIP3   OH227490   4.319   4.997  14.177 -0.2800  0.2298  0.1158
 2000TIP3    H127491   4.305   5.067  14.113  2.7032  0.0264 -0.9166
 2000TIP3    H227492   4.407   5.014  14.212 -1.4683 -0.1169  3.6831
 2001TIP3   OH227493   4.791   4.500   3.857 -0.4093  0.0778  0.0439
 2001TIP3    H127494   4.828   4.526   3.772 -0.4557 -2.1705 -0.7160
 2001TIP3    H227495   4.854   4.533   3.921 -0.2693  1.6303 -0.8519
 2002TIP3   OH227496   2.310   1.755  13.315  0.1575  0.1263  0.1827
 2002TIP3    H127497   2.277   1.717  13.234  1.5463 -2.3745  0.7017
 2002TIP3    H227498   2.238   1.743  13.378 -0.4622  0.9580 -0.3557
 2003TIP3   OH227499   5.818   2.508  12.118 -0.6173  0.4641 -0.0296
 2003TIP3    H127500   5.859   2.595  12.111 -2.1306  1.2059  0.0215
 2003TIP3    H227501   5.799   2.498  12.211 -2.8916  1.2851 -0.3477
 2004TIP3   OH227502   6.057   0.399  12.109  0.2077 -0.6078  0.2369
 2004TIP3    H127503   6.134   0.364  12.065  0.7366  0.8236 -0.0383
 2004TIP3    H227504   5.987   0.393  12.045  0.6574  0.2297 -0.3483
 2005TIP3   OH227505   4.310   0.406   3.963 -0.1737 -0.9564 -0.0093
 2005TIP3    H127506   4.217   0.392   3.978 -0.3653  0.9363  0.8484
 2005TIP3    H227507   4.315   0.456   3.882 -0.0101  0.0372  0.5996
 2006TIP3   OH227508   3.369   2.440  14.412 -0.2884  0.0030 -0.3285
 2006TIP3    H127509   3.324   2.510  14.364  1.5022  1.2525 -0.3046
 2006TIP3    H227510   3.451   2.480  14.440  0.5180 -1.9561  0.2536
 2007TIP3   OH227511   3.378   5.927  13.423  0.5029  0.2727  0.6508
 2007TIP3    H127512   3.314   5.879  13.476  1.0799  0.8608  1.9165
 2007TIP3    H227513   3.461   5.883  13.439  0.7557  0.7109  0.5532
 2008TIP3   OH227514   0.054   0.265   3.721 -0.1640 -0.0489 -0.5447
 2008TIP3    H127515   0.047   0.225   3.635  1.2393 -1.2924 -0.1305
 2008TIP3    H227516  -0.033   0.300   3.739 -0.3609  0.7264 -2.6655
 2009TIP3   OH227517   0.430   0.787  11.370  0.0652  0.2142 -0.0172
 2009TIP3    H127518   0.513   0.754  11.335 -1.3603 -0.8227 -2.7366
 2009TIP3    H227519   0.443   0.882  11.377  1.2272  0.1855 -1.2602
 2010TIP3   OH227520   2.160   4.413   0.706 -0.3288 -0.3528  0.1002
 2010TIP3    H127521   2.135   4.321   0.697 -0.3408 -0.4964  1.3750
 2010TIP3    H227522   2.145   4.451   0.620 -3.9732 -0.6804  0.4382
 2011TIP3   OH227523   5.834   4.473   5.493 -0.3294 -0.1167  0.1239
 2011TIP3    H127524   5.767   4.508   5.435  0.6838  0.5984 -0.6511
 2011TIP3    H227525   5.879   4.551   5.527  0.8347 -0.6143 -0.2531
 2012TIP3   OH227526   0.590   6.798   1.747  0.3657  0.0255  0.4559
 2012TIP3    H127527   0.499   6.813   1.769  0.2075 -1.9685  1.3618
 2012TIP3    H227528   0.638   6.815   1.828  0.8199  1.0159  0.0011
 2013TIP3   OH227529   3.428   0.159  16.222  0.7286 -0.3565  0.5915
 2013TIP3    H127530   3.408   0.130  16.311  0.9323 -1.6318  0.2388
 2013TIP3    H227531   3.519   0.132  16.208  0.9987  0.6585  0.3092
 2014TIP3   OH227532   2.959   0.596  16.394  0.1259  0.0133 -0.1259
 2014TIP3    H127533   2.869   0.621  16.412 -0.3309 -0.9703 -0.9151
 2014TIP3    H227534   3.010   0.677  16.406 -0.8657  0.5964  0.2327
 2015TIP3   OH227535   4.847   3.242  12.280  0.3979 -0.0399  0.2210
 2015TIP3    H127536   4.760   3.267  12.251  0.5600  0.3842  0.1004
 2015TIP3    H227537   4.903   3.316  12.257  0.9272 -0.6121 -0.3917
 2016TIP3   OH227538   0.467   1.927   1.701 -0.1082  0.3381  0.3933
 2016TIP3    H127539   0.373   1.910   1.704 -0.9548  4.2832  1.0603
 2016TIP3    H227540   0.493   1.902   1.612 -1.6851 -1.0375  0.2732
 2017TIP3   OH227541   0.034   2.745   3.233  0.7226  0.5121 -0.2997
 2017TIP3    H127542  -0.058   2.766   3.250  0.0267  0.5261 -3.5250
 2017TIP3    H227543   0.035   2.650   3.221  1.0589  0.5471 -0.5526
 2018TIP3   OH227544   5.602   0.185  12.210  0.5228  0.5030 -0.0402
 2018TIP3    H127545   5.687   0.184  12.253  0.8405  0.6889 -0.6631
 2018TIP3    H227546   5.561   0.102  12.234  0.1457  1.1420  1.7138
 2019TIP3   OH227547   5.133   2.974  13.965 -0.7817  0.4833  0.1735
 2019TIP3    H127548   5.107   2.882  13.976  0.5207  0.1379  0.4536
 2019TIP3    H227549   5.167   2.979  13.876  1.6911  0.0270  1.0285
 2020TIP3   OH227550   4.650   6.436  11.581 -0.3311 -0.1827  0.4321
 2020TIP3    H127551   4.613   6.349  11.564  1.9092 -1.0496 -0.3786
 2020TIP3    H227552   4.645   6.446  11.676 -1.8467 -0.5874  0.4232
 2021TIP3   OH227553   0.648   6.556  11.167 -0.1048 -0.3236 -0.1248
 2021TIP3    H127554   0.647   6.505  11.087 -2.9167 -1.0801  0.3040
 2021TIP3    H227555   0.569   6.609  11.164  0.7143  1.0959  1.2839
 2022TIP3   OH227556   4.001   3.455  14.630 -0.1836 -0.4809 -0.2020
 2022TIP3    H127557   3.919   3.457  14.581 -0.9084  2.9872  0.8544
 2022TIP3    H227558   4.068   3.438  14.564 -1.3009  2.0029 -2.1786
 2023TIP3   OH227559   5.351   3.501  16.331  0.0299 -0.3635  0.2078
 2023TIP3    H127560   5.411   3.523  16.260 -0.9565 -1.1959 -0.9330
 2023TIP3    H227561   5.407   3.489  16.407  1.3113 -0.9527 -0.7881
 2024TIP3   OH227562   5.114   6.658   6.330 -0.5678  0.1211 -0.1434
 2024TIP3    H127563   5.030   6.661   6.376 -0.6138 -0.0434 -0.2158
 2024TIP3    H227564   5.127   6.747   6.298 -1.9763 -0.3941 -2.3741
 2025TIP3   OH227565   2.662   3.806  16.883 -0.3827 -0.1159 -0.0169
 2025TIP3    H127566   2.662   3.848  16.797  1.1273  0.2066  0.1142
 2025TIP3    H227567   2.754   3.797  16.905 -0.6864 -2.2458  0.5890
 2026TIP3   OH227568   4.071   0.001  12.517  0.2766  0.1549 -0.1230
 2026TIP3    H127569   3.997   0.017  12.574 -0.9964  0.8884 -1.8881
 2026TIP3    H227570   4.112   0.087  12.507  0.5590  0.0100 -0.2167
 2027TIP3   OH227571   0.264   4.325  10.910  0.4337 -0.8101  0.5426
 2027TIP3    H127572   0.168   4.320  10.902  0.0321  2.0079  2.3008
 2027TIP3    H227573   0.293   4.235  10.896 -2.3746 -1.6116 -0.9403
 2028TIP3   OH227574   2.184   5.039   4.226 -0.3505  0.3509  0.3346
 2028TIP3    H127575   2.095   5.037   4.262 -0.1531 -0.3110  0.7928
 2028TIP3    H227576   2.171   5.048   4.131 -0.8779  1.5484  0.5085
 2029TIP3   OH227577   3.264   3.894   4.005 -0.6130  0.1703 -0.1154
 2029TIP3    H127578   3.302   3.844   4.076 -1.7650 -0.8076 -0.1546
 2029TIP3    H227579   3.193   3.839   3.972 -0.1574  0.6245 -1.9729
 2030TIP3   OH227580   3.342   2.802  15.610  0.0005 -0.1586 -0.2336
 2030TIP3    H127581   3.365   2.731  15.670 -1.2227 -0.0057  0.4374
 2030TIP3    H227582   3.414   2.864  15.619 -0.8467  0.5974  2.2941
 2031TIP3   OH227583   0.570   2.812  15.450 -0.1300 -0.2589 -0.1841
 2031TIP3    H127584   0.483   2.850  15.442 -1.9766 -3.5775  1.6029
 2031TIP3    H227585   0.621   2.852  15.380 -2.6946  2.7174 -0.5645
 2032TIP3   OH227586   5.961   1.496  15.678  0.5472 -0.0984  0.0243
 2032TIP3    H127587   6.038   1.533  15.634  1.8359  0.6285  2.6382
 2032TIP3    H227588   5.897   1.567  15.677  0.1635 -0.4349 -1.4788
 2033TIP3   OH227589   6.333   6.000  11.386  0.8151 -0.5116  0.1865
 2033TIP3    H127590   6.239   5.992  11.373  0.5094 -2.3981  2.7762
 2033TIP3    H227591   6.346   6.090  11.417 -0.2826 -0.5454  0.7657
 2034TIP3   OH227592   3.713   0.287  14.884 -0.0191  0.0778  0.0182
 2034TIP3    H127593   3.788   0.228  14.881 -0.1405 -0.1786  1.4588
 2034TIP3    H227594   3.747   0.370  14.851  0.3968 -0.5117 -1.0962
 2035TIP3   OH227595   0.781   3.797   5.653 -0.0317  0.6483  0.3117
 2035TIP3    H127596   0.778   3.796   5.557  2.7893 -0.1352  0.1466
 2035TIP3    H227597   0.709   3.854   5.678 -0.4692  1.3920 -2.2946
 2036TIP3   OH227598   6.156   0.044   1.413  0.0346 -0.2980  0.5533
 2036TIP3    H127599   6.082   0.045   1.353  0.1148  0.1771  0.4543
 2036TIP3    H227600   6.231   0.070   1.359  0.0102  0.6947  0.9641
 2037TIP3   OH227601   6.391   1.479   2.096 -0.5973 -0.4837 -0.2091
 2037TIP3    H127602   6.346   1.552   2.139 -0.1487 -1.2447  1.6128
 2037TIP3    H227603   6.484   1.498   2.109 -0.4408 -0.6875 -0.9685
 2038TIP3   OH227604   2.222   4.105   4.333 -0.3886 -0.0812 -0.3728
 2038TIP3    H127605   2.313   4.116   4.307 -0.7534 -0.2596 -1.8135
 2038TIP3    H227606   2.183   4.055   4.262 -1.4075 -0.8125  0.6552
 2039TIP3   OH227607   0.065   0.216   1.220 -0.1157 -0.1527 -0.0581
 2039TIP3    H127608   0.042   0.247   1.307  0.4305 -0.8834  0.3562
 2039TIP3    H227609   0.056   0.293   1.164  0.1606  0.4872  0.7562
 2040TIP3   OH227610   4.353   3.506  13.989  0.1821 -0.2216  0.4314
 2040TIP3    H127611   4.274   3.481  14.037  1.3034 -0.9319  1.9952
 2040TIP3    H227612   4.374   3.429  13.936  1.4134 -1.2095  2.2454
 2041TIP3   OH227613   1.456   0.871  15.790  0.1519  0.6041 -0.5039
 2041TIP3    H127614   1.379   0.925  15.806  2.4930  4.0367  0.3675
 2041TIP3    H227615   1.474   0.829  15.875 -0.4394  0.2367 -0.5598
 2042TIP3   OH227616   1.331   3.522   0.498  0.4822  0.3168  0.3788
 2042TIP3    H127617   1.262   3.530   0.432 -0.4042 -1.8439  0.9517
 2042TIP3    H227618   1.409   3.495   0.448 -0.0041 -0.6112  0.1001
 2043TIP3   OH227619   0.198   3.182  13.416 -0.1394 -0.0321  0.2085
 2043TIP3    H127620   0.164   3.212  13.332 -0.5098  0.4726  0.5307
 2043TIP3    H227621   0.221   3.263  13.463  2.0042 -0.3485 -0.1882
 2044TIP3   OH227622   2.957   0.071  16.619  0.2175 -0.1460  0.0200
 2044TIP3    H127623   2.872   0.032  16.638  0.3187  0.0101  0.8125
 2044TIP3    H227624   2.970   0.056  16.525 -0.8426  0.1568 -0.1785
 2045TIP3   OH227625   2.552   1.058   2.612  0.2148 -0.2496 -0.0515
 2045TIP3    H127626   2.468   1.065   2.567  0.1482 -0.2510  0.0704
 2045TIP3    H227627   2.529   1.033   2.702  0.3292 -0.0115  0.0467
 2046TIP3   OH227628   6.417   0.814   0.827  0.4291 -0.2712  0.1691
 2046TIP3    H127629   6.378   0.851   0.906 -2.5888 -0.9198 -0.9075
 2046TIP3    H227630   6.445   0.726   0.853  0.0839 -0.2351  0.6798
 2047TIP3   OH227631   0.908   3.349  17.164  0.3677 -0.2511 -0.0558
 2047TIP3    H127632   0.945   3.282  17.108 -0.5737 -1.1080  0.3005
 2047TIP3    H227633   0.820   3.317  17.184 -0.5040  1.5795 -0.6984
 2048TIP3   OH227634   2.465   4.713   4.507 -0.0005 -0.4356 -0.1425
 2048TIP3    H127635   2.458   4.659   4.428  0.2632  1.0003 -1.1930
 2048TIP3    H227636   2.422   4.796   4.484 -2.8246 -1.0316  2.2940
 2049TIP3   OH227637   5.539   4.662  15.802 -0.1503  0.5696 -0.0364
 2049TIP3    H127638   5.458   4.612  15.812  0.5927 -0.3661  1.6362
 2049TIP3    H227639   5.559   4.656  15.709  0.5795 -3.4572  0.1820
 2050TIP3   OH227640   6.231   3.986   3.116  0.0254  0.3406  0.1891
 2050TIP3    H127641   6.326   4.001   3.113 -0.1451  1.3668 -1.9379
 2050TIP3    H227642   6.217   3.939   3.198  2.4554 -0.4296  0.2501
 2051TIP3   OH227643   3.582   1.263   3.944  0.3647 -0.2215  0.0874
 2051TIP3    H127644   3.575   1.175   3.908  1.3902  0.0453 -0.8307
 2051TIP3    H227645   3.655   1.259   4.006 -1.1494 -0.5824  1.9425
 2052TIP3   OH227646   0.430   3.880  12.513 -0.3914 -0.3939 -0.5535
 2052TIP3    H127647   0.526   3.878  12.508 -0.3272 -1.1049  0.5440
 2052TIP3    H227648   0.405   3.958  12.465  0.9097  1.3055  1.3555
 2053TIP3   OH227649   5.833   0.988   2.834 -0.0383  0.4389  0.0669
 2053TIP3    H127650   5.858   1.066   2.884  0.7348  0.4210 -0.2745
 2053TIP3    H227651   5.752   0.958   2.876  0.3960  0.6258  1.0869
 2054TIP3   OH227652   1.706   0.581   0.327  0.8045  0.7078 -0.0891
 2054TIP3    H127653   1.625   0.564   0.279  0.2915  1.3474  0.5201
 2054TIP3    H227654   1.693   0.668   0.365  1.5711  0.6019  0.4365
 2055TIP3   OH227655   3.942   4.308  15.517 -0.5098  0.5391  0.6953
 2055TIP3    H127656   3.888   4.239  15.478 -0.4238  1.5950 -1.4308
 2055TIP3    H227657   4.015   4.261  15.557 -1.0922 -0.6735  0.4021
 2056TIP3   OH227658   1.164   1.858   0.992  0.0717  0.7546  0.1838
 2056TIP3    H127659   1.090   1.879   1.049 -0.3348  0.0441 -0.0709
 2056TIP3    H227660   1.132   1.873   0.904 -0.2406 -0.8805 -0.0116
 2057TIP3   OH227661   0.112   5.792  16.571 -0.0962 -0.1305 -0.2942
 2057TIP3    H127662   0.182   5.836  16.521  0.5442 -0.3383  0.3912
 2057TIP3    H227663   0.080   5.860  16.631 -2.2352  0.7208 -2.2744
 2058TIP3   OH227664   3.308   0.381  15.063  0.2150  0.0819 -0.4781
 2058TIP3    H127665   3.249   0.457  15.058 -0.3741 -0.3687 -0.3596
 2058TIP3    H227666   3.303   0.352  15.154  0.7375  0.1224 -0.4283
 2059TIP3   OH227667   6.328   4.782   4.413  0.2853  0.0799 -0.5348
 2059TIP3    H127668   6.243   4.825   4.407 -1.4244 -2.8191  0.7636
 2059TIP3    H227669   6.350   4.786   4.506  0.7765 -0.6135 -0.6184
 2060TIP3   OH227670   5.083   4.041   5.701  0.5567  0.0147  0.3951
 2060TIP3    H127671   5.081   4.111   5.767  2.0639 -0.6465  1.2043
 2060TIP3    H227672   5.172   4.046   5.665 -0.1102  0.0895 -1.3100
 2061TIP3   OH227673   3.501   3.386  12.573  0.4527 -0.2061  0.0505
 2061TIP3    H127674   3.526   3.322  12.507  1.9244 -0.3026  0.6819
 2061TIP3    H227675   3.583   3.419  12.608 -0.2930  0.7693  0.9547
 2062TIP3   OH227676   6.053   2.450   1.431  0.3412 -0.5681  0.0465
 2062TIP3    H127677   6.048   2.423   1.523 -0.9013 -0.9123 -0.1086
 2062TIP3    H227678   5.963   2.446   1.399  0.6397  0.3087 -0.9820
 2063TIP3   OH227679   3.716   6.326   6.278  0.3909 -0.1889 -0.5649
 2063TIP3    H127680   3.727   6.255   6.216  1.1693  0.3718 -1.0907
 2063TIP3    H227681   3.626   6.318   6.309 -0.7976  0.8217 -3.4419
 2064TIP3   OH227682   1.781   1.494  10.498  0.0581  0.1899  0.1677
 2064TIP3    H127683   1.701   1.499  10.551 -1.4080 -1.9557 -1.6319
 2064TIP3    H227684   1.809   1.403  10.507 -0.6570 -0.4958 -3.0953
 2065TIP3   OH227685   2.133   3.689  12.689  0.1694 -0.1057  0.6029
 2065TIP3    H127686   2.077   3.674  12.613 -0.3437  1.4561  0.6341
 2065TIP3    H227687   2.074   3.689  12.763  0.7780 -2.4720  1.1599
 2066TIP3   OH227688   6.446   1.213   1.967 -0.1848  0.0648 -0.2134
 2066TIP3    H127689   6.440   1.137   2.025 -2.4217  0.1848 -0.2127
 2066TIP3    H227690   6.393   1.280   2.010  1.3561  1.5174 -0.4574
 2067TIP3   OH227691   5.644   4.211  16.773 -0.2473 -0.1434  0.3432
 2067TIP3    H127692   5.681   4.158  16.843  1.0332 -1.7803 -1.4766
 2067TIP3    H227693   5.713   4.275  16.752 -1.3340  1.5574  1.7446
 2068TIP3   OH227694   0.922   0.629  10.902 -0.4034  0.5080 -0.0328
 2068TIP3    H127695   0.845   0.685  10.908 -0.6226  0.1277  0.8902
 2068TIP3    H227696   0.894   0.554  10.850 -0.4442  0.7029 -0.2932
 2069TIP3   OH227697   6.573   1.567  15.676  0.5587  0.4917  0.1186
 2069TIP3    H127698   6.615   1.528  15.753 -0.5469  0.5069  0.7534
 2069TIP3    H227699   6.525   1.495  15.635  2.1243  0.1878 -1.3100
 2070TIP3   OH227700   0.386   5.888  11.983  0.4536  0.6006 -0.3563
 2070TIP3    H127701   0.407   5.930  12.066  2.9204  1.4549 -1.3366
 2070TIP3    H227702   0.464   5.839  11.959 -0.7744 -0.9639 -1.4436
 2071TIP3   OH227703   5.052   4.937   0.865  0.2646  0.2334 -0.0384
 2071TIP3    H127704   5.026   5.025   0.890  0.3808  0.5719 -1.0586
 2071TIP3    H227705   5.081   4.945   0.774 -0.4103 -0.9908 -0.3931
 2072TIP3   OH227706   1.626   2.809  16.513 -0.2999  0.2149  0.1003
 2072TIP3    H127707   1.585   2.854  16.439 -1.8498 -0.9685  0.1780
 2072TIP3    H227708   1.567   2.736  16.532  1.7120 -1.4095  0.4495
 2073TIP3   OH227709   5.134   1.221  16.085 -0.3176 -0.0438  0.0041
 2073TIP3    H127710   5.221   1.201  16.049 -0.0966  1.2020 -0.2113
 2073TIP3    H227711   5.152   1.252  16.174 -0.6750 -1.0924  0.4531
 2074TIP3   OH227712   2.701   5.067   4.322 -0.0664 -0.1735 -0.2936
 2074TIP3    H127713   2.705   5.092   4.414 -0.4743 -3.1465  0.6563
 2074TIP3    H227714   2.613   5.033   4.310 -0.2996  0.9023 -2.0634
 2075TIP3   OH227715   1.267   6.055  13.067  0.3087  0.2327 -0.4759
 2075TIP3    H127716   1.196   5.998  13.096 -0.1546  0.9144 -0.2544
 2075TIP3    H227717   1.346   6.001  13.076 -0.3820 -1.3691 -2.8743
 2076TIP3   OH227718   1.858   6.210   3.758 -0.7602  1.2290 -0.3212
 2076TIP3    H127719   1.867   6.119   3.729  1.0966  1.2878 -0.0309
 2076TIP3    H227720   1.862   6.204   3.854  0.6858  1.7303 -0.3426
 2077TIP3   OH227721   6.321   5.184  16.729 -0.4418  0.5006  0.0309
 2077TIP3    H127722   6.309   5.167  16.822 -0.3952 -0.7140 -0.1754
 2077TIP3    H227723   6.257   5.128  16.685 -0.2054  0.7750 -0.6853
 2078TIP3   OH227724   5.525   1.368  15.515 -0.2939  0.1682 -0.9427
 2078TIP3    H127725   5.569   1.395  15.595  0.1204 -1.0820 -0.7242
 2078TIP3    H227726   5.557   1.429  15.448 -0.5751  1.1612 -0.1929
 2079TIP3   OH227727   4.740   3.051   0.661 -0.1612 -0.0337 -0.2907
 2079TIP3    H127728   4.655   3.074   0.698  0.0755  1.8706 -0.8210
 2079TIP3    H227729   4.795   3.028   0.736 -1.5222 -2.9516 -0.0348
 2080TIP3   OH227730   6.738   4.985   2.186  0.1480 -0.1118  0.0535
 2080TIP3    H127731   6.748   4.893   2.161  1.9850  0.8477 -3.3460
 2080TIP3    H227732   6.666   5.017   2.132 -1.9549  0.0860  2.7681
 2081TIP3   OH227733   5.642   5.004   6.576 -0.3250 -0.0250 -0.2269
 2081TIP3    H127734   5.694   4.994   6.656  0.2484 -0.0052 -0.5960
 2081TIP3    H227735   5.652   4.920   6.531 -1.1717 -0.2743  0.0233
 2082TIP3   OH227736   2.285   3.611   0.229 -0.6137  0.7141  0.2468
 2082TIP3    H127737   2.310   3.645   0.315  1.8716  1.9302 -0.8483
 2082TIP3    H227738   2.241   3.685   0.186 -0.7136  0.5330  0.0353
 2083TIP3   OH227739   3.468   0.798  11.428 -0.3623  0.1576 -0.2563
 2083TIP3    H127740   3.390   0.778  11.480  0.5521 -1.6621  0.5413
 2083TIP3    H227741   3.519   0.717  11.431  1.3447  1.1507 -1.1189
 2084TIP3   OH227742   5.467   2.327   5.987 -0.3904 -0.7584 -0.2606
 2084TIP3    H127743   5.382   2.367   5.966 -0.8788 -1.4550  0.3508
 2084TIP3    H227744   5.446   2.254   6.044  0.8008  0.4294  1.8268
 2085TIP3   OH227745   5.052   3.640  13.085  0.1654 -0.0926 -0.0537
 2085TIP3    H127746   5.132   3.611  13.042 -0.4563  0.6470 -1.8038
 2085TIP3    H227747   4.988   3.571  13.065  0.5244 -1.1517  2.1151
 2086TIP3   OH227748   2.612   4.815   0.142  0.2402 -0.1072  0.1343
 2086TIP3    H127749   2.593   4.733   0.098  1.4997 -0.8378  0.8852
 2086TIP3    H227750   2.704   4.808   0.166  0.5635  1.8348 -0.4078
 2087TIP3   OH227751   1.358   0.771   3.401  0.0027 -0.2184  0.5332
 2087TIP3    H127752   1.316   0.819   3.329 -0.3093  0.2356  1.0164
 2087TIP3    H227753   1.451   0.780   3.384 -0.0717 -0.2777  0.0752
 2088TIP3   OH227754   1.307   0.300   2.036  0.1933  0.1666 -0.1840
 2088TIP3    H127755   1.253   0.365   1.992 -0.9303 -1.6001 -1.5886
 2088TIP3    H227756   1.393   0.307   1.995  1.2224  3.0588  2.1188
 2089TIP3   OH227757   6.415   2.543   5.054 -0.1791 -0.3172  0.5974
 2089TIP3    H127758   6.423   2.467   5.112 -0.4576 -1.9671 -1.4160
 2089TIP3    H227759   6.350   2.517   4.989 -1.6226  2.3575  0.8213
 2090TIP3   OH227760   2.913   5.742  13.431  0.2769  0.4185  0.0401
 2090TIP3    H127761   3.005   5.765  13.421  0.3615  0.5873  1.1389
 2090TIP3    H227762   2.913   5.648  13.449  0.1154  0.0937 -1.4827
 2091TIP3   OH227763   6.079   4.824   3.432 -0.6805 -0.3904  0.1282
 2091TIP3    H127764   6.049   4.847   3.519 -1.0960 -2.0374  0.4663
 2091TIP3    H227765   5.999   4.805   3.383 -0.5842  2.1688 -1.1909
 2092TIP3   OH227766   0.743   5.699  17.020 -0.1476 -0.5803  0.0494
 2092TIP3    H127767   0.836   5.718  17.013 -0.1859 -0.3015  0.2941
 2092TIP3    H227768   0.736   5.632  17.087 -0.0864 -0.8835 -0.2484
 2093TIP3   OH227769   5.538   0.012   5.165 -0.4743  0.0901  0.1256
 2093TIP3    H127770   5.532  -0.071   5.118  0.1533  0.1396 -0.0516
 2093TIP3    H227771   5.465   0.064   5.131 -0.1472  0.0521 -0.6405
 2094TIP3   OH227772   3.487   6.415   5.124  0.1542  0.1314 -0.4000
 2094TIP3    H127773   3.546   6.406   5.049 -0.5970 -1.9063 -0.8380
 2094TIP3    H227774   3.459   6.506   5.123  1.5184  0.5656 -1.5444
 2095TIP3   OH227775   6.112   3.326   0.294  0.1813  0.2173 -0.4399
 2095TIP3    H127776   6.177   3.373   0.241  0.2065  0.1171 -0.4980
 2095TIP3    H227777   6.030   3.372   0.277  0.0039 -0.4064 -1.3214
 2096TIP3   OH227778   0.976   4.088   6.564  0.0971 -0.2771  0.0418
 2096TIP3    H127779   0.985   3.995   6.547  2.0474 -0.4815  1.7579
 2096TIP3    H227780   0.911   4.093   6.634 -2.6332  0.0143 -2.3451
 2097TIP3   OH227781   6.576   4.649  16.700 -0.4784  0.1222  0.2642
 2097TIP3    H127782   6.523   4.666  16.778  0.3674 -0.7175  1.0335
 2097TIP3    H227783   6.656   4.700  16.714  0.7832 -1.9991  1.1844
 2098TIP3   OH227784   2.143   6.605  13.293 -0.7920  0.3000 -0.4137
 2098TIP3    H127785   2.231   6.604  13.330 -1.1168 -1.2219  0.4225
 2098TIP3    H227786   2.153   6.566  13.206 -0.6599 -0.0947 -0.2254
 2099TIP3   OH227787   6.235   0.790  10.417 -0.9287 -0.0284  0.2462
 2099TIP3    H127788   6.295   0.741  10.474 -1.3759  0.1577  0.8960
 2099TIP3    H227789   6.279   0.793  10.332  1.4806  2.8197  1.4424
 2100TIP3   OH227790   3.374   4.164   2.844  0.0555  0.2666  0.1476
 2100TIP3    H127791   3.458   4.118   2.848 -0.6339 -0.9896  1.3318
 2100TIP3    H227792   3.334   4.135   2.762 -0.0768 -0.7674  0.5617
 2101TIP3   OH227793   0.602   3.449  11.951  0.1024 -0.2573  0.0874
 2101TIP3    H127794   0.515   3.420  11.979  0.3942 -0.6478  0.6107
 2101TIP3    H227795   0.616   3.403  11.868  1.1366 -2.8717  1.5604
 2102TIP3   OH227796   2.456   5.403   3.098 -0.4329 -0.0845 -0.0631
 2102TIP3    H127797   2.533   5.408   3.041  0.3089 -2.3190  0.6319
 2102TIP3    H227798   2.384   5.383   3.039  0.0170 -0.6795 -0.4257
 2103TIP3   OH227799   6.034   3.172  16.268  0.1400  0.2245  0.7672
 2103TIP3    H127800   5.982   3.161  16.348  1.0952  1.0962  1.5194
 2103TIP3    H227801   6.124   3.181  16.298  0.7153 -0.9452 -0.5109
 2104TIP3   OH227802   5.815   0.676   4.240 -0.2445 -0.0430 -0.0102
 2104TIP3    H127803   5.907   0.681   4.264 -0.3512 -1.0403  0.6977
 2104TIP3    H227804   5.794   0.761   4.202  0.3399  1.0625  2.0525
 2105TIP3   OH227805   1.329   2.629  14.613 -0.1432  0.3825 -0.1326
 2105TIP3    H127806   1.252   2.684  14.623 -0.0339  0.5836 -0.4041
 2105TIP3    H227807   1.378   2.668  14.542  0.2728  0.3230  0.1197
 2106TIP3   OH227808   4.941   2.411  12.893 -0.0642 -0.3979 -0.1144
 2106TIP3    H127809   4.849   2.420  12.867  0.0087  0.2716 -0.1529
 2106TIP3    H227810   4.983   2.491  12.861  0.2017  0.0564  1.3071
 2107TIP3   OH227811   1.862   2.960   2.505 -0.5141  0.8340  0.2903
 2107TIP3    H127812   1.857   2.869   2.476  1.1074  1.3269 -1.7600
 2107TIP3    H227813   1.949   2.969   2.544 -0.0658  1.8190 -0.8654
 2108TIP3   OH227814   5.980   0.035   5.362  0.0483 -0.4992  0.1724
 2108TIP3    H127815   5.894   0.074   5.345  0.5836  0.5631 -0.2149
 2108TIP3    H227816   5.962  -0.040   5.418 -1.0748  0.0537  0.5810
 2109TIP3   OH227817   5.935   1.754  14.613  0.2263 -0.2433 -0.3438
 2109TIP3    H127818   6.013   1.700  14.626 -0.6879 -1.9867 -1.6169
 2109TIP3    H227819   5.866   1.691  14.593 -0.9902  1.3927 -1.5693
 2110TIP3   OH227820   2.313   3.435  14.070  0.0220 -0.3236 -0.4191
 2110TIP3    H127821   2.240   3.424  14.010 -0.1807 -2.1770  0.1212
 2110TIP3    H227822   2.383   3.381  14.033 -0.1337 -1.5592  1.0259
 2111TIP3   OH227823   1.587   2.320  13.298  0.1459 -0.4124 -0.2279
 2111TIP3    H127824   1.673   2.315  13.340 -0.2200  0.8174  0.7333
 2111TIP3    H227825   1.525   2.320  13.371 -0.6526 -0.8117 -0.8921
 2112TIP3   OH227826   2.673   3.511   3.926 -0.1862 -0.0791 -0.2631
 2112TIP3    H127827   2.616   3.446   3.967 -0.7305  0.4277 -0.1997
 2112TIP3    H227828   2.629   3.595   3.942 -0.7353  0.1035 -2.3535
 2113TIP3   OH227829   4.458   5.009   0.940  0.4454  0.6080  0.5262
 2113TIP3    H127830   4.377   4.962   0.964  1.8765 -1.1542  2.2396
 2113TIP3    H227831   4.465   5.079   1.004  0.5753  0.3750  0.7701
 2114TIP3   OH227832   3.247   5.722   5.322  0.3179 -0.7138 -0.0582
 2114TIP3    H127833   3.168   5.773   5.340  0.8854  0.0224  0.4042
 2114TIP3    H227834   3.232   5.684   5.236 -1.5170 -2.4816  0.9312
 2115TIP3   OH227835   3.397   0.689  15.688 -0.2640 -0.5304 -0.1443
 2115TIP3    H127836   3.452   0.690  15.766  1.7173  0.9756 -1.4672
 2115TIP3    H227837   3.439   0.750  15.628 -1.3866 -2.0192 -2.6235
 2116TIP3   OH227838   2.945   0.587   2.388  0.3812  0.4878  0.6438
 2116TIP3    H127839   2.851   0.576   2.404  0.4797 -0.7443  0.5258
 2116TIP3    H227840   2.952   0.670   2.341 -0.5574  1.0208  1.4106
 2117TIP3   OH227841   3.010   0.813  10.187  0.3589  0.2009  0.0026
 2117TIP3    H127842   2.958   0.801  10.108  0.3927  0.2905 -0.0342
 2117TIP3    H227843   2.968   0.758  10.253  2.7731 -3.3853 -1.1613
 2118TIP3   OH227844   2.812   4.229  14.740 -0.4158 -0.1144  0.5639
 2118TIP3    H127845   2.824   4.252  14.647  0.2764 -3.4399 -0.2930
 2118TIP3    H227846   2.721   4.201  14.746 -1.1086  2.1024  1.4817
 2119TIP3   OH227847   6.648   2.297  13.424  0.1556  0.0983 -0.0801
 2119TIP3    H127848   6.653   2.389  13.447  0.8869  0.3864 -1.2913
 2119TIP3    H227849   6.612   2.296  13.335 -0.3783 -0.8172  0.1314
 2120TIP3   OH227850   3.880   3.034   1.690 -0.3941 -0.0496 -0.3486
 2120TIP3    H127851   3.946   3.101   1.708 -0.6561  0.5985 -1.6398
 2120TIP3    H227852   3.916   2.954   1.728  0.0712  0.7458  0.9534
 2121TIP3   OH227853   4.546   4.802  14.436 -0.3339 -0.3012  0.0901
 2121TIP3    H127854   4.456   4.773  14.446 -0.1604 -0.2755  2.2477
 2121TIP3    H227855   4.542   4.871  14.370 -1.1444 -3.2702 -3.2719
 2122TIP3   OH227856   2.920   3.443  11.181  0.0944 -0.3334  0.6291
 2122TIP3    H127857   2.954   3.354  11.184  0.1501 -0.3035  0.9233
 2122TIP3    H227858   2.945   3.476  11.095 -0.4160 -0.7940  0.2993
 2123TIP3   OH227859   5.483   4.078  12.363  0.2790  0.3523 -0.1290
 2123TIP3    H127860   5.562   4.027  12.376  0.5512  0.9136  0.5418
 2123TIP3    H227861   5.511   4.154  12.313  0.3129  0.8700  0.6452
 2124TIP3   OH227862   2.390   3.998   5.796  0.0576  0.3725  0.0763
 2124TIP3    H127863   2.390   4.006   5.701  1.0426 -0.1292  0.0194
 2124TIP3    H227864   2.455   4.061   5.826  0.3536 -0.0630  0.3588
 2125TIP3   OH227865   0.630   5.179  14.694 -0.3991  0.3690 -0.1508
 2125TIP3    H127866   0.613   5.124  14.770  0.1893  0.3611 -0.0168
 2125TIP3    H227867   0.628   5.269  14.727  0.7660  0.3271  0.0708
 2126TIP3   OH227868   3.751   5.698   1.412  0.5298  0.1865 -0.1613
 2126TIP3    H127869   3.674   5.648   1.388 -0.0683  0.4674  1.1151
 2126TIP3    H227870   3.817   5.632   1.435  0.1454 -0.0465  0.2939
 2127TIP3   OH227871   0.717   1.465  14.153 -0.1568  0.0642 -0.2690
 2127TIP3    H127872   0.708   1.372  14.129 -1.7243  0.4147 -1.1886
 2127TIP3    H227873   0.706   1.512  14.071 -1.2814  1.1328  0.4663
 2128TIP3   OH227874   6.805   2.428   1.171 -0.1684 -0.1835  0.1694
 2128TIP3    H127875   6.860   2.422   1.093 -0.7894 -2.8600 -0.1529
 2128TIP3    H227876   6.781   2.521   1.177  0.5501  0.2222 -2.3568
 2129TIP3   OH227877   0.052   4.614  15.945 -0.0298  0.4341  0.0913
 2129TIP3    H127878   0.123   4.643  16.002 -0.3695 -0.8639  1.2239
 2129TIP3    H227879   0.091   4.608  15.858  1.2944 -0.3611  0.7125
 2130TIP3   OH227880   3.311   1.768   0.747 -0.6448  0.2243 -0.5035
 2130TIP3    H127881   3.286   1.828   0.818 -0.7503 -0.8367  0.3779
 2130TIP3    H227882   3.233   1.765   0.690 -1.1231 -0.0764  0.1528
 2131TIP3   OH227883   1.842   6.410   3.597 -0.0535 -0.2785 -0.4858
 2131TIP3    H127884   1.919   6.454   3.634  1.7355 -2.5976 -1.2023
 2131TIP3    H227885   1.831   6.332   3.651 -3.2618  0.9432  0.8735
 2132TIP3   OH227886   6.053   6.578   0.385  0.1181  0.1865  0.3219
 2132TIP3    H127887   5.989   6.632   0.433  0.4047  1.2833 -0.4822
 2132TIP3    H227888   6.135   6.627   0.393  0.3242  0.0095 -0.6601
 2133TIP3   OH227889   6.539   0.291   4.748 -0.4040 -0.5022 -0.1805
 2133TIP3    H127890   6.557   0.203   4.780  0.1026  0.0811  1.2088
 2133TIP3    H227891   6.584   0.349   4.809  0.4543  0.6955 -1.8605
 2134TIP3   OH227892   5.180   0.827   5.131 -0.1292 -0.2861 -0.3080
 2134TIP3    H127893   5.133   0.799   5.053 -0.3651  0.7319 -0.5458
 2134TIP3    H227894   5.212   0.745   5.170  0.5004 -0.7781 -1.7739
 2135TIP3   OH227895   4.397   3.071  13.455  0.3789  0.0455  0.2794
 2135TIP3    H127896   4.490   3.083  13.436 -0.1939  1.5272 -2.0963
 2135TIP3    H227897   4.395   3.014  13.532  3.2401  1.1057  1.2776
 2136TIP3   OH227898   4.975   5.460  14.668  0.1274  0.1242 -0.0850
 2136TIP3    H127899   4.950   5.535  14.613 -1.0511  0.0492  0.3432
 2136TIP3    H227900   4.907   5.395  14.653  0.1042 -0.1204  1.0450
 2137TIP3   OH227901   5.563   2.962   4.519  0.0689 -0.3839 -0.1524
 2137TIP3    H127902   5.631   3.024   4.545 -0.4128 -0.9868  2.8593
 2137TIP3    H227903   5.600   2.876   4.538  0.3889 -1.1269 -3.4623
 2138TIP3   OH227904   0.206   0.345   4.536 -1.1831 -0.0462  0.2501
 2138TIP3    H127905   0.155   0.422   4.561 -1.8228  0.0035 -1.1265
 2138TIP3    H227906   0.228   0.303   4.619  0.9522  2.6808  1.2113
 2139TIP3   OH227907   5.285   0.450   6.443  0.0194 -0.6620  0.3609
 2139TIP3    H127908   5.219   0.415   6.382 -0.3935 -2.1976  1.6243
 2139TIP3    H227909   5.316   0.530   6.400 -0.4444 -1.5117 -1.7263
 2140TIP3   OH227910   6.840   5.525  16.894  0.0140 -0.0269  0.2803
 2140TIP3    H127911   6.756   5.502  16.932 -0.3440  0.6717 -0.0690
 2140TIP3    H227912   6.870   5.601  16.943  0.9103 -0.8329  1.0387
 2141TIP3   OH227913   6.199   2.321  14.396 -0.3078  0.1620 -0.1229
 2141TIP3    H127914   6.161   2.281  14.319  0.6678 -2.3020  0.5932
 2141TIP3    H227915   6.280   2.363  14.365 -2.0781  3.0953 -1.1481
 2142TIP3   OH227916   6.702   2.647  13.707 -0.6255  1.1912  0.0215
 2142TIP3    H127917   6.698   2.601  13.791 -0.3107  0.0389 -0.5759
 2142TIP3    H227918   6.764   2.719  13.722  1.8505 -0.7998 -0.0207
 2143TIP3   OH227919   3.210   1.718   3.994  0.6457  0.0102 -0.2263
 2143TIP3    H127920   3.215   1.775   3.917  1.9952  0.2216 -0.0102
 2143TIP3    H227921   3.180   1.775   4.064  1.3957  0.3314 -0.1514
 2144TIP3   OH227922   0.572   5.055  11.426  0.4500  0.1653  0.3047
 2144TIP3    H127923   0.582   5.038  11.519  0.5774  1.4855  0.5466
 2144TIP3    H227924   0.521   5.136  11.421  1.1126  0.5417 -0.7515
 2145TIP3   OH227925   6.177   2.442   0.282  0.2568 -0.0090 -0.1734
 2145TIP3    H127926   6.272   2.448   0.290  0.1301  0.5277  1.1919
 2145TIP3    H227927   6.152   2.519   0.232  0.4717  0.2577  0.1273
 2146TIP3   OH227928   5.607   3.355  11.842  0.2331  0.5877 -0.2562
 2146TIP3    H127929   5.598   3.374  11.936  3.7806 -1.4134  0.6788
 2146TIP3    H227930   5.542   3.286  11.826 -0.9533  1.4926  0.4669
 2147TIP3   OH227931   4.348   3.658  14.587  0.0119  0.2275  0.6559
 2147TIP3    H127932   4.380   3.611  14.663  2.2159 -0.9590 -0.8929
 2147TIP3    H227933   4.387   3.745  14.595 -1.1527  0.6784  1.6994
 2148TIP3   OH227934   4.754   1.474  15.960 -0.3980  0.2042  0.0485
 2148TIP3    H127935   4.748   1.568  15.940 -0.3917 -0.1013 -1.5265
 2148TIP3    H227936   4.669   1.453  15.998 -0.2989  0.8974  0.6883
 2149TIP3   OH227937   2.843   6.317  12.442  0.2782  0.5405 -0.0367
 2149TIP3    H127938   2.868   6.409  12.444 -0.6016  0.7754  1.1931
 2149TIP3    H227939   2.749   6.318  12.425  0.3219 -0.1576 -0.3537
 2150TIP3   OH227940   3.716   6.595  12.296  0.4569 -0.2334  0.4939
 2150TIP3    H127941   3.715   6.507  12.260  0.7321 -0.6025  1.3590
 2150TIP3    H227942   3.798   6.633  12.264  0.3857 -0.3241  0.2030
 2151TIP3   OH227943   4.748   5.207   2.253  0.2311  0.2170  0.0946
 2151TIP3    H127944   4.826   5.156   2.232 -0.0061 -0.4586  0.8158
 2151TIP3    H227945   4.680   5.172   2.196  0.1494 -0.0671  0.3603
 2152TIP3   OH227946   6.651   3.894  14.236  0.0303  0.7611  0.4912
 2152TIP3    H127947   6.741   3.898  14.206 -0.3803  1.6244 -0.7090
 2152TIP3    H227948   6.655   3.847  14.320  1.4924  0.2241  0.1433
 2153TIP3   OH227949   0.127   6.378  16.740 -0.5103  0.0108  0.1645
 2153TIP3    H127950   0.089   6.316  16.802 -2.0421 -0.1139 -0.8439
 2153TIP3    H227951   0.178   6.323  16.680 -1.8421 -0.3313 -0.7123
 2154TIP3   OH227952   3.126   2.911  14.625 -0.6130  0.4020 -0.2068
 2154TIP3    H127953   3.142   2.891  14.533 -0.6218 -1.7724  0.2139
 2154TIP3    H227954   3.103   3.004  14.626 -1.0800  0.3568 -2.4412
 2155TIP3   OH227955   4.903   3.484  11.158 -0.3465 -0.1090 -0.3580
 2155TIP3    H127956   4.949   3.529  11.229 -0.8354 -0.2761  0.0690
 2155TIP3    H227957   4.814   3.519  11.160 -1.3627 -2.4677  1.3097
 2156TIP3   OH227958   5.221   3.457   5.377  0.1292 -0.4029 -0.5691
 2156TIP3    H127959   5.285   3.526   5.395 -0.3917  0.0614 -0.4772
 2156TIP3    H227960   5.165   3.455   5.455  0.0072 -0.7807 -0.6626
 2157TIP3   OH227961   3.752   5.682   1.808 -0.8788 -0.1954  0.4545
 2157TIP3    H127962   3.701   5.604   1.788 -1.0375  0.1924 -0.7144
 2157TIP3    H227963   3.819   5.685   1.739  0.8048 -0.7366  1.9807
 2158TIP3   OH227964   3.514   1.791   5.151 -0.3316  0.1395 -0.0861
 2158TIP3    H127965   3.466   1.709   5.163 -0.2284  0.1090  0.1180
 2158TIP3    H227966   3.530   1.795   5.056  1.2494 -0.9743  0.0950
 2159TIP3   OH227967   1.400   6.549   4.379 -0.5143 -0.0509 -0.0900
 2159TIP3    H127968   1.406   6.614   4.309 -0.4450  0.0571  0.0185
 2159TIP3    H227969   1.308   6.522   4.378 -0.7751  0.7993  0.5535
 2160TIP3   OH227970   0.892   4.732  10.469  0.3130  0.9277 -0.5019
 2160TIP3    H127971   0.948   4.682  10.410  2.1316  2.0525  0.1944
 2160TIP3    H227972   0.874   4.814  10.422  0.2934  1.0971 -0.2009
 2161TIP3   OH227973   0.482   0.149   5.987 -0.0993  0.3597  0.1802
 2161TIP3    H127974   0.498   0.080   6.052  0.7270  1.0655  0.7327
 2161TIP3    H227975   0.454   0.224   6.039 -1.3202  0.3642 -0.4500
 2162TIP3   OH227976   4.176   5.343  14.964  0.0918  0.5359  0.0093
 2162TIP3    H127977   4.129   5.425  14.947 -2.0558 -0.6604 -0.2662
 2162TIP3    H227978   4.191   5.343  15.058 -0.3673  1.0237  0.0898
 2163TIP3   OH227979   1.685   4.245  14.944 -0.2731 -0.2808 -0.1882
 2163TIP3    H127980   1.643   4.329  14.962 -0.2471 -0.3853  0.3967
 2163TIP3    H227981   1.693   4.204  15.030  3.1054  0.7088  0.1281
 2164TIP3   OH227982   2.439   0.823   3.896 -0.3374  0.1016 -0.1308
 2164TIP3    H127983   2.469   0.746   3.848 -0.8884 -0.5414  0.5291
 2164TIP3    H227984   2.407   0.789   3.980 -0.0370  1.1211  0.4169
 2165TIP3   OH227985   0.941   6.612  16.679  0.1153  0.2662 -0.0373
 2165TIP3    H127986   1.006   6.553  16.718 -0.2074  0.0982  0.2583
 2165TIP3    H227987   0.979   6.699  16.687 -0.1181  0.2839  1.0355
 2166TIP3   OH227988   3.286   3.777  13.164  0.0469  0.2461  0.2307
 2166TIP3    H127989   3.278   3.781  13.260 -0.3982 -2.0698  0.3386
 2166TIP3    H227990   3.372   3.739  13.148  0.1493  0.6901 -0.3103
 2167TIP3   OH227991   2.989   5.229   2.693  0.3589  0.4095 -0.0657
 2167TIP3    H127992   2.989   5.158   2.757  0.1938  1.4450  1.1412
 2167TIP3    H227993   3.055   5.290   2.726  2.6802 -0.4887 -2.6529
 2168TIP3   OH227994   4.198   0.774   3.675 -0.0566 -0.3151 -0.1452
 2168TIP3    H127995   4.180   0.844   3.613  0.5419 -1.2652 -1.4501
 2168TIP3    H227996   4.232   0.818   3.753 -0.3211  0.8678 -0.6745
 2169TIP3   OH227997   4.099   3.632  12.215  0.1616 -0.4175  0.1636
 2169TIP3    H127998   4.128   3.584  12.293 -0.4928 -1.0273  0.0388
 2169TIP3    H227999   4.020   3.678  12.243 -0.1882 -0.7964 -0.1880
 2170TIP3   OH228000   5.952   3.690  12.588  0.6580 -0.1312 -0.4580
 2170TIP3    H128001   6.024   3.627  12.588 -1.0403 -2.2743 -2.3171
 2170TIP3    H228002   5.978   3.757  12.526  2.9261  1.7283  2.2533
 2171TIP3   OH228003   4.582   3.056  11.248 -0.0059  0.2108 -0.5572
 2171TIP3    H128004   4.660   3.105  11.223  0.4497 -0.6367 -0.8391
 2171TIP3    H228005   4.552   3.016  11.167 -1.1679  1.1150 -0.5910
 2172TIP3   OH228006   2.056   3.056  15.545 -0.2525 -0.6396 -0.5732
 2172TIP3    H128007   2.105   3.128  15.505 -1.7034 -0.4442 -2.1300
 2172TIP3    H228008   2.115   2.981  15.542  0.4797 -0.0548 -0.9997
 2173TIP3   OH228009   6.456   4.913   0.693  0.6399 -0.4965  0.2198
 2173TIP3    H128010   6.495   4.829   0.668  0.3425  0.2665 -3.2994
 2173TIP3    H228011   6.369   4.911   0.654  0.4573  1.2569  0.4623
 2174TIP3   OH228012   6.766   3.244   4.632 -0.8049 -0.4724  0.4637
 2174TIP3    H128013   6.783   3.293   4.552 -0.4270  1.4825  1.6690
 2174TIP3    H228014   6.679   3.206   4.620 -0.4992 -0.7283 -1.0873
 2175TIP3   OH228015   1.091   3.235   1.688 -0.0791 -0.5257 -0.3844
 2175TIP3    H128016   1.047   3.166   1.638 -0.3191 -1.7852  1.4213
 2175TIP3    H228017   1.025   3.264   1.751  0.9173 -0.8252  0.8585
 2176TIP3   OH228018   0.140   1.714   3.460  0.6561  0.5262 -0.2741
 2176TIP3    H128019   0.199   1.730   3.534  0.0620 -2.3345  0.9457
 2176TIP3    H228020   0.055   1.747   3.489  0.6413  0.3285 -0.0921
 2177TIP3   OH228021   0.058   3.972  15.635 -0.0504 -0.1426  0.4731
 2177TIP3    H128022   0.043   3.980  15.541 -0.7295  0.5473  0.6254
 2177TIP3    H228023  -0.022   4.007  15.675 -0.5744 -2.1632  1.3068
 2178TIP3   OH228024   6.184   1.088  11.939 -0.3095 -0.2579 -0.1068
 2178TIP3    H128025   6.228   1.166  11.973 -1.3177  0.6635 -0.8444
 2178TIP3    H228026   6.163   1.111  11.848 -0.6625 -1.3789 -0.3129
 2179TIP3   OH228027   6.463   6.680   6.455 -0.3266 -0.1085  0.2002
 2179TIP3    H128028   6.514   6.615   6.504 -1.8122 -0.9280  0.7089
 2179TIP3    H228029   6.372   6.665   6.481 -0.9839  0.5449 -1.5533
 2180TIP3   OH228030   5.020   6.724  12.683  0.2783 -0.4767  0.1971
 2180TIP3    H128031   5.021   6.630  12.666  0.6612 -0.3388 -0.6178
 2180TIP3    H228032   4.968   6.760  12.611  2.2069  0.1698 -0.9420
 2181TIP3   OH228033   3.036   4.168   5.279 -0.2603 -0.1216  0.2199
 2181TIP3    H128034   2.960   4.147   5.333 -1.3073  0.3870 -0.9961
 2181TIP3    H228035   3.009   4.144   5.190  0.7265  0.7741 -0.3418
 2182TIP3   OH228036   1.228   0.327  16.515 -0.2710  0.3114  0.1776
 2182TIP3    H128037   1.282   0.392  16.470 -0.9291  1.2304  0.7155
 2182TIP3    H228038   1.233   0.350  16.607 -0.3165 -0.5571  0.4133
 2183TIP3   OH228039   0.936   0.286   2.830  0.2607 -0.0859  0.1261
 2183TIP3    H128040   0.963   0.211   2.883  1.0580  0.3723  0.3788
 2183TIP3    H228041   0.855   0.257   2.787  1.3711 -1.6879 -1.0220
 2184TIP3   OH228042   5.204   3.487  14.622 -0.0336 -0.3932  1.1130
 2184TIP3    H128043   5.188   3.404  14.577 -0.4962 -0.7071  1.8379
 2184TIP3    H228044   5.142   3.548  14.582  0.8026 -0.1845  0.0661
 2185TIP3   OH228045   4.926   6.164   4.564 -0.4240 -0.0941 -0.3677
 2185TIP3    H128046   4.903   6.118   4.644 -1.1809 -0.5371 -0.8247
 2185TIP3    H228047   4.899   6.254   4.579  2.1162  0.5428  0.9813
 2186TIP3   OH228048   3.058   0.064   5.434 -0.6608  0.3435  0.0982
 2186TIP3    H128049   3.144   0.023   5.442 -0.2094  1.3302  0.4002
 2186TIP3    H228050   3.015   0.045   5.518 -0.7291 -0.0924 -0.0287
 2187TIP3   OH228051   3.653   0.301  11.757 -0.1202  0.1842  0.3916
 2187TIP3    H128052   3.563   0.269  11.753 -0.2796  0.6584  0.0936
 2187TIP3    H228053   3.660   0.341  11.844 -0.7446  1.6848 -0.2003
 2188TIP3   OH228054   6.552   2.469   1.372  0.6312  0.5577  0.4488
 2188TIP3    H128055   6.575   2.378   1.353  0.6793  0.2495  1.8863
 2188TIP3    H228056   6.548   2.511   1.286 -0.1668 -0.9767 -0.3029
 2189TIP3   OH228057   0.518   3.791  11.611 -0.2442 -0.0248 -0.2731
 2189TIP3    H128058   0.559   3.705  11.602  0.5768  0.4626 -1.5418
 2189TIP3    H228059   0.482   3.792  11.699  1.5893 -0.8888  0.5265
 2190TIP3   OH228060   0.875   1.559  11.944 -0.3123  0.5599 -0.7105
 2190TIP3    H128061   0.967   1.540  11.923 -0.3055 -0.9183  0.4543
 2190TIP3    H228062   0.874   1.650  11.971  1.4545 -0.1639  2.2859
 2191TIP3   OH228063   6.309   4.521   2.047  0.1778 -0.3444  0.4597
 2191TIP3    H128064   6.240   4.497   2.109  0.3231  0.5905  1.0091
 2191TIP3    H228065   6.344   4.437   2.016 -0.7943 -0.8276  0.6292
 2192TIP3   OH228066   0.530   2.759   0.568 -0.2751  0.4255  1.0677
 2192TIP3    H128067   0.435   2.763   0.564 -0.2941 -0.1079  0.9829
 2192TIP3    H228068   0.554   2.829   0.629 -0.6037  1.8391 -0.3372
 2193TIP3   OH228069   0.201   5.995   0.659 -0.0605 -0.0633  0.0203
 2193TIP3    H128070   0.115   5.978   0.620  0.2143 -0.5626 -0.3636
 2193TIP3    H228071   0.216   5.921   0.718 -1.1134  1.3584  2.2373
 2194TIP3   OH228072   2.694   0.756  11.902  0.3603 -0.6357 -0.0705
 2194TIP3    H128073   2.756   0.819  11.865  0.9110 -0.7478  0.6303
 2194TIP3    H228074   2.612   0.772  11.856  0.3648  0.9030  0.4341
 2195TIP3   OH228075   5.332   3.469  14.266  0.0963 -0.2572 -0.2358
 2195TIP3    H128076   5.365   3.546  14.219 -1.3498  1.3219  1.1530
 2195TIP3    H228077   5.404   3.406  14.263  1.1609  0.9426 -1.8557
 2196TIP3   OH228078   1.209   1.372  13.243  0.1137  0.3399  0.2488
 2196TIP3    H128079   1.221   1.346  13.334  1.1937 -1.5713 -0.3882
 2196TIP3    H228080   1.121   1.411  13.241  0.4730  1.3617  2.2704
 2197TIP3   OH228081   3.066   2.532  16.929 -0.4973  0.1061  0.0026
 2197TIP3    H128082   3.109   2.459  16.974 -0.2626  0.1727 -0.1173
 2197TIP3    H228083   3.027   2.491  16.851 -0.6870  0.0392  0.1303
 2198TIP3   OH228084   5.238   0.898  13.350 -0.2612 -0.6000  0.1103
 2198TIP3    H128085   5.311   0.845  13.317 -0.1364  0.5300 -1.5650
 2198TIP3    H228086   5.273   0.941  13.428  1.4449  1.0675 -1.4601
 2199TIP3   OH228087   5.083   3.890  15.029 -0.4804  0.7091 -0.0099
 2199TIP3    H128088   5.079   3.802  15.068 -1.2362 -0.5247 -2.6727
 2199TIP3    H228089   5.075   3.949  15.104  0.1632 -1.4598  1.8962
 2200TIP3   OH228090   6.643   1.599   6.269  0.6981  0.5435 -0.2668
 2200TIP3    H128091   6.680   1.532   6.326  1.2634 -0.0648 -1.3326
 2200TIP3    H228092   6.557   1.617   6.307  0.2688 -1.2402 -0.3053
 2201TIP3   OH228093   3.386   0.115   5.932 -0.1081  0.2079 -0.0418
 2201TIP3    H128094   3.300   0.072   5.928  1.4518 -3.1849 -2.5180
 2201TIP3    H228095   3.433   0.068   6.000  0.2655  1.0180  0.2648
 2202TIP3   OH228096   3.592   3.559   0.453 -0.6412 -0.3027 -0.0314
 2202TIP3    H128097   3.577   3.629   0.518 -1.6822 -0.8603  0.3623
 2202TIP3    H228098   3.675   3.581   0.412  0.5218 -0.4208  2.1427
 2203TIP3   OH228099   4.326   2.403   1.997  0.0492  0.4119  0.0654
 2203TIP3    H128100   4.385   2.337   1.963 -0.2442  0.6487 -0.9223
 2203TIP3    H228101   4.372   2.486   1.984 -0.8867  0.7135 -1.6954
 2204TIP3   OH228102   3.394   0.575   3.227 -0.0416 -0.0361  0.1119
 2204TIP3    H128103   3.342   0.624   3.291  0.0429 -0.3456  0.4233
 2204TIP3    H228104   3.347   0.586   3.144 -1.6005 -1.7063  0.6857
 2205TIP3   OH228105   1.476   1.755   1.175  0.2204 -0.2384  0.3021
 2205TIP3    H128106   1.566   1.770   1.147  0.3580  2.3173  1.8053
 2205TIP3    H228107   1.479   1.759   1.271 -1.4369 -0.6139  0.4119
 2206TIP3   OH228108   1.435   4.126  11.184 -0.1408  0.3522  0.0537
 2206TIP3    H128109   1.469   4.213  11.201 -1.6509  0.8938  0.4990
 2206TIP3    H228110   1.340   4.138  11.179 -0.3848 -1.2703  0.1818
 2207TIP3   OH228111   1.312   6.611   5.694 -0.1020  0.0733 -0.1688
 2207TIP3    H128112   1.326   6.516   5.686 -0.2053  0.0765 -0.3900
 2207TIP3    H228113   1.255   6.633   5.621  0.7274  0.4749 -0.7123
 2208TIP3   OH228114   2.998   1.440  12.375  0.0086 -0.5334 -0.0853
 2208TIP3    H128115   3.051   1.518  12.392  0.7307 -1.0552  0.1206
 2208TIP3    H228116   2.967   1.452  12.285  0.5710 -0.2610 -0.2509
 2209TIP3   OH228117   4.102   3.249   1.975  0.1255  0.3884  0.2565
 2209TIP3    H128118   4.018   3.279   1.941 -0.1891 -1.3679 -0.6790
 2209TIP3    H228119   4.080   3.170   2.025  1.2082 -0.1021 -0.0097
 2210TIP3   OH228120   1.468   0.678  16.377 -0.4457 -0.2244 -0.1300
 2210TIP3    H128121   1.460   0.605  16.316  0.6181 -0.7486  0.3473
 2210TIP3    H228122   1.558   0.674  16.409 -0.3793  1.2604 -0.0525
 2211TIP3   OH228123   6.000   2.239   1.628 -0.0057 -0.3331 -0.3971
 2211TIP3    H128124   5.917   2.231   1.675 -0.6821  0.1474 -1.4642
 2211TIP3    H228125   5.984   2.195   1.544  1.0562 -0.8739 -0.3357
 2212TIP3   OH228126   0.807   5.038  15.715  0.1912  0.2534 -0.3577
 2212TIP3    H128127   0.822   4.945  15.734  1.4561  0.6843  0.9447
 2212TIP3    H228128   0.862   5.057  15.639  0.6190  0.1261 -0.0835
 2213TIP3   OH228129   0.404   2.003  15.562 -0.2095 -0.1898 -0.0776
 2213TIP3    H128130   0.354   1.985  15.482  1.1994 -2.8663 -0.4738
 2213TIP3    H228131   0.340   1.995  15.633 -0.7187 -1.8921 -0.6834
 2214TIP3   OH228132   5.197   5.716  15.214 -0.4718 -0.1373  0.4719
 2214TIP3    H128133   5.274   5.660  15.225 -0.0028  0.4960  0.4580
 2214TIP3    H228134   5.220   5.773  15.140 -0.6286  0.5964  0.9854
 2215TIP3   OH228135   6.026   5.940  11.963 -0.2456 -0.9220 -0.7628
 2215TIP3    H128136   6.028   5.879  11.889 -0.6335 -0.4877 -1.1411
 2215TIP3    H228137   5.949   5.994  11.946  1.6809  1.6480 -2.0276
 2216TIP3   OH228138   4.315   2.930   0.388  0.2287  0.0823 -0.4978
 2216TIP3    H128139   4.379   2.997   0.413  0.1082  0.0017  0.0363
 2216TIP3    H228140   4.355   2.848   0.415 -0.0886  0.0289 -0.1957
 2217TIP3   OH228141   3.143   4.144  16.601 -0.0033  0.1388  0.0981
 2217TIP3    H128142   3.123   4.222  16.654  0.7906 -0.2741  1.0543
 2217TIP3    H228143   3.238   4.136  16.606 -0.0075 -0.4592 -0.6278
 2218TIP3   OH228144   4.690   4.954   3.264  0.4078 -0.2809 -0.3845
 2218TIP3    H128145   4.601   4.946   3.299  0.4395 -2.6717 -0.7103
 2218TIP3    H228146   4.747   4.919   3.332  1.0156  0.1684 -0.6484
 2219TIP3   OH228147   0.650   6.798   5.478 -0.4630 -1.0035  0.1641
 2219TIP3    H128148   0.613   6.884   5.499  1.2221 -0.1713 -0.1747
 2219TIP3    H228149   0.576   6.748   5.442 -1.1067  0.8519 -1.2076
 2220TIP3   OH228150   4.237   2.992   6.659  0.4943 -0.1177 -0.2073
 2220TIP3    H128151   4.249   3.029   6.747  0.4086 -0.3716 -0.0871
 2220TIP3    H228152   4.174   3.051   6.617 -0.3021 -0.5994  0.2775
 2221TIP3   OH228153   4.876   6.787   2.171  0.2949 -0.5479 -0.6386
 2221TIP3    H128154   4.832   6.708   2.139 -0.7760  0.3835 -1.5346
 2221TIP3    H228155   4.806   6.851   2.182  1.0695  0.1122  0.6677
 2222TIP3   OH228156   6.267   6.471   0.757  0.0299  0.0308  0.7438
 2222TIP3    H128157   6.267   6.545   0.695  0.7739  0.2840  1.0237
 2222TIP3    H228158   6.327   6.499   0.826 -1.5386  0.1619  2.1021
 2223TIP3   OH228159   3.753   6.519  14.346 -0.0620 -0.0959 -0.4283
 2223TIP3    H128160   3.789   6.573  14.276 -1.7717  1.3014 -0.3105
 2223TIP3    H228161   3.746   6.431  14.308 -0.6942  0.5674 -1.9154
 2224TIP3   OH228162   1.019   4.262   0.873 -0.2565 -0.0561  0.0961
 2224TIP3    H128163   0.954   4.226   0.813 -0.7477 -0.0560  0.6168
 2224TIP3    H228164   0.971   4.330   0.922  0.0717 -0.2096  0.6377
 2225TIP3   OH228165   2.456   1.515  12.717  0.0735 -0.0205  0.1457
 2225TIP3    H128166   2.507   1.516  12.636 -0.7112 -0.3206 -0.3665
 2225TIP3    H228167   2.513   1.474  12.781  0.8101  0.4628 -0.1785
 2226TIP3   OH228168   2.539   4.190  12.902 -0.4777  0.1497  0.5631
 2226TIP3    H128169   2.530   4.236  12.985  0.5896  2.3646 -0.4820
 2226TIP3    H228170   2.583   4.107  12.925  2.0192  1.7432  1.9821
 2227TIP3   OH228171   1.599   3.249   3.527 -0.1054  0.1589  0.1713
 2227TIP3    H128172   1.548   3.328   3.508 -0.5787 -0.2965 -0.5199
 2227TIP3    H228173   1.664   3.245   3.456 -1.7162 -1.4196 -1.3201
 2228TIP3   OH228174   1.604   4.856   4.133 -0.4117  0.1743 -0.2213
 2228TIP3    H128175   1.682   4.871   4.079  0.8398 -0.8471  1.2341
 2228TIP3    H228176   1.565   4.776   4.098 -0.6920  0.5620 -0.8074
 2229TIP3   OH228177   2.973   1.575  14.675 -0.2117 -0.4635  0.3706
 2229TIP3    H128178   2.983   1.485  14.644 -0.3826 -0.7114  1.0007
 2229TIP3    H228179   2.939   1.623  14.600  0.6800 -0.7416 -0.2194
 2230TIP3   OH228180   5.073   1.025   5.317  0.1760  0.4583  0.1735
 2230TIP3    H128181   5.105   0.963   5.250 -0.0449 -0.3953  0.8423
 2230TIP3    H228182   4.987   1.051   5.286 -0.2182 -0.4682  0.4512
 2231TIP3   OH228183   0.617   4.718  15.823 -0.2237  0.1859  1.1962
 2231TIP3    H128184   0.683   4.694  15.889  0.7639  0.9519  0.5247
 2231TIP3    H228185   0.663   4.778  15.765 -1.1973 -0.1477  0.0442
 2232TIP3   OH228186   1.866   0.822  13.873 -0.3063 -0.4966  0.5773
 2232TIP3    H128187   1.785   0.827  13.823  0.9901 -0.7054 -1.6881
 2232TIP3    H228188   1.879   0.728  13.888  0.2787 -0.5882 -0.4379
 2233TIP3   OH228189   6.203   6.608  11.024 -0.2602 -0.4122 -0.0971
 2233TIP3    H128190   6.115   6.576  11.004 -2.0435  2.4455  2.4905
 2233TIP3    H228191   6.224   6.666  10.951 -1.1761  0.0560  0.0038
 2234TIP3   OH228192   3.687   1.782   3.241  0.4235 -0.9043  0.3509
 2234TIP3    H128193   3.694   1.729   3.320  0.9015  1.0510  1.7018
 2234TIP3    H228194   3.721   1.868   3.267  1.2286 -0.3755 -2.1734
 2235TIP3   OH228195   2.234   0.376  15.594 -0.0294 -0.0645 -0.2575
 2235TIP3    H128196   2.240   0.435  15.669  0.4745 -1.5715  0.9389
 2235TIP3    H228197   2.196   0.296  15.630 -1.4968 -0.2374 -2.0061
 2236TIP3   OH228198   0.461   0.039  12.623 -0.1373 -0.6086  0.0722
 2236TIP3    H128199   0.440   0.127  12.590  2.1691  0.6590  1.6973
 2236TIP3    H228200   0.376   0.001  12.646 -1.3322  0.5191 -2.1777
 2237TIP3   OH228201   2.958   2.636  15.733  0.2897 -0.8404 -0.0184
 2237TIP3    H128202   2.904   2.558  15.729  0.8071 -1.1825 -0.6482
 2237TIP3    H228203   3.031   2.618  15.672 -0.4474  0.7629 -1.4805
 2238TIP3   OH228204   4.219   6.375  10.998  0.1751  0.0002 -0.6289
 2238TIP3    H128205   4.297   6.361  11.053 -0.5671 -1.9789  0.0088
 2238TIP3    H228206   4.235   6.322  10.920 -1.7207 -2.9444  0.8097
 2239TIP3   OH228207   3.924   5.205  14.024  0.5412  0.4677 -0.1039
 2239TIP3    H128208   3.932   5.194  13.929 -3.0354  0.5412 -0.5521
 2239TIP3    H228209   3.973   5.132  14.061 -0.7569 -1.6023 -2.1769
 2240TIP3   OH228210   3.384   6.694  13.550  0.9144  0.3662 -0.3555
 2240TIP3    H128211   3.384   6.747  13.470  0.3400  1.1723  0.1797
 2240TIP3    H228212   3.421   6.751  13.617  0.2027  0.1357  0.2472
 2241TIP3   OH228213   6.200   0.481  13.513 -0.3804 -0.1574 -0.3071
 2241TIP3    H128214   6.196   0.531  13.431 -1.0085 -1.1795 -0.9121
 2241TIP3    H228215   6.293   0.462  13.524 -0.0775  1.4128  0.1143
 2242TIP3   OH228216   1.376   0.552   4.243 -0.8633 -0.1559 -0.6164
 2242TIP3    H128217   1.329   0.483   4.289  0.8887 -1.5202 -0.7541
 2242TIP3    H228218   1.307   0.609   4.209 -2.3151 -1.0285  0.7135
 2243TIP3   OH228219   5.697   1.789  14.956 -0.4091  0.1107 -0.0181
 2243TIP3    H128220   5.681   1.694  14.948 -0.2411 -0.0028  0.9077
 2243TIP3    H228221   5.779   1.795  15.004 -1.0241  0.7261  0.9835
 2244TIP3   OH228222   0.449   2.823   1.945 -0.1913 -0.3417  0.0055
 2244TIP3    H128223   0.444   2.834   2.040 -0.8728  0.0491 -0.0645
 2244TIP3    H228224   0.528   2.772   1.930  1.6411  2.1339  0.5820
 2245TIP3   OH228225   2.165   6.748   1.262  0.3043  0.1198  0.1167
 2245TIP3    H128226   2.112   6.827   1.269 -2.0020 -1.2445 -0.5293
 2245TIP3    H228227   2.231   6.768   1.196  0.4806  1.8318  0.7750
 2246TIP3   OH228228   2.710   1.813   1.825 -0.5519 -0.2911  0.4624
 2246TIP3    H128229   2.778   1.807   1.893 -0.9384 -1.6565  0.7710
 2246TIP3    H228230   2.737   1.886   1.770  0.9893 -0.5727  0.7922
 2247TIP3   OH228231   2.988   4.495   4.933 -0.4618  0.1032  0.3789
 2247TIP3    H128232   2.981   4.582   4.972  0.1686 -0.4154  1.7212
 2247TIP3    H228233   3.062   4.502   4.872  1.4826 -0.1414  2.5430
 2248TIP3   OH228234   0.020   0.111   2.481 -0.1464 -0.3696  0.1895
 2248TIP3    H128235   0.085   0.155   2.536  0.8302 -0.8148 -0.5867
 2248TIP3    H228236  -0.050   0.086   2.542  0.6423 -0.3395  1.1291
 2249TIP3   OH228237   0.200   5.895  17.083 -0.1558  0.2160  0.3023
 2249TIP3    H128238   0.240   5.946  17.013  1.0219 -1.6942 -0.5192
 2249TIP3    H228239   0.214   5.946  17.162  0.9796  1.1312 -0.4681
 2250TIP3   OH228240   2.071   3.996   2.980 -0.6156  0.1997  0.7966
 2250TIP3    H128241   2.158   3.983   2.943 -0.7610  0.3491  0.3888
 2250TIP3    H228242   2.026   3.913   2.966 -1.1451  0.6995 -0.7023
 2251TIP3   OH228243   0.240   5.329   0.623 -0.1170 -0.4608 -0.1517
 2251TIP3    H128244   0.210   5.284   0.544 -1.3028  1.9941 -1.2266
 2251TIP3    H228245   0.326   5.363   0.600  0.3987 -1.4086  0.3440
 2252TIP3   OH228246   2.029   5.666  16.766 -0.8108  0.4391 -0.1887
 2252TIP3    H128247   1.968   5.732  16.801 -2.6811 -1.0411 -0.4996
 2252TIP3    H228248   2.113   5.711  16.764 -1.5727  2.1288  1.6373
 2253TIP3   OH228249   3.085   0.402  16.535 -0.1055  0.1163  0.0838
 2253TIP3    H128250   3.065   0.479  16.482 -0.8284  1.5670  2.3310
 2253TIP3    H228251   3.002   0.380  16.577  0.8273  0.2921  2.1464
 2254TIP3   OH228252   0.360   3.517  13.318 -0.1372  0.5297  0.0864
 2254TIP3    H128253   0.423   3.586  13.339  0.4837  0.0743 -0.2240
 2254TIP3    H228254   0.408   3.459  13.259 -0.2803 -0.7390  1.1782
 2255TIP3   OH228255   5.563   2.486   1.164 -0.2906  0.2505  0.6309
 2255TIP3    H128256   5.505   2.475   1.239  0.2811  0.5035  1.1198
 2255TIP3    H228257   5.528   2.428   1.097 -1.0550  0.3388  0.9474
 2256TIP3   OH228258   6.429   0.026  10.934 -0.6558  0.2445  0.1365
 2256TIP3    H128259   6.474   0.007  11.016 -1.2008  0.3001  0.4570
 2256TIP3    H228260   6.445  -0.050  10.879  1.4788  1.0934 -0.5088
 2257TIP3   OH228261   0.433   5.856   2.936  0.1518 -0.1668 -0.2135
 2257TIP3    H128262   0.501   5.881   2.999  0.2750  0.9763 -0.7800
 2257TIP3    H228263   0.393   5.778   2.974  0.6006  0.1690  0.9918
 2258TIP3   OH228264   4.289   2.660   1.336  0.0954 -0.1875  0.4880
 2258TIP3    H128265   4.350   2.587   1.327 -1.7927 -1.9256  0.9301
 2258TIP3    H228266   4.339   2.737   1.310  1.8382 -1.7805 -1.1857
 2259TIP3   OH228267   6.249   5.014  13.917 -0.1257 -0.2341  0.7291
 2259TIP3    H128268   6.238   5.108  13.901  0.5083 -0.2935 -0.1355
 2259TIP3    H228269   6.339   5.005  13.948  0.8268 -0.8373 -1.9336
 2260TIP3   OH228270   3.441   3.980  16.843  0.7753 -0.0589  0.0887
 2260TIP3    H128271   3.467   4.044  16.911  2.0700 -0.7700  0.2954
 2260TIP3    H228272   3.489   3.901  16.866 -1.5915 -1.4992  0.4449
 2261TIP3   OH228273   4.422   0.906   1.452 -0.5107  0.6159 -0.2275
 2261TIP3    H128274   4.475   0.880   1.377  1.5086  0.7739  1.0576
 2261TIP3    H228275   4.485   0.946   1.512 -1.7274 -1.0013  2.2726
 2262TIP3   OH228276   0.476   6.584   2.884 -0.1188  0.2294  0.4597
 2262TIP3    H128277   0.490   6.545   2.797 -1.7627 -0.2029  0.3491
 2262TIP3    H228278   0.413   6.525   2.926 -0.5612  1.2986  1.3293
 2263TIP3   OH228279   5.340   5.422   5.809  0.4997  0.5895 -0.5925
 2263TIP3    H128280   5.407   5.354   5.815 -1.2834 -1.2161  0.2302
 2263TIP3    H228281   5.357   5.480   5.883  1.9610  1.0298 -1.2237
 2264TIP3   OH228282   2.808   5.704   5.228  0.2846  0.1402  0.0178
 2264TIP3    H128283   2.761   5.787   5.241  0.6361  0.0007  2.8861
 2264TIP3    H228284   2.881   5.709   5.290 -0.0428 -2.5485  0.7301
 2265TIP3   OH228285   4.518   5.809  13.917 -0.2773 -0.0753 -0.1843
 2265TIP3    H128286   4.554   5.816  13.828 -2.0837  0.2246 -0.9492
 2265TIP3    H228287   4.577   5.861  13.971  1.1023 -0.6096 -1.1142
 2266TIP3   OH228288   4.484   0.044   4.486  0.1790 -0.1685 -0.4311
 2266TIP3    H128289   4.517  -0.034   4.442  0.1755 -0.2777 -0.2392
 2266TIP3    H228290   4.550   0.111   4.467  1.8735 -0.9873  2.0046
 2267TIP3   OH228291   0.612   4.928   4.053  0.3938 -0.2829  0.4312
 2267TIP3    H128292   0.550   5.000   4.042 -0.2743 -0.8384  0.5198
 2267TIP3    H228293   0.661   4.926   3.971  0.1826  0.0488  0.2920
 2268TIP3   OH228294   2.546   1.602   5.855 -0.0818 -0.0358 -0.3440
 2268TIP3    H128295   2.638   1.628   5.858  0.0168 -0.4918  0.8075
 2268TIP3    H228296   2.509   1.635   5.937 -0.4102 -1.7899  0.2400
 2269TIP3   OH228297   2.028   2.376  16.521  0.0422  0.0396 -0.7346
 2269TIP3    H128298   2.051   2.455  16.472  1.3360  2.0722  2.7899
 2269TIP3    H228299   2.053   2.304  16.462  0.4867  2.1985 -3.4032
 2270TIP3   OH228300   1.507   2.725   6.022  0.3040 -0.2647  0.0768
 2270TIP3    H128301   1.456   2.785   6.076 -0.2920 -1.9483  1.4883
 2270TIP3    H228302   1.569   2.685   6.083 -0.0767 -1.8727 -0.5401
 2271TIP3   OH228303   4.508   3.332  15.884 -0.1660 -0.1358 -0.1958
 2271TIP3    H128304   4.572   3.351  15.815  0.0310  0.8039  0.2266
 2271TIP3    H228305   4.558   3.285  15.951 -0.1909 -0.4228 -0.3784
 2272TIP3   OH228306   5.067   2.188   0.642  0.8347  0.0576 -0.0700
 2272TIP3    H128307   5.139   2.161   0.700  1.5716  2.0003 -0.0276
 2272TIP3    H228308   5.065   2.283   0.649 -1.0770  0.1159 -0.9009
 2273TIP3   OH228309   3.259   6.347  14.976 -0.0884 -1.0073  0.0902
 2273TIP3    H128310   3.309   6.337  14.896  3.1265 -2.1726  2.0529
 2273TIP3    H228311   3.245   6.257  15.007  1.1707 -0.5498  2.1535
 2274TIP3   OH228312   5.869   5.310  14.631  0.0968  1.3992 -0.0585
 2274TIP3    H128313   5.803   5.289  14.698  0.2571  2.2783  0.3812
 2274TIP3    H228314   5.827   5.284  14.548 -0.8920  2.1200  0.1921
 2275TIP3   OH228315   6.480   4.510   1.375 -0.0047 -0.1717 -0.1539
 2275TIP3    H128316   6.535   4.451   1.426 -0.3920  0.5500  1.1632
 2275TIP3    H228317   6.480   4.474   1.287  2.4713 -0.2714 -0.1797
 2276TIP3   OH228318   2.492   0.960  14.468  0.0448 -0.1239  0.0888
 2276TIP3    H128319   2.517   0.924  14.383 -0.0586 -0.3131  0.1382
 2276TIP3    H228320   2.463   1.049  14.449 -1.1826 -0.5696 -0.2612
 2277TIP3   OH228321   3.939   3.494  12.922  0.3279 -0.3183 -0.5245
 2277TIP3    H128322   3.960   3.535  12.839 -0.1363 -0.1804 -0.5760
 2277TIP3    H228323   3.896   3.412  12.898 -1.3029  0.4847 -0.4376
 2278TIP3   OH228324   3.611   1.265   0.137 -0.1146  1.2793  0.1104
 2278TIP3    H128325   3.545   1.231   0.078  0.3787  1.8175 -0.7711
 2278TIP3    H228326   3.561   1.300   0.211 -0.6650 -0.5087  0.6195
 2279TIP3   OH228327   4.108   5.724   1.813 -0.0023  0.8467 -0.5452
 2279TIP3    H128328   4.137   5.642   1.774 -0.2642  1.0146 -1.0930
 2279TIP3    H228329   4.046   5.760   1.750 -0.5474  1.0412  0.0943
 2280TIP3   OH228330   5.877   6.779  13.928 -0.6547  0.1030 -0.0353
 2280TIP3    H128331   5.968   6.776  13.957 -0.4007  2.2709 -0.4361
 2280TIP3    H228332   5.826   6.752  14.005  0.3299 -3.0157 -0.3626
 2281TIP3   OH228333   2.584   4.546   2.670 -0.0491  0.0216  0.4400
 2281TIP3    H128334   2.594   4.562   2.576  0.9557  1.9876  0.8181
 2281TIP3    H228335   2.526   4.470   2.676 -1.2322  0.6642 -1.7615
 2282TIP3   OH228336   5.909   5.141  14.925  0.1380  0.2324  0.2866
 2282TIP3    H128337   5.929   5.048  14.933 -2.7181 -0.3360  2.9269
 2282TIP3    H228338   5.851   5.147  14.849  1.0508  0.0610 -0.4427
 2283TIP3   OH228339   1.672   4.180  15.578  0.0427 -0.1050 -0.1688
 2283TIP3    H128340   1.614   4.253  15.602 -0.7746  0.1643 -2.5892
 2283TIP3    H228341   1.757   4.220  15.564 -0.3779  0.4232 -1.3760
 2284TIP3   OH228342   4.077   0.205  12.760 -0.3801  1.1047  0.0316
 2284TIP3    H128343   4.063   0.265  12.833  0.1223  2.0464 -0.6156
 2284TIP3    H228344   4.156   0.239  12.717  0.8377 -0.9053  0.5198
 2285TIP3   OH228345   1.378   6.631   2.255  0.3620  0.0049  0.6574
 2285TIP3    H128346   1.320   6.644   2.329 -0.2112  0.7805  0.0894
 2285TIP3    H228347   1.340   6.684   2.185  1.0759 -0.4452 -0.0903
 2286TIP3   OH228348   4.351   3.510   3.246 -0.2232 -0.2219  0.1152
 2286TIP3    H128349   4.359   3.526   3.152 -0.4010 -2.0999 -0.2515
 2286TIP3    H228350   4.438   3.481   3.273 -0.8478 -2.3690 -0.0569
 2287TIP3   OH228351   0.291   5.361   4.374 -0.0264  0.1886  0.6711
 2287TIP3    H128352   0.226   5.404   4.318 -0.6893 -1.4052  0.1652
 2287TIP3    H228353   0.307   5.424   4.444 -0.4050  1.5545 -0.4246
 2288TIP3   OH228354   1.025   0.769   6.734  0.0495 -0.2341 -0.4935
 2288TIP3    H128355   0.943   0.810   6.706 -0.5503 -0.5645  0.7290
 2288TIP3    H228356   1.032   0.789   6.827  0.4647 -1.6795 -0.1880
 2289TIP3   OH228357   3.080   0.543   4.932  0.5914  0.0194  0.6305
 2289TIP3    H128358   3.071   0.473   4.997  0.2431  0.0965  0.6675
 2289TIP3    H228359   3.134   0.505   4.863  0.7534 -0.1468  0.8475
 2290TIP3   OH228360   2.670   3.875   4.829 -0.0590  0.4791 -0.2073
 2290TIP3    H128361   2.595   3.815   4.826 -0.8666  1.4126  0.5926
 2290TIP3    H228362   2.742   3.825   4.790 -1.0359 -0.5170 -0.7927
 2291TIP3   OH228363   3.907   1.337   3.573  0.0344 -0.1066 -0.0803
 2291TIP3    H128364   3.869   1.390   3.503  0.5060  0.9634  0.4420
 2291TIP3    H228365   3.831   1.309   3.625 -0.1795  0.6425  0.0246
 2292TIP3   OH228366   5.432   3.564   0.027  0.1343 -0.3947  0.2247
 2292TIP3    H128367   5.391   3.632   0.080  1.0719  1.4047 -1.2484
 2292TIP3    H228368   5.471   3.504   0.090 -0.9368  0.2743  1.5693
 2293TIP3   OH228369   4.982   1.350  16.988 -0.3837  0.2740 -0.0846
 2293TIP3    H128370   4.949   1.361  17.077 -1.3519 -1.6284 -0.1676
 2293TIP3    H228371   4.914   1.387  16.932 -0.7259 -0.3657 -0.1009
 2294TIP3   OH228372   5.037   3.912   0.814  0.3703  0.2716 -0.1692
 2294TIP3    H128373   5.079   3.963   0.884  0.0198  0.1003  0.1691
 2294TIP3    H228374   5.053   3.963   0.735 -0.7145  1.3762  0.2746
 2295TIP3   OH228375   0.295   2.465  12.254 -0.3737  0.0761  0.3743
 2295TIP3    H128376   0.347   2.412  12.195 -2.2672 -0.5534 -0.8172
 2295TIP3    H228377   0.205   2.435  12.241 -1.1712  1.7217  1.6669
 2296TIP3   OH228378   3.914   4.481  17.117 -1.2565 -0.1788 -0.4432
 2296TIP3    H128379   3.878   4.488  17.029  0.5351 -1.4699 -1.3182
 2296TIP3    H228380   3.941   4.571  17.138 -1.6848  0.1403 -1.1985
 2297TIP3   OH228381   6.633   2.854   3.356  0.4448  0.7410 -0.2082
 2297TIP3    H128382   6.593   2.879   3.274  0.7133  0.8479 -0.3079
 2297TIP3    H228383   6.599   2.766   3.374 -1.7520  1.7652  0.9543
 2298TIP3   OH228384   1.610   3.981   1.176  0.7057  0.0078 -0.6424
 2298TIP3    H128385   1.623   3.938   1.092 -0.0556  0.1198 -0.8215
 2298TIP3    H228386   1.578   4.068   1.154  4.2030  1.5441 -0.3947
 2299TIP3   OH228387   5.555   2.171  13.003  0.1378 -0.2319  0.3205
 2299TIP3    H128388   5.465   2.146  12.982 -0.1117 -0.5980  1.7315
 2299TIP3    H228389   5.603   2.089  13.004 -0.2758 -0.5381  3.0069
 2300TIP3   OH228390   2.279   2.592  13.454  0.1144  0.0441 -0.2905
 2300TIP3    H128391   2.294   2.625  13.365  2.5189 -1.4836 -0.5584
 2300TIP3    H228392   2.200   2.637  13.483 -0.6774  0.7319 -3.1227
 2301TIP3   OH228393   5.030   0.331  16.378 -0.3859 -0.3156  0.1629
 2301TIP3    H128394   5.012   0.257  16.321 -0.1992  0.0653 -0.4020
 2301TIP3    H228395   5.022   0.408  16.321  0.0041  0.0597  0.6037
 2302TIP3   OH228396   5.886   0.961   6.465  0.2265  0.0827  0.3531
 2302TIP3    H128397   5.866   0.899   6.534  1.3063 -2.1764 -1.2612
 2302TIP3    H228398   5.971   0.934   6.431 -1.5235 -0.9429 -3.8597
 2303TIP3   OH228399   5.359   6.650   0.313  0.2084  0.2552 -0.3425
 2303TIP3    H128400   5.438   6.630   0.363  0.0725 -0.5547 -0.4422
 2303TIP3    H228401   5.391   6.664   0.223  0.0898 -1.5397 -0.6945
 2304TIP3   OH228402   4.584   2.285  12.013  0.2585 -0.2035 -0.3937
 2304TIP3    H128403   4.491   2.266  12.020  0.3513 -0.3461  0.5661
 2304TIP3    H228404   4.623   2.244  12.090  0.8475  1.4999  0.2689
 2305TIP3   OH228405   3.434   4.140   0.047  0.2004 -0.4236 -0.1562
 2305TIP3    H128406   3.392   4.054   0.038 -0.1762 -0.1670 -0.9312
 2305TIP3    H228407   3.494   4.145  -0.027 -0.7019  0.4824 -0.8583
 2306TIP3   OH228408   5.085   0.810   3.963 -0.0450  0.1088  0.1352
 2306TIP3    H128409   5.116   0.723   3.936  0.1872  0.4698 -0.7979
 2306TIP3    H228410   5.001   0.820   3.919  0.5149  0.8637 -0.8038
 2307TIP3   OH228411   0.858   6.818   3.352  0.5890  0.0881 -0.3081
 2307TIP3    H128412   0.781   6.789   3.303 -1.2858 -0.0252  2.4250
 2307TIP3    H228413   0.854   6.913   3.351 -0.0271  0.0845  0.3503
 2308TIP3   OH228414   5.331   1.226  11.057 -0.3728 -0.1835 -0.9388
 2308TIP3    H128415   5.297   1.315  11.072 -0.6259 -0.2570 -1.0652
 2308TIP3    H228416   5.391   1.235  10.983  2.8983  0.6770  1.5914
 2309TIP3   OH228417   3.967   5.877  11.396  0.4757  0.4005 -0.1571
 2309TIP3    H128418   3.891   5.934  11.405  0.8195  0.9399 -0.6105
 2309TIP3    H228419   4.040   5.929  11.429  0.5240 -0.4528  1.1860
 2310TIP3   OH228420   3.584   1.209   3.118  0.0067  0.0547 -0.3727
 2310TIP3    H128421   3.518   1.267   3.080  0.2101 -0.5231 -1.6713
 2310TIP3    H228422   3.543   1.175   3.198  0.4078  3.0410  1.2586
 2311TIP3   OH228423   2.855   6.065   4.046  0.1452 -0.0582  0.0995
 2311TIP3    H128424   2.948   6.050   4.065  0.3983  2.5647  1.2857
 2311TIP3    H228425   2.837   6.007   3.972  2.8218 -0.3974 -0.3950
 2312TIP3   OH228426   5.960   1.613   2.386 -0.0962 -0.4324  0.1683
 2312TIP3    H128427   5.994   1.577   2.304  1.2044 -0.7921  0.8240
 2312TIP3    H228428   5.986   1.549   2.453 -0.4631  0.2164  0.9536
 2313TIP3   OH228429   3.863   0.733   4.113  0.1042  0.5008  0.0989
 2313TIP3    H128430   3.795   0.757   4.177 -1.7349  0.2091 -1.6261
 2313TIP3    H228431   3.814   0.692   4.041  2.3886 -1.8676 -0.2326
 2314TIP3   OH228432   6.601   5.862   4.105 -0.0493  0.1457  0.6519
 2314TIP3    H128433   6.562   5.898   4.025  1.2299  0.7049  0.2600
 2314TIP3    H228434   6.578   5.926   4.173 -0.5689  0.0122  0.6057
 2315TIP3   OH228435   1.299   0.486   1.355 -0.2911  0.2010  0.3160
 2315TIP3    H128436   1.315   0.514   1.265  0.5030 -0.4138  0.2520
 2315TIP3    H228437   1.322   0.562   1.408  0.0806  0.2794  0.0463
 2316TIP3   OH228438   1.836   6.051   5.406  0.0868 -0.5835  0.3041
 2316TIP3    H128439   1.760   5.997   5.427 -0.1491  0.0591  1.1629
 2316TIP3    H228440   1.800   6.123   5.354  0.3402 -1.0376 -0.5125
 2317TIP3   OH228441   2.864   3.987  14.024  0.1924  0.2112 -0.1722
 2317TIP3    H128442   2.868   3.965  13.931  0.9436 -0.0932 -0.0734
 2317TIP3    H228443   2.955   3.990  14.053 -0.0530 -0.6140  0.7591
 2318TIP3   OH228444   6.563   0.960   4.918 -0.6417 -0.1624  0.6084
 2318TIP3    H128445   6.647   0.996   4.945  0.3612 -1.7285 -0.2554
 2318TIP3    H228446   6.570   0.953   4.822 -2.2126  0.7283  0.3839
 2319TIP3   OH228447   1.456   0.061  13.973  0.0965 -0.0347  0.0119
 2319TIP3    H128448   1.418  -0.020  13.940 -1.2140  0.4995  0.1352
 2319TIP3    H228449   1.531   0.033  14.025  0.0475 -1.1192 -0.4690
 2320TIP3   OH228450   1.440   0.529   5.558 -0.2531 -0.0908  0.1211
 2320TIP3    H128451   1.535   0.538   5.571 -0.3836 -0.2597  1.3150
 2320TIP3    H228452   1.432   0.479   5.477  0.6640  0.2673 -0.2151
 2321TIP3   OH228453   3.417   1.555  12.502  0.0922  0.4050 -0.5422
 2321TIP3    H128454   3.418   1.461  12.520 -0.0479  0.5353  0.2184
 2321TIP3    H228455   3.387   1.563  12.412  0.9972 -0.3197 -0.9159
 2322TIP3   OH228456   3.501   3.629  16.154 -0.1346  0.2045  0.1569
 2322TIP3    H128457   3.408   3.613  16.165 -0.1418 -0.4557 -0.7355
 2322TIP3    H228458   3.537   3.544  16.128  0.4443  0.7985 -1.0904
 2323TIP3   OH228459   4.585   6.744  16.071 -0.0707 -1.3269  0.3492
 2323TIP3    H128460   4.584   6.756  16.166 -0.9683 -1.4554  0.3688
 2323TIP3    H228461   4.591   6.650  16.059 -1.1265 -1.3995  0.3022
 2324TIP3   OH228462   5.739   3.742  15.719  0.2518  0.2554 -0.3348
 2324TIP3    H128463   5.690   3.716  15.797 -0.7277  0.5662 -0.8301
 2324TIP3    H228464   5.827   3.705  15.732 -0.4365 -1.3598  0.0269
 2325TIP3   OH228465   5.725   2.566  12.537 -0.2067 -0.3981 -0.5143
 2325TIP3    H128466   5.720   2.632  12.467  1.9875  1.7280  1.1523
 2325TIP3    H228467   5.634   2.547  12.559 -0.9337  1.7380 -1.3930
 2326TIP3   OH228468   3.434   3.495  16.421 -0.1678 -0.0599 -0.7234
 2326TIP3    H128469   3.411   3.538  16.503  0.7893  0.2364 -0.6027
 2326TIP3    H228470   3.516   3.536  16.395 -0.0551 -0.7193 -1.4221
 2327TIP3   OH228471   0.638   1.812   2.436 -0.0981 -0.5832 -0.8355
 2327TIP3    H128472   0.654   1.850   2.522  0.0143 -1.5652 -0.4143
 2327TIP3    H228473   0.725   1.789   2.403  0.0506  1.3879 -1.9957
 2328TIP3   OH228474   4.616   1.158  15.170 -0.3049  0.3035  0.3799
 2328TIP3    H128475   4.637   1.247  15.140  1.0003 -0.6976 -1.9310
 2328TIP3    H228476   4.691   1.133  15.224 -0.7215  0.6135  1.1183
 2329TIP3   OH228477   0.508   6.390  14.977  0.0539 -0.3116  0.7450
 2329TIP3    H128478   0.506   6.469  14.921 -2.1993 -1.1864 -0.5466
 2329TIP3    H228479   0.561   6.328  14.927 -2.2947 -1.2314 -0.7525
 2330TIP3   OH228480   1.712   4.491   2.785 -0.2866 -0.1842 -0.0252
 2330TIP3    H128481   1.677   4.425   2.725  2.1490 -0.0809 -1.6988
 2330TIP3    H228482   1.718   4.446   2.869  0.5471 -1.8754 -0.9368
 2331TIP3   OH228483   0.244   5.209   3.376 -0.0102 -0.1166 -0.1604
 2331TIP3    H128484   0.297   5.134   3.350 -4.3375 -3.4605 -0.3832
 2331TIP3    H228485   0.247   5.267   3.300 -0.4544 -2.5516 -2.1836
 2332TIP3   OH228486   6.684   5.164  13.179  0.2912  0.2377 -0.5213
 2332TIP3    H128487   6.626   5.088  13.169 -1.7187  1.4447  1.2387
 2332TIP3    H228488   6.628   5.239  13.159  1.9548  1.3438 -1.1827
 2333TIP3   OH228489   1.735   4.272   0.957  0.3763  0.5082 -0.7975
 2333TIP3    H128490   1.815   4.289   1.007 -1.6104 -0.9532  3.2829
 2333TIP3    H228491   1.726   4.348   0.900  4.0456  1.2164 -0.7019
 2334TIP3   OH228492   3.842   4.961   1.301 -0.6584 -0.7965  0.1388
 2334TIP3    H128493   3.877   4.996   1.219 -1.2985 -3.1175 -1.2339
 2334TIP3    H228494   3.748   4.982   1.297 -0.6892 -0.9108  0.2714
 2335TIP3   OH228495   6.835   0.152   1.754 -0.0750 -0.1502 -0.0717
 2335TIP3    H128496   6.898   0.203   1.805 -0.8659  0.4353  0.3341
 2335TIP3    H228497   6.780   0.109   1.820 -1.0443  0.5335 -0.4195
 2336TIP3   OH228498   6.832   2.769  15.996 -0.2988  0.7112 -0.3232
 2336TIP3    H128499   6.884   2.842  16.028 -0.7236  0.8343  0.0939
 2336TIP3    H228500   6.894   2.697  15.987  0.0556  1.0297 -0.4267
 2337TIP3   OH228501   1.737   2.445  11.971 -0.0329  0.0658 -0.6552
 2337TIP3    H128502   1.699   2.357  11.971  0.4986 -0.2980  2.4650
 2337TIP3    H228503   1.691   2.491  12.042  0.0264  2.1933 -1.9128
 2338TIP3   OH228504   0.306   5.546  13.823 -0.1682  0.5614 -0.3612
 2338TIP3    H128505   0.386   5.496  13.840 -0.5488 -0.7660 -2.1224
 2338TIP3    H228506   0.280   5.581  13.908  0.3007 -2.0398  0.9468
 2339TIP3   OH228507   3.406   1.051   4.791 -0.4186  0.2399  0.3644
 2339TIP3    H128508   3.342   0.979   4.799 -0.7554  0.6542  1.6100
 2339TIP3    H228509   3.387   1.108   4.865  0.5730  1.0534  0.0121
 2340TIP3   OH228510   2.963   0.698  13.612  0.1614  0.2207 -0.0690
 2340TIP3    H128511   3.033   0.681  13.676  0.1527 -1.8493 -0.5404
 2340TIP3    H228512   2.887   0.722  13.665  0.0994 -1.6473  0.7766
 2341TIP3   OH228513   0.436   2.943   3.103 -0.5564  0.3300  0.3133
 2341TIP3    H128514   0.509   2.894   3.065 -1.6984  0.0449 -1.6383
 2341TIP3    H228515   0.403   2.885   3.173  1.2034  0.5942  1.4250
 2342TIP3   OH228516   1.291   1.896  10.930 -0.0817  0.1271  0.2140
 2342TIP3    H128517   1.249   1.823  10.976 -1.5960  0.7563 -0.1100
 2342TIP3    H228518   1.257   1.891  10.841 -0.4606  1.4102  0.2645
 2343TIP3   OH228519   4.990   2.722   1.999  0.1836 -0.1724 -0.5559
 2343TIP3    H128520   4.899   2.696   1.983  0.2648  0.1035 -1.5833
 2343TIP3    H228521   5.034   2.707   1.915  1.2129 -0.7984  0.0708
 2344TIP3   OH228522   6.015   6.482  16.246  0.2137 -0.0881  0.7667
 2344TIP3    H128523   5.976   6.568  16.254  0.9928  0.2239  1.3743
 2344TIP3    H228524   6.068   6.472  16.326 -0.1795 -1.2862  0.8956
 2345TIP3   OH228525   4.179   0.338   2.642 -0.5348 -0.6542 -0.1103
 2345TIP3    H128526   4.202   0.246   2.658 -1.2109 -1.2342 -2.1730
 2345TIP3    H228527   4.252   0.372   2.590 -0.6144 -0.2034  0.0684
 2346TIP3   OH228528   2.442   1.647   4.002  0.5956  0.0316  0.3793
 2346TIP3    H128529   2.514   1.678   4.056 -1.4466  1.7654  2.3260
 2346TIP3    H228530   2.433   1.711   3.933  1.2192 -0.4637 -0.1673
 2347TIP3   OH228531   6.704   5.344   4.140  0.5316  0.4499  0.4743
 2347TIP3    H128532   6.691   5.309   4.228  0.0630 -0.9777 -0.1227
 2347TIP3    H228533   6.784   5.396   4.146  1.3086 -0.7881  1.4352
 2348TIP3   OH228534   2.490   0.618  13.936 -0.3549 -0.1942 -0.2874
 2348TIP3    H128535   2.525   0.537  13.974  1.1576  0.7468  0.4446
 2348TIP3    H228536   2.491   0.680  14.008 -0.4447  0.7843 -1.1122
 2349TIP3   OH228537   3.348   6.056  14.455 -0.2145  0.1241 -0.3904
 2349TIP3    H128538   3.314   6.141  14.426 -1.7907 -0.8589 -1.5746
 2349TIP3    H228539   3.343   6.001  14.377 -1.0165 -1.5787  0.7997
 2350TIP3   OH228540   1.735   2.160   3.513  0.0104  0.2025  0.2966
 2350TIP3    H128541   1.787   2.227   3.558 -0.4933  0.4420  0.5369
 2350TIP3    H228542   1.761   2.077   3.554  0.0789  0.3394  0.5322
 2351TIP3   OH228543   0.411   1.832   0.927  0.1270  0.6114 -0.1738
 2351TIP3    H128544   0.458   1.751   0.943 -0.4958  0.0460 -1.1143
 2351TIP3    H228545   0.362   1.848   1.008  0.0395 -0.1006 -0.0805
 2352TIP3   OH228546   4.186   6.294  13.259 -0.8355  0.2744  0.0521
 2352TIP3    H128547   4.241   6.355  13.211 -0.2616 -0.5122 -0.3183
 2352TIP3    H228548   4.152   6.234  13.193 -0.0545 -0.8069  0.6044
 2353TIP3   OH228549   1.647   2.686   5.359 -0.7124 -0.7421  0.2107
 2353TIP3    H128550   1.730   2.641   5.371  0.9897  1.8975 -0.7350
 2353TIP3    H228551   1.649   2.759   5.420 -3.2507 -1.6288  1.5113
 2354TIP3   OH228552   2.090   0.185  11.853 -0.6900 -0.2528  0.4442
 2354TIP3    H128553   2.038   0.163  11.776 -0.0751 -0.0121 -0.0466
 2354TIP3    H228554   2.082   0.280  11.862  0.7077 -0.0238 -0.4246
 2355TIP3   OH228555   1.506   2.860   0.674 -0.6313  0.2657 -0.5257
 2355TIP3    H128556   1.466   2.922   0.613  1.9436  0.6861 -1.9124
 2355TIP3    H228557   1.472   2.775   0.647 -2.6981  0.8038  0.1632
 2356TIP3   OH228558   3.179   0.553  10.239 -0.3056  0.4406 -0.6342
 2356TIP3    H128559   3.181   0.628  10.298  2.3635 -0.1554  0.1949
 2356TIP3    H228560   3.175   0.592  10.151 -0.3212  1.4987 -0.1795
 2357TIP3   OH228561   3.443   4.625  12.381 -0.4600  0.2841 -0.4079
 2357TIP3    H128562   3.525   4.601  12.338  0.0395 -0.1475  0.7249
 2357TIP3    H228563   3.378   4.566  12.344 -0.2201  0.4983 -1.1778
 2358TIP3   OH228564   6.054   5.555   2.897  0.1060 -0.1144  0.1985
 2358TIP3    H128565   6.060   5.536   2.804 -3.6841 -0.3571 -0.1576
 2358TIP3    H228566   6.118   5.497   2.938  0.9642 -0.9140 -2.1052
 2359TIP3   OH228567   6.070   2.058  14.469  0.1122 -0.0985 -0.2188
 2359TIP3    H128568   6.068   2.048  14.374  0.9648 -1.7431 -0.1116
 2359TIP3    H228569   6.125   2.136  14.484 -0.6104  0.5887 -1.0660
 2360TIP3   OH228570   0.235   5.299   1.519  0.6009  0.1815 -0.0375
 2360TIP3    H128571   0.174   5.320   1.448 -0.0220 -1.4369 -0.0040
 2360TIP3    H228572   0.185   5.315   1.599  0.4800 -0.3740 -0.0000
 2361TIP3   OH228573   2.517   1.813  15.724 -0.2834 -0.2832 -0.6249
 2361TIP3    H128574   2.508   1.723  15.691 -1.7577  0.2577 -1.8479
 2361TIP3    H228575   2.433   1.831  15.766  0.8649 -0.2682  1.8285
 2362TIP3   OH228576   1.446   0.349  15.984  0.2029  0.3911 -0.3155
 2362TIP3    H128577   1.375   0.373  16.042  0.5385  1.6538 -0.3875
 2362TIP3    H228578   1.424   0.390  15.900 -0.1449 -1.1769 -1.0293
 2363TIP3   OH228579   6.010   6.043   6.787  0.4391  0.3384 -0.3631
 2363TIP3    H128580   6.080   6.000   6.738  1.1451  0.3940  0.5599
 2363TIP3    H228581   5.972   5.973   6.841  3.0308  1.1076  2.8135
 2364TIP3   OH228582   5.021   1.811   1.721  0.1668 -0.4313  0.1146
 2364TIP3    H128583   4.958   1.739   1.716 -1.1107  0.6591  0.0177
 2364TIP3    H228584   4.983   1.880   1.667  0.5115  0.9514  1.5677
 2365TIP3   OH228585   2.595   5.530  16.245  0.7998 -0.3719 -0.1019
 2365TIP3    H128586   2.617   5.538  16.153 -0.7013 -0.0206 -0.4588
 2365TIP3    H228587   2.499   5.524  16.247  0.7715 -0.0486  1.4519
 2366TIP3   OH228588   0.245   2.614   5.420 -0.2947  0.6038 -0.2723
 2366TIP3    H128589   0.308   2.685   5.433 -0.1804  0.0362  3.2372
 2366TIP3    H228590   0.172   2.655   5.374  0.5697  2.5250 -0.0331
 2367TIP3   OH228591   4.899   2.149  12.792  0.3849 -0.4853 -0.3890
 2367TIP3    H128592   4.807   2.172  12.802  0.1475 -1.4665 -0.2342
 2367TIP3    H228593   4.946   2.233  12.798 -0.3780 -0.1264  0.8845
 2368TIP3   OH228594   5.148   3.834  12.105 -0.1694 -0.0504  0.1941
 2368TIP3    H128595   5.203   3.759  12.081  1.1980  0.8049  0.4972
 2368TIP3    H228596   5.062   3.796  12.122  0.3923 -1.4992  0.0131
 2369TIP3   OH228597   0.007   6.119   3.074  0.6290 -0.0740 -0.5206
 2369TIP3    H128598  -0.053   6.045   3.065  0.6247 -0.1027 -0.2744
 2369TIP3    H228599  -0.044   6.185   3.121  0.8979 -0.2280 -0.0034
 2370TIP3   OH228600   4.761   2.648   0.817 -0.3229 -0.5942  0.1919
 2370TIP3    H128601   4.707   2.631   0.740  0.6476  0.1125 -0.6946
 2370TIP3    H228602   4.837   2.695   0.782 -0.7475  1.4916  1.8245
 2371TIP3   OH228603   2.343   0.496   1.841 -0.1573 -0.1709 -0.3190
 2371TIP3    H128604   2.346   0.590   1.857 -3.1244 -0.2579  1.4856
 2371TIP3    H228605   2.330   0.488   1.746 -1.8797  1.3961 -0.2662
 2372TIP3   OH228606   4.736   2.799  16.601  0.6706  0.4481  0.2377
 2372TIP3    H128607   4.763   2.707  16.601 -0.2421  0.1455  1.6802
 2372TIP3    H228608   4.812   2.845  16.565  0.5791 -0.9836 -1.9864
 2373TIP3   OH228609   5.544   2.628  16.441  0.1546 -0.0987 -0.1216
 2373TIP3    H128610   5.543   2.606  16.348  1.3358 -0.7880  0.0010
 2373TIP3    H228611   5.485   2.702  16.449 -0.3498 -0.3465 -1.3391
 2374TIP3   OH228612   5.582   6.579   4.936 -0.2953 -0.2675 -0.1034
 2374TIP3    H128613   5.555   6.519   4.867  0.0988 -1.0738  0.4170
 2374TIP3    H228614   5.629   6.523   4.998  4.4013  1.2835 -1.8808
 2375TIP3   OH228615   0.354   4.838  13.080  0.0529  0.1733  0.1017
 2375TIP3    H128616   0.361   4.747  13.048 -1.2182  0.1113 -0.0562
 2375TIP3    H228617   0.366   4.891  13.001  0.0429  0.1146  0.0595
 2376TIP3   OH228618   1.152   0.549   2.243 -0.4840 -0.0014  0.3840
 2376TIP3    H128619   1.164   0.511   2.156 -2.5406 -0.8379  0.4146
 2376TIP3    H228620   1.079   0.500   2.281 -0.2942  1.0222  2.2075
 2377TIP3   OH228621   5.071   2.755   5.336  0.5875  0.3017  0.0044
 2377TIP3    H128622   5.065   2.661   5.348 -1.0167  0.2443 -1.0161
 2377TIP3    H228623   5.109   2.788   5.418  0.7977 -1.1711  0.5180
 2378TIP3   OH228624   1.195   0.006   0.020  0.1048  0.2973  0.3638
 2378TIP3    H128625   1.221  -0.086   0.025  0.3665  0.2871 -0.7770
 2378TIP3    H228626   1.115   0.006  -0.032  1.7010  0.9055 -2.3574
 2379TIP3   OH228627   1.941   6.194   4.031 -0.2130  0.5033 -0.3257
 2379TIP3    H128628   2.025   6.148   4.041 -0.6025 -0.1794 -0.1564
 2379TIP3    H228629   1.901   6.190   4.118 -0.8884 -0.0911 -0.6633
 2380TIP3   OH228630   4.473   1.315  15.961 -0.1738 -0.1086 -0.1119
 2380TIP3    H128631   4.378   1.309  15.954 -0.0067 -1.9313 -1.7045
 2380TIP3    H228632   4.489   1.353  16.047 -2.3367  1.0759 -0.1724
 2381TIP3   OH228633   4.121   6.190   6.321 -0.0314  0.1108 -0.6506
 2381TIP3    H128634   4.081   6.255   6.379 -0.6832 -0.1089 -0.8522
 2381TIP3    H228635   4.066   6.112   6.329  0.9516 -0.5493 -0.1388
 2382TIP3   OH228636   4.711   4.293   2.711  0.1263 -0.1218 -0.1363
 2382TIP3    H128637   4.786   4.286   2.652  0.2393  1.3690 -0.2113
 2382TIP3    H228638   4.660   4.214   2.695  0.6893 -0.2334 -1.4905
 2383TIP3   OH228639   4.169   2.713   2.903  0.4410  0.4067  0.8079
 2383TIP3    H128640   4.112   2.773   2.951  0.1870 -0.3437  1.4789
 2383TIP3    H228641   4.140   2.626   2.931  1.4137 -0.0052  0.5639
 2384TIP3   OH228642   5.802   4.986  16.187  0.5845 -0.5449  0.0881
 2384TIP3    H128643   5.778   5.027  16.270 -1.4581  0.5468 -0.9692
 2384TIP3    H228644   5.758   4.901  16.188  1.4643 -1.0152  0.5435
 2385TIP3   OH228645   4.620   1.775   2.643  0.0054 -0.2642  0.5498
 2385TIP3    H128646   4.532   1.739   2.656 -0.1615  0.2859  1.0252
 2385TIP3    H228647   4.668   1.707   2.595 -0.5097 -0.8071  0.7953
 2386TIP3   OH228648   1.608   2.954  12.620  0.4802  0.0063  0.1821
 2386TIP3    H128649   1.575   3.000  12.543  0.2227  1.1320  0.9511
 2386TIP3    H228650   1.619   3.022  12.686  1.2980 -0.8446  0.9530
 2387TIP3   OH228651   3.644   1.768   2.468 -0.2660 -0.2124  0.2343
 2387TIP3    H128652   3.738   1.750   2.471  0.4882  3.0921 -0.3052
 2387TIP3    H228653   3.617   1.770   2.560  0.5525  0.4469  0.4623
 2388TIP3   OH228654   3.860   3.161  11.851  0.9767 -0.2373  0.2250
 2388TIP3    H128655   3.940   3.152  11.902  0.8867 -0.4843  0.3229
 2388TIP3    H228656   3.799   3.097  11.889  0.6065  0.2088  0.3906
 2389TIP3   OH228657   6.607   6.509   4.844  0.0155  0.3936  0.1573
 2389TIP3    H128658   6.525   6.539   4.884 -0.0977  0.0547  0.1841
 2389TIP3    H228659   6.609   6.552   4.759 -1.4455 -1.5137 -0.9184
 2390TIP3   OH228660   0.926   2.202  12.828 -0.4808 -0.2188  0.2888
 2390TIP3    H128661   0.977   2.121  12.826 -1.1520 -0.8000  2.7784
 2390TIP3    H228662   0.990   2.270  12.850 -0.0293 -0.1328 -1.1815
 2391TIP3   OH228663   4.579   1.632   1.015 -0.4363  0.2698 -0.9293
 2391TIP3    H128664   4.590   1.726   1.001  0.0577  0.3702  0.0671
 2391TIP3    H228665   4.518   1.626   1.089  1.5930 -0.1099  0.8148
 2392TIP3   OH228666   0.684   6.164  15.197  0.2900  0.2574 -0.4990
 2392TIP3    H128667   0.758   6.104  15.184  0.1312 -0.2612  0.8454
 2392TIP3    H228668   0.683   6.217  15.118  0.6655 -1.2611 -1.5776
 2393TIP3   OH228669   5.853   5.903  10.399 -0.4701  0.0116  0.4544
 2393TIP3    H128670   5.767   5.907  10.440 -0.5334  0.7646  0.2551
 2393TIP3    H228671   5.873   5.993  10.375  0.5707 -0.0824  0.8973
 2394TIP3   OH228672   4.814   0.636  16.483  0.4491  0.1081 -0.1788
 2394TIP3    H128673   4.903   0.624  16.450  0.4462  0.8855 -0.4804
 2394TIP3    H228674   4.825   0.682  16.566  0.2784  1.0498 -0.6765
 2395TIP3   OH228675   0.654   5.235   5.237  0.0619 -0.2648 -0.0166
 2395TIP3    H128676   0.745   5.215   5.260  0.8525  0.0626 -2.5530
 2395TIP3    H228677   0.650   5.225   5.142 -1.6348  3.1315 -0.4900
 2396TIP3   OH228678   4.975   5.011  16.656  0.1496 -0.7036  0.3534
 2396TIP3    H128679   5.019   4.964  16.585  0.0101 -0.6559  0.2357
 2396TIP3    H228680   4.935   5.086  16.613  1.6221  0.3620  0.7732
 2397TIP3   OH228681   1.383   3.042   3.504 -0.0185 -0.3902 -0.0852
 2397TIP3    H128682   1.424   3.126   3.485 -0.7512  0.3061  1.2716
 2397TIP3    H228683   1.416   2.983   3.436  0.8974  0.8602 -0.7604
 2398TIP3   OH228684   2.544   4.531  11.839 -0.2211 -0.2406 -0.1017
 2398TIP3    H128685   2.500   4.446  11.832  1.1541 -1.0057  0.2138
 2398TIP3    H228686   2.571   4.552  11.750  1.2936 -1.1842  0.1012
 2399TIP3   OH228687   6.690   3.168   4.231 -0.5100 -0.6601 -0.1554
 2399TIP3    H128688   6.673   3.261   4.216  0.7205 -0.1151  1.4184
 2399TIP3    H228689   6.663   3.125   4.151  0.9161  1.3276 -1.8271
 2400TIP3   OH228690   6.008   2.109   0.104  0.3315  0.2121 -0.0977
 2400TIP3    H128691   6.051   2.178   0.053  1.5817 -1.1398 -0.9453
 2400TIP3    H228692   5.921   2.102   0.066  0.6356  0.4580 -0.8634
 2401TIP3   OH228693   4.511   3.910   2.788  1.0043  0.4842 -0.0277
 2401TIP3    H128694   4.528   3.943   2.700  0.1238  1.4039  0.1215
 2401TIP3    H228695   4.592   3.866   2.814  0.8125 -1.0050 -1.8102
 2402TIP3   OH228696   3.343   2.098  15.040 -0.1678  0.1369 -0.2634
 2402TIP3    H128697   3.413   2.045  15.002  0.1046  0.5821 -0.3977
 2402TIP3    H228698   3.369   2.111  15.131 -0.6436 -0.6355 -0.0135
 2403TIP3   OH228699   0.672   4.557  12.773  0.1698 -0.2943 -0.4695
 2403TIP3    H128700   0.738   4.491  12.754  2.0431  1.4786 -0.5554
 2403TIP3    H228701   0.722   4.637  12.790 -1.8587  0.6381  1.7800
 2404TIP3   OH228702   0.398   3.316  12.077  0.3659  0.2105  0.2372
 2404TIP3    H128703   0.406   3.244  12.139  0.5832  0.2374  0.2415
 2404TIP3    H228704   0.370   3.391  12.131 -0.9693 -0.1425  0.0489
 2405TIP3   OH228705   5.922   1.858   5.442 -0.0355  0.0542 -0.6119
 2405TIP3    H128706   5.879   1.944   5.439  0.1732  0.1250 -2.0332
 2405TIP3    H228707   5.972   1.860   5.524  0.2958  1.4381 -0.8160
 2406TIP3   OH228708   1.719   6.725   0.730 -0.0301 -0.8225 -0.5366
 2406TIP3    H128709   1.732   6.674   0.649 -0.2920 -0.3167 -0.9050
 2406TIP3    H228710   1.633   6.766   0.719 -0.3499 -1.2558  0.2834
 2407TIP3   OH228711   6.262   2.948   4.452 -0.7641 -0.1309 -0.0976
 2407TIP3    H128712   6.236   3.039   4.440  0.4620  0.2146 -0.2160
 2407TIP3    H228713   6.358   2.949   4.448 -0.6620 -1.2200  1.3248
 2408TIP3   OH228714   5.465   6.124   5.416  0.0600 -0.1370  0.0392
 2408TIP3    H128715   5.499   6.107   5.328 -1.2243  1.4108 -0.8083
 2408TIP3    H228716   5.409   6.201   5.406 -1.2721 -0.7653  1.9374
 2409TIP3   OH228717   0.845   5.490   2.062  0.5240 -0.2714  0.4933
 2409TIP3    H128718   0.908   5.528   2.001  0.6576 -1.1897  0.0451
 2409TIP3    H228719   0.761   5.529   2.037  0.6623 -0.2445  0.0569
 2410TIP3   OH228720   5.720   3.845   5.946 -0.8904  0.1616 -0.4859
 2410TIP3    H128721   5.677   3.878   6.024 -2.8005 -1.7180 -0.6582
 2410TIP3    H228722   5.649   3.817   5.889  0.4938  0.0822 -2.2852
 2411TIP3   OH228723   6.256   4.887   1.022  0.0184 -0.1120  0.1081
 2411TIP3    H128724   6.299   4.948   0.962  1.3194 -0.8745  0.2392
 2411TIP3    H228725   6.323   4.821   1.042 -1.1937 -1.3189  0.3466
 2412TIP3   OH228726   3.990   3.991  10.743 -0.0514 -0.3162  0.3350
 2412TIP3    H128727   3.916   3.950  10.788 -2.1849  0.4816 -2.1765
 2412TIP3    H228728   3.963   4.081  10.729  2.3011  0.5695  1.0481
 2413TIP3   OH228729   3.489   0.686  17.036 -0.3152  0.2738  0.1047
 2413TIP3    H128730   3.479   0.602  17.081  1.1286 -0.0551 -0.1316
 2413TIP3    H228731   3.524   0.745  17.103  0.2224  0.2373 -0.1355
 2414TIP3   OH228732   2.120   4.394  12.776  0.1346  0.6675  0.3248
 2414TIP3    H128733   2.096   4.302  12.781 -1.2079  0.7834 -2.1418
 2414TIP3    H228734   2.213   4.393  12.753  0.6721  0.0280  2.3340
 2415TIP3   OH228735   6.337   4.746   3.552  0.2140 -0.1572  0.2811
 2415TIP3    H128736   6.298   4.815   3.499  1.9486  1.2393  0.7091
 2415TIP3    H228737   6.304   4.664   3.515 -1.8585  0.8799 -0.2698
 2416TIP3   OH228738   4.036   6.538   4.539 -0.6346  0.4360  0.3818
 2416TIP3    H128739   4.043   6.513   4.447 -0.3555  0.5241  0.3801
 2416TIP3    H228740   4.056   6.632   4.540 -1.1948  0.5573  0.4556
 2417TIP3   OH228741   3.082   1.930  14.977  0.3748 -0.5214 -0.1536
 2417TIP3    H128742   3.125   1.983  15.043 -1.3452 -1.1563  1.5797
 2417TIP3    H228743   3.152   1.906  14.916  1.4364  2.6788 -0.3885
 2418TIP3   OH228744   4.388   6.321   6.076 -0.6986 -0.0835  0.3546
 2418TIP3    H128745   4.435   6.256   6.024 -1.0495 -2.0210  2.2860
 2418TIP3    H228746   4.433   6.404   6.058 -1.0482 -0.5391 -3.2023
 2419TIP3   OH228747   3.646   4.262   1.904 -0.4110  0.2551 -0.3243
 2419TIP3    H128748   3.691   4.185   1.871  2.0989  1.3716  0.2538
 2419TIP3    H228749   3.632   4.245   1.997  0.4971  0.6261 -0.1119
 2420TIP3   OH228750   0.135   4.743   1.383  0.1117  0.8081  0.0585
 2420TIP3    H128751   0.143   4.806   1.455 -2.0183 -0.4668  1.5273
 2420TIP3    H228752   0.048   4.759   1.347 -0.8802 -1.7595  1.0623
 2421TIP3   OH228753   6.315   4.193  13.114 -0.1274  0.2125 -0.3857
 2421TIP3    H128754   6.345   4.168  13.201 -2.3058 -0.9224  0.1046
 2421TIP3    H228755   6.286   4.284  13.124 -1.5095 -0.2981  0.4211
 2422TIP3   OH228756   6.149   1.413   1.120 -0.2331 -0.4522 -0.7057
 2422TIP3    H128757   6.122   1.332   1.075  0.4849 -0.0874 -1.8404
 2422TIP3    H228758   6.185   1.468   1.050 -0.1002  0.5861  0.1624
 2423TIP3   OH228759   6.270   3.031  13.189 -0.1930 -0.6791  0.7908
 2423TIP3    H128760   6.205   2.971  13.225  1.3154 -1.9734  1.5062
 2423TIP3    H228761   6.351   2.979  13.185  0.1764 -0.0919 -2.8538
 2424TIP3   OH228762   1.659   6.332  16.405 -0.1777  0.0244  0.3995
 2424TIP3    H128763   1.658   6.265  16.473  1.2509  0.1571  0.5846
 2424TIP3    H228764   1.589   6.393  16.431  0.1823 -0.0513  1.6253
 2425TIP3   OH228765   5.000   2.388  16.951 -0.2941  0.3483  0.1682
 2425TIP3    H128766   5.079   2.336  16.960  0.4254  1.5693  1.1770
 2425TIP3    H228767   5.021   2.454  16.885 -1.4462 -1.0120 -1.6594
 2426TIP3   OH228768   4.959   3.556  12.564  0.2579 -0.2853 -0.4652
 2426TIP3    H128769   4.908   3.493  12.614 -0.2738  0.8368  0.4462
 2426TIP3    H228770   5.050   3.527  12.574 -0.0338 -1.2655 -0.6077
 2427TIP3   OH228771   4.942   2.287   2.505 -0.1516  0.5543 -0.5518
 2427TIP3    H128772   5.018   2.254   2.456  0.0725  1.1798 -0.6349
 2427TIP3    H228773   4.956   2.381   2.510 -0.4613  0.5678  0.2261
 2428TIP3   OH228774   2.951   2.687   5.173  0.0826  0.3811  0.2807
 2428TIP3    H128775   2.938   2.628   5.248 -0.7827  0.4406  0.1897
 2428TIP3    H228776   2.949   2.630   5.097  1.1510  0.2965  0.2985
 2429TIP3   OH228777   3.918   0.662  11.280  0.6718  0.6284 -0.1653
 2429TIP3    H128778   3.828   0.630  11.294  0.8847 -0.7580 -1.6446
 2429TIP3    H228779   3.922   0.744  11.328 -0.9350 -0.0068  1.1666
 2430TIP3   OH228780   3.945   1.096  11.947  0.6772 -0.2189  0.1319
 2430TIP3    H128781   3.852   1.117  11.937  0.2277 -1.3088  1.5798
 2430TIP3    H228782   3.949   1.001  11.933  1.5872 -0.1577 -0.0270
 2431TIP3   OH228783   6.147   4.723   1.563  0.1566 -0.5344  0.1871
 2431TIP3    H128784   6.098   4.795   1.603  0.7775  0.1278 -0.2308
 2431TIP3    H228785   6.125   4.728   1.470 -0.7236 -1.6277  0.3137
 2432TIP3   OH228786   6.445   0.777  17.196 -0.2833 -0.3453 -0.0176
 2432TIP3    H128787   6.457   0.867  17.226  1.6107 -0.4629 -0.3125
 2432TIP3    H228788   6.499   0.724  17.255 -2.8484 -1.5984  1.4030
 2433TIP3   OH228789   6.777   5.979   4.770  0.8749 -0.5455  0.1205
 2433TIP3    H128790   6.717   6.028   4.825  0.2867  0.0982 -1.0589
 2433TIP3    H228791   6.770   6.020   4.683  1.8131 -1.4826 -0.4289
 2434TIP3   OH228792   3.786   3.267   5.713 -0.1068  0.2981 -0.1613
 2434TIP3    H128793   3.787   3.275   5.809  2.6399 -0.6136 -0.0308
 2434TIP3    H228794   3.740   3.346   5.683 -2.4928 -0.1621  1.8764
 2435TIP3   OH228795   2.974   0.423  15.800 -0.3889 -0.4135 -0.1392
 2435TIP3    H128796   3.031   0.479  15.852  0.2585 -1.8324  0.7380
 2435TIP3    H228797   3.006   0.334  15.816 -1.0811 -1.0155 -1.8554
 2436TIP3   OH228798   1.368   1.990  15.659  0.2940  0.1388 -0.6589
 2436TIP3    H128799   1.318   2.010  15.580  1.2147 -2.0707 -1.9139
 2436TIP3    H228800   1.410   1.906  15.639  3.7795  1.4144  0.6106
 2437TIP3   OH228801   0.345   1.037   0.281  0.0376 -0.0237 -0.0790
 2437TIP3    H128802   0.329   0.958   0.332 -0.8336 -1.0262 -1.8115
 2437TIP3    H228803   0.259   1.079   0.274  0.3419  0.6535  0.1348
 2438TIP3   OH228804   6.801   1.037  10.849  0.3737 -0.1469 -0.4224
 2438TIP3    H128805   6.856   1.069  10.777 -0.2831 -0.3529 -1.0356
 2438TIP3    H228806   6.850   0.963  10.885 -0.0089 -1.0592 -1.7079
 2439TIP3   OH228807   3.479   2.204  13.676 -0.5823  0.2190 -0.2715
 2439TIP3    H128808   3.533   2.211  13.597 -0.4942 -0.0853 -0.2403
 2439TIP3    H228809   3.423   2.128  13.660 -0.6351  0.2170 -0.0829
 2440TIP3   OH228810   5.734   0.565  15.570 -0.5118  0.0346 -0.0752
 2440TIP3    H128811   5.652   0.558  15.617 -1.2781 -1.2775 -1.5051
 2440TIP3    H228812   5.771   0.477  15.572  1.4855  0.8043  1.5074
 2441TIP3   OH228813   0.033   2.763  12.370  0.1424 -0.2058  0.2116
 2441TIP3    H128814  -0.026   2.705  12.322  1.7782 -2.0499  0.2835
 2441TIP3    H228815   0.074   2.706  12.437 -1.2040  1.9777  3.1256
 2442TIP3   OH228816   5.956   6.270   4.583  0.4253 -0.1991  0.8043
 2442TIP3    H128817   5.910   6.224   4.511  0.9456  0.5931 -0.0512
 2442TIP3    H228818   5.991   6.199   4.637 -1.2001 -0.8332  1.1075
 2443TIP3   OH228819   5.924   5.239   2.834 -0.1914 -0.2967 -0.3583
 2443TIP3    H128820   5.973   5.226   2.915  1.4293 -1.1725 -1.4023
 2443TIP3    H228821   5.877   5.157   2.820 -1.7017  0.4090  0.4492
 2444TIP3   OH228822   3.321   4.103   5.212 -0.4741 -0.4649  0.4161
 2444TIP3    H128823   3.273   4.180   5.242 -0.7161 -0.1218 -0.7758
 2444TIP3    H228824   3.352   4.127   5.124 -0.7104 -1.7798 -0.0534
 2445TIP3   OH228825   2.848   0.001   5.235  0.4674 -0.0642  0.4034
 2445TIP3    H128826   2.847   0.096   5.223  1.1754  0.0296  1.0081
 2445TIP3    H228827   2.937  -0.019   5.264  0.5091 -0.9929 -0.2865
 2446TIP3   OH228828   0.628   3.037  13.378 -0.3738  0.5585  0.3707
 2446TIP3    H128829   0.593   2.969  13.435  0.8283 -1.0758 -0.7314
 2446TIP3    H228830   0.714   3.004  13.352 -0.7166  1.3898 -2.0825
 2447TIP3   OH228831   5.869   2.343  16.877 -0.5000  0.0029  0.3493
 2447TIP3    H128832   5.844   2.347  16.970  0.9563 -0.5207  0.7951
 2447TIP3    H228833   5.840   2.257  16.848 -0.1715 -0.1816  0.5657
 2448TIP3   OH228834   6.134   1.188   4.475  0.2121  0.3158  0.6513
 2448TIP3    H128835   6.095   1.212   4.559 -0.8220 -0.1754  0.3325
 2448TIP3    H228836   6.187   1.111   4.494  0.9658  0.9297  1.0731
 2449TIP3   OH228837   0.475   0.918   3.040 -0.8843 -0.0365 -0.4636
 2449TIP3    H128838   0.542   0.874   3.093  1.3396  2.1646 -1.2769
 2449TIP3    H228839   0.393   0.875   3.065  0.7315 -2.5903  0.8909
 2450TIP3   OH228840   1.289   1.084   2.410 -0.3431 -0.3693 -0.1319
 2450TIP3    H128841   1.327   1.091   2.498  1.7805 -0.6410 -0.9770
 2450TIP3    H228842   1.265   0.992   2.401 -1.4943 -0.1559  0.4805
 2451TIP3   OH228843   6.679   3.778  10.879 -0.0057  0.2951 -0.5994
 2451TIP3    H128844   6.586   3.756  10.886  0.2635 -0.6045  0.4388
 2451TIP3    H228845   6.680   3.872  10.860 -1.1433 -0.0633 -2.6439
 2452TIP3   OH228846   6.178   2.204   3.812 -0.3391 -0.4354 -0.1063
 2452TIP3    H128847   6.161   2.291   3.777 -0.0528 -0.3567 -0.0521
 2452TIP3    H228848   6.101   2.183   3.865  0.4211  0.6079  1.5008
 2453TIP3   OH228849   3.530   3.287   3.318  0.0294 -0.1209  0.4081
 2453TIP3    H128850   3.604   3.283   3.257  0.7006 -0.8035  1.2296
 2453TIP3    H228851   3.552   3.222   3.386 -1.1982 -0.1366  0.8096
 2454TIP3   OH228852   2.693   2.087  15.203  0.1851 -0.0101 -0.1520
 2454TIP3    H128853   2.787   2.074  15.192  0.2811  1.2658 -1.0312
 2454TIP3    H228854   2.678   2.179  15.181 -1.0420  0.2515  1.5537
 2455TIP3   OH228855   5.291   0.293   6.059  0.2753  0.2256 -0.4635
 2455TIP3    H128856   5.317   0.385   6.050  1.1182  0.2082  1.3494
 2455TIP3    H228857   5.221   0.294   6.124 -1.7932 -0.1517 -2.5780
 2456TIP3   OH228858   1.933   4.689  13.316  0.2015 -0.0554  0.6213
 2456TIP3    H128859   2.016   4.670  13.274 -0.0064 -1.4642  0.7979
 2456TIP3    H228860   1.936   4.642  13.399 -1.1620 -0.9654  0.1857
 2457TIP3   OH228861   1.370   0.243  17.150 -0.0220 -0.6950  0.2757
 2457TIP3    H128862   1.455   0.256  17.192 -0.0709 -0.0897  0.2009
 2457TIP3    H228863   1.378   0.159  17.104  0.9388 -0.0947 -0.6941
 2458TIP3   OH228864   0.758   5.518   0.006 -0.1543 -0.3671 -0.1109
 2458TIP3    H128865   0.822   5.578   0.045  1.2594 -1.9891  0.2239
 2458TIP3    H228866   0.767   5.438   0.058 -3.1149 -0.4158  0.4815
 2459TIP3   OH228867   3.437   0.735  11.759  0.2660  0.2088  0.0205
 2459TIP3    H128868   3.362   0.736  11.700 -0.7293  0.3518  1.2575
 2459TIP3    H228869   3.510   0.767  11.705 -0.3244 -0.8275 -1.4679
 2460TIP3   OH228870   5.347   1.136   1.236  0.1422 -0.2491 -0.3930
 2460TIP3    H128871   5.364   1.227   1.213 -1.6523 -0.3222 -2.3934
 2460TIP3    H228872   5.433   1.095   1.241  0.8951  1.0588 -1.8128
 2461TIP3   OH228873   5.214   4.528  13.085  0.0754  0.1175  0.0416
 2461TIP3    H128874   5.194   4.527  12.991 -1.2778 -2.0866  0.2976
 2461TIP3    H228875   5.252   4.615  13.099 -1.8214  1.4364 -2.1091
 2462TIP3   OH228876   3.424   1.236   4.210  0.4105 -0.2804  1.0929
 2462TIP3    H128877   3.462   1.282   4.135  0.5425 -0.4969  1.0263
 2462TIP3    H228878   3.405   1.148   4.177 -2.8115  0.6056  0.2818
 2463TIP3   OH228879   1.474   1.973  16.678 -0.4330  0.1779 -0.5532
 2463TIP3    H128880   1.389   1.938  16.652 -0.3859 -0.3436 -0.0346
 2463TIP3    H228881   1.460   2.067  16.685 -0.5831  0.2798 -1.9069
 2464TIP3   OH228882   4.373   1.522   0.093  0.1290 -0.4845  0.3433
 2464TIP3    H128883   4.307   1.579   0.052 -0.0933  0.4141  1.9043
 2464TIP3    H228884   4.323   1.448   0.126  0.0510 -0.3066  0.6221
 2465TIP3   OH228885   0.367   5.030   3.179 -0.3612 -0.0578  0.1909
 2465TIP3    H128886   0.378   5.094   3.109  0.4779  0.7844  1.0650
 2465TIP3    H228887   0.388   4.946   3.138  0.8052  0.5043 -0.4124
 2466TIP3   OH228888   2.401   2.219  15.333 -0.0966 -0.8506 -0.0556
 2466TIP3    H128889   2.401   2.159  15.407  0.8382  0.1991  0.8126
 2466TIP3    H228890   2.310   2.219  15.303 -0.2029 -2.3573  0.1779
 2467TIP3   OH228891   3.963   4.330  11.093  0.7698  0.5996  0.4414
 2467TIP3    H128892   3.880   4.364  11.059  0.2011  0.2183  1.3933
 2467TIP3    H228893   4.015   4.407  11.115  0.6303  0.8402 -0.0898
 2468TIP3   OH228894   1.172   0.054   1.925  0.8317 -0.4404 -0.7309
 2468TIP3    H128895   1.184   0.136   1.973  1.4710 -1.1037  0.2848
 2468TIP3    H228896   1.077   0.045   1.917  0.7568  0.4202 -0.9011
 2469TIP3   OH228897   3.191   6.357  15.998  0.8124  0.2480 -0.1557
 2469TIP3    H128898   3.254   6.291  16.027 -1.0335 -0.6995  2.0129
 2469TIP3    H228899   3.185   6.418  16.072 -0.7527  0.3213 -0.3095
 2470TIP3   OH228900   1.243   0.398   6.155  0.3498 -0.0713 -0.4289
 2470TIP3    H128901   1.252   0.484   6.196 -1.4058  0.4505 -1.0365
 2470TIP3    H228902   1.298   0.340   6.207 -0.8204  0.8149  1.9215
 2471TIP3   OH228903   4.835   5.722   0.717  0.3023  0.7522  0.5982
 2471TIP3    H128904   4.873   5.779   0.650  0.3079  0.5725  0.4498
 2471TIP3    H228905   4.905   5.660   0.739 -0.2269 -0.2381 -0.4169
 2472TIP3   OH228906   4.367   1.492   1.209 -0.0749 -0.1469  0.1995
 2472TIP3    H128907   4.367   1.426   1.140  0.5950 -1.1526  1.1426
 2472TIP3    H228908   4.353   1.443   1.290 -0.2247  0.9420  0.8608
 2473TIP3   OH228909   4.239   2.585  16.416  0.3666 -0.7141  0.2279
 2473TIP3    H128910   4.179   2.596  16.489  0.4724 -0.5691  0.2943
 2473TIP3    H228911   4.323   2.618  16.449  0.9289 -2.5419  0.7479
 2474TIP3   OH228912   0.663   5.559  13.265 -0.0674 -0.2688  0.5258
 2474TIP3    H128913   0.743   5.506  13.263 -0.6853 -1.2267  0.6069
 2474TIP3    H228914   0.616   5.535  13.185 -1.2865 -1.3442  1.5300
 2475TIP3   OH228915   0.222   5.727  12.959 -0.1941  0.3042  0.0941
 2475TIP3    H128916   0.131   5.709  12.933 -0.2838 -0.8076  1.0779
 2475TIP3    H228917   0.214   5.800  13.022 -0.4502 -0.0088  0.4326
 2476TIP3   OH228918   6.317   4.659   2.614 -0.3395 -0.2502 -0.4217
 2476TIP3    H128919   6.326   4.627   2.524 -1.1245 -2.3769  0.2029
 2476TIP3    H228920   6.274   4.588   2.661  1.1446  0.2863  1.9377
 2477TIP3   OH228921   3.132   0.141  14.998 -0.3606  0.3696 -0.1098
 2477TIP3    H128922   3.085   0.181  15.071  2.3814  1.6304  1.0772
 2477TIP3    H228923   3.181   0.213  14.958 -0.2090 -0.6752 -1.9585
 2478TIP3   OH228924   3.432   5.681   6.328  0.3121  0.1134  0.1030
 2478TIP3    H128925   3.454   5.717   6.242 -1.5596 -2.0297 -1.4308
 2478TIP3    H228926   3.507   5.702   6.383  1.6324  1.5347 -2.0692
 2479TIP3   OH228927   4.310   6.805   0.902  0.5968 -0.4035 -0.9353
 2479TIP3    H128928   4.283   6.863   0.831  0.2102  1.0618  0.3570
 2479TIP3    H228929   4.350   6.863   0.967 -1.0569 -1.3252  1.0244
 2480TIP3   OH228930   6.333   1.521  14.221  0.0612 -0.0484  0.1559
 2480TIP3    H128931   6.346   1.471  14.302  0.6018 -1.0121 -0.4992
 2480TIP3    H228932   6.357   1.460  14.151 -1.8547  0.2220 -0.8312
 2481TIP3   OH228933   0.482   6.261   0.688  0.2761  0.5874  0.3308
 2481TIP3    H128934   0.500   6.211   0.768 -1.2757  0.8649  0.8861
 2481TIP3    H228935   0.505   6.202   0.617 -2.1813 -1.2516  0.9419
 2482TIP3   OH228936   3.560   3.951  15.127  0.1458  0.7871  0.0764
 2482TIP3    H128937   3.542   3.903  15.046 -0.6731  1.0356  0.1013
 2482TIP3    H228938   3.654   3.965  15.126 -0.0272  2.1444 -1.6260
 2483TIP3   OH228939   1.341   1.900   5.625  0.1837 -0.2399 -0.8058
 2483TIP3    H128940   1.369   1.916   5.535  0.3768 -0.6366 -0.8172
 2483TIP3    H228941   1.316   1.986   5.657  0.4329 -0.0404 -1.1323
 2484TIP3   OH228942   1.882   0.560  13.912 -0.6350 -0.2255 -0.2544
 2484TIP3    H128943   1.912   0.490  13.970  0.5640  0.5499  0.1004
 2484TIP3    H228944   1.903   0.529  13.824 -0.4932 -0.4884 -0.1307
 2485TIP3   OH228945   5.720   0.654  10.907 -0.1577  0.4078  0.4311
 2485TIP3    H128946   5.658   0.686  10.841 -1.4984 -2.0074  0.3901
 2485TIP3    H228947   5.664   0.623  10.979  1.0255 -0.9409  0.8168
 2486TIP3   OH228948   1.448   2.212   4.248  0.3206 -0.5534  0.6598
 2486TIP3    H128949   1.468   2.305   4.254  1.7327 -0.7293 -0.6041
 2486TIP3    H228950   1.401   2.203   4.165  1.9612 -1.1689 -0.2780
 2487TIP3   OH228951   2.060   3.057  13.216  0.0598 -0.2154  0.5596
 2487TIP3    H128952   2.110   3.093  13.144 -3.0256  1.7208 -0.8299
 2487TIP3    H228953   2.077   3.116  13.290 -0.9362  1.1215 -0.2308
 2488TIP3   OH228954   1.524   1.491  16.856  0.0219 -0.0757  0.3744
 2488TIP3    H128955   1.438   1.459  16.829 -0.2025  0.2979  0.6374
 2488TIP3    H228956   1.511   1.519  16.947  0.4786 -0.2374  0.4930
 2489TIP3   OH228957   6.330   1.642  13.113  0.4999  0.1711  0.4186
 2489TIP3    H128958   6.294   1.575  13.055  0.5858 -0.9319  1.6070
 2489TIP3    H228959   6.359   1.711  13.053  0.0548 -0.6652 -0.8128
 2490TIP3   OH228960   6.276   4.378  14.687 -0.1288 -0.0022 -0.0122
 2490TIP3    H128961   6.288   4.337  14.772 -0.8153  1.1588  0.6653
 2490TIP3    H228962   6.331   4.457  14.690 -1.3029  0.8470 -0.0540
 2491TIP3   OH228963   1.878   3.735  15.767  0.7318 -0.1449  0.3687
 2491TIP3    H128964   1.824   3.808  15.738  1.6951 -0.3661 -2.1848
 2491TIP3    H228965   1.818   3.660  15.766  0.7992 -0.2191 -1.5555
 2492TIP3   OH228966   2.346   1.424  14.962 -0.0347 -0.1724  0.1767
 2492TIP3    H128967   2.392   1.502  14.931  0.0235 -0.0776  0.4972
 2492TIP3    H228968   2.289   1.400  14.889 -0.4227  0.4612  0.2596
 2493TIP3   OH228969   5.445   6.714   5.511  0.0775  0.1402 -0.1632
 2493TIP3    H128970   5.426   6.807   5.521  0.1863  0.2968 -1.2656
 2493TIP3    H228971   5.418   6.693   5.422 -0.6998 -1.0820  0.3366
 2494TIP3   OH228972   1.543   2.978  16.295  0.1531 -0.2176  0.4258
 2494TIP3    H128973   1.507   3.062  16.269  2.5957  0.9758  0.5915
 2494TIP3    H228974   1.613   2.961  16.232  0.1535 -1.7910  0.8068
 2495TIP3   OH228975   2.630   3.951   4.007 -0.4382  0.0387  0.2962
 2495TIP3    H128976   2.702   3.954   4.071  0.1673  2.5921 -0.3873
 2495TIP3    H228977   2.596   3.862   4.013  0.6163 -0.2801  3.0403
 2496TIP3   OH228978   2.136   3.086   4.321  0.1382  0.1635  0.2528
 2496TIP3    H128979   2.145   3.165   4.374  0.4554 -0.6717  1.4789
 2496TIP3    H228980   2.054   3.097   4.274 -1.3286 -0.0267  2.6037
 2497TIP3   OH228981   1.464   6.463  15.118 -0.1526 -0.2987  0.4352
 2497TIP3    H128982   1.535   6.400  15.105 -0.7633 -1.4141  2.1051
 2497TIP3    H228983   1.490   6.512  15.196  0.0902  1.2499 -0.5809
 2498TIP3   OH228984   1.098   5.385   5.928  0.0413 -0.7174  0.3714
 2498TIP3    H128985   1.081   5.460   5.985 -1.7057 -0.7695 -0.0254
 2498TIP3    H228986   1.148   5.325   5.982  0.4116  0.2143  1.0928
 2499TIP3   OH228987   0.103   5.732  11.658  0.1203 -0.0204 -0.2491
 2499TIP3    H128988   0.041   5.737  11.731 -0.2819 -1.0907 -0.4955
 2499TIP3    H228989   0.187   5.757  11.696 -0.2537  0.3597  0.3518
 2500TIP3   OH228990   5.584   2.593  13.250 -0.6974  1.0219 -0.0801
 2500TIP3    H128991   5.641   2.530  13.206  0.3906  0.2308  2.2725
 2500TIP3    H228992   5.498   2.550  13.252 -0.1322 -0.1541  0.8704
 2501TIP3   OH228993   2.620   4.357   3.984  0.1006 -0.1919  0.3205
 2501TIP3    H128994   2.544   4.301   3.996  0.0307 -0.3233 -0.6476
 2501TIP3    H228995   2.638   4.393   4.071 -1.9954  1.0267  0.3195
 2502TIP3   OH228996   5.621   2.381   4.180  0.3416  0.5835 -0.3204
 2502TIP3    H128997   5.678   2.358   4.253 -0.1355 -0.3977 -0.2375
 2502TIP3    H228998   5.679   2.383   4.104  0.4961 -0.4649 -0.2505
 2503TIP3   OH228999   2.774   3.382  16.348  0.2162  0.1732  0.4491
 2503TIP3    H129000   2.780   3.472  16.379  2.1303  0.1055  0.4062
 2503TIP3    H229001   2.806   3.329  16.421 -0.6936 -0.4838  0.3968
 2504TIP3   OH229002   4.421   3.248  11.725 -0.3654  0.7127  0.7171
 2504TIP3    H129003   4.393   3.257  11.816  0.2140 -0.3037  1.0108
 2504TIP3    H229004   4.422   3.153  11.710 -2.4242  0.8767 -0.9819
 2505TIP3   OH229005   2.386   1.919  13.032 -0.1265  0.1423  0.0023
 2505TIP3    H129006   2.392   2.015  13.031 -0.5946  0.1866  0.7369
 2505TIP3    H229007   2.472   1.889  13.060  0.0212  0.3504 -0.2288
 2506TIP3   OH229008   6.483   2.335   5.726  1.0138  0.4786 -0.2702
 2506TIP3    H129009   6.484   2.260   5.666 -1.5883 -0.6768  0.9832
 2506TIP3    H229010   6.518   2.300   5.808  1.3759  1.1237 -0.1430
 2507TIP3   OH229011   2.323   6.399  14.574  0.2037  0.0737 -0.4240
 2507TIP3    H129012   2.233   6.368  14.581  0.5527 -0.7985  0.4297
 2507TIP3    H229013   2.368   6.358  14.648  0.2769  4.2005  2.1535
 2508TIP3   OH229014   4.070   3.697  12.713 -0.5114  0.4186 -0.0986
 2508TIP3    H129015   4.089   3.791  12.718  0.3353  0.3167 -1.1918
 2508TIP3    H229016   4.127   3.658  12.780 -0.5726  0.6441  0.0858
 2509TIP3   OH229017   0.373   2.372   2.500  0.0024  0.0995  0.3152
 2509TIP3    H129018   0.379   2.379   2.595 -0.5579  0.9953  0.2947
 2509TIP3    H229019   0.290   2.415   2.478 -0.0491 -0.4188 -0.5463
 2510TIP3   OH229020   0.492   5.488  14.129  0.5658  0.2249  0.1995
 2510TIP3    H129021   0.520   5.440  14.051 -0.3074  0.2490 -0.1319
 2510TIP3    H229022   0.540   5.446  14.200 -0.7570 -1.7145  0.0277
 2511TIP3   OH229023   3.301   0.484  10.727 -0.3064  0.4153 -0.1884
 2511TIP3    H129024   3.384   0.513  10.689 -0.4143  2.3891  0.9258
 2511TIP3    H229025   3.311   0.500  10.821 -0.7962 -2.3835  0.4085
 2512TIP3   OH229026   6.183   3.958  11.987  0.2047 -0.4202 -0.1383
 2512TIP3    H129027   6.124   4.024  12.025  0.2219 -0.4358 -0.0842
 2512TIP3    H229028   6.125   3.901  11.936  0.2737  0.0246 -0.7284
 2513TIP3   OH229029   3.010   6.462  10.833  0.5288  0.3623  0.4113
 2513TIP3    H129030   2.958   6.429  10.760  1.3985  0.0292 -0.0707
 2513TIP3    H229031   3.085   6.402  10.839  2.1879  2.2094 -0.5008
 2514TIP3   OH229032   0.688   0.879  12.179  0.4124 -0.3627 -0.0417
 2514TIP3    H129033   0.739   0.848  12.105 -0.2648 -1.0761 -0.2229
 2514TIP3    H229034   0.692   0.975  12.173  1.6869 -0.3943 -0.0584
 2515TIP3   OH229035   1.166   3.175  16.654 -0.1119 -0.6569  0.1276
 2515TIP3    H129036   1.102   3.127  16.602  0.0552  0.8856 -1.6240
 2515TIP3    H229037   1.119   3.253  16.683  0.4499 -0.4147  0.3963
 2516TIP3   OH229038   4.290   2.951  16.168  0.3386 -0.6127  0.7537
 2516TIP3    H129039   4.196   2.957  16.187  0.0610 -0.2311 -0.6377
 2516TIP3    H229040   4.312   3.036  16.128  0.1832 -2.2677 -3.3251
 2517TIP3   OH229041   0.842   6.435  15.150 -0.4033 -0.0203 -0.1722
 2517TIP3    H129042   0.924   6.481  15.168 -0.2909  0.1718 -1.1470
 2517TIP3    H229043   0.823   6.454  15.059 -1.0290 -0.8657 -0.2301
 2518TIP3   OH229044   1.053   4.001   2.810  1.2738  0.2739  0.4342
 2518TIP3    H129045   1.001   4.004   2.730  1.1641 -2.2891  0.3106
 2518TIP3    H229046   0.997   4.041   2.877  0.5368  0.6297 -0.3803
 2519TIP3   OH229047   4.114   4.064  13.093  0.5242 -0.2284 -0.2803
 2519TIP3    H129048   4.089   3.995  13.154 -1.0066  0.8899  0.4417
 2519TIP3    H229049   4.107   4.145  13.144  0.8378  0.5892 -1.4780
 2520TIP3   OH229050   3.036   5.741  15.042 -0.0366 -0.1151 -0.1193
 2520TIP3    H129051   2.993   5.737  14.956 -0.5486 -0.0809  0.1336
 2520TIP3    H229052   3.128   5.724  15.023 -0.3475 -1.4653 -0.5107
 2521TIP3   OH229053   0.824   6.087  13.857  0.4266 -0.0696 -0.0490
 2521TIP3    H129054   0.878   6.162  13.835  0.7293 -0.4246 -0.5316
 2521TIP3    H229055   0.771   6.116  13.931  0.8487  0.4751  0.0417
 2522TIP3   OH229056   1.180   5.463  13.377  0.1383 -0.9076  0.3068
 2522TIP3    H129057   1.151   5.552  13.398  0.1044 -1.0418  0.8475
 2522TIP3    H229058   1.275   5.465  13.392  0.0856 -1.0564  0.6807
 2523TIP3   OH229059   1.281   1.504  11.312  0.0508  0.5749 -0.4304
 2523TIP3    H129060   1.314   1.426  11.357 -1.1413  0.6032  0.5499
 2523TIP3    H229061   1.237   1.470  11.235 -0.0927  0.3097 -0.2341
 2524TIP3   OH229062   2.122   1.172   1.122 -0.2953 -0.2689  0.1485
 2524TIP3    H129063   2.084   1.236   1.061  0.9483 -0.6923 -1.1383
 2524TIP3    H229064   2.160   1.105   1.065  0.9931 -0.6484  1.3976
 2525TIP3   OH229065   5.769   2.054  12.091  0.2146 -0.1252 -0.0993
 2525TIP3    H129066   5.842   2.108  12.061  0.6429 -0.4246  0.3837
 2525TIP3    H229067   5.760   2.075  12.183 -0.3976 -0.0012 -0.1838
 2526TIP3   OH229068   5.270   2.582  16.211  0.6993  0.0671 -0.0116
 2526TIP3    H129069   5.359   2.615  16.197  0.6545  0.0420 -0.3657
 2526TIP3    H229070   5.213   2.656  16.188  0.6075 -0.1553 -0.5176
 2527TIP3   OH229071   5.666   6.247   0.487 -0.7117  0.1363 -0.3608
 2527TIP3    H129072   5.729   6.236   0.558 -0.8291  0.3324 -0.2248
 2527TIP3    H229073   5.686   6.334   0.450 -0.8230  0.1491 -0.3935
 2528TIP3   OH229074   5.473   0.829  13.092  0.1525 -0.4208  0.0065
 2528TIP3    H129075   5.407   0.765  13.064 -1.5349  0.0757  2.4873
 2528TIP3    H229076   5.505   0.795  13.175 -0.4804  1.6975  1.1915
 2529TIP3   OH229077   3.045   4.698  16.635 -1.1375  0.7110  0.4107
 2529TIP3    H129078   3.134   4.671  16.659 -1.0544  1.4362  0.9614
 2529TIP3    H229079   3.056   4.783  16.593 -1.2957 -0.4837 -2.2423
 2530TIP3   OH229080   6.614   4.262  12.878 -0.2972 -0.2249 -0.0514
 2530TIP3    H129081   6.566   4.188  12.841 -0.8178  0.7467 -1.3948
 2530TIP3    H229082   6.612   4.247  12.973 -0.1669 -2.0393 -0.3004
 2531TIP3   OH229083   1.381   5.069  12.687 -0.5863  0.0974  0.2338
 2531TIP3    H129084   1.365   4.987  12.733 -1.1808  0.1528  0.1297
 2531TIP3    H229085   1.381   5.044  12.594 -1.1181  0.2689  0.1856
 2532TIP3   OH229086   2.751   0.147   3.497 -0.6889 -0.0999  0.4114
 2532TIP3    H129087   2.684   0.138   3.429 -0.1607  0.3350 -0.1744
 2532TIP3    H229088   2.824   0.094   3.468 -1.4332 -2.0968  1.9568
 2533TIP3   OH229089   0.321   0.617  15.257 -0.3116 -1.0671  0.5055
 2533TIP3    H129090   0.257   0.617  15.329 -0.4202  0.6085  0.4641
 2533TIP3    H229091   0.268   0.600  15.179 -0.1128 -3.4662  0.8244
 2534TIP3   OH229092   1.854   3.224  14.519 -0.1449 -0.2259 -0.2564
 2534TIP3    H129093   1.926   3.270  14.476 -1.6189  0.7948 -1.7775
 2534TIP3    H229094   1.858   3.254  14.610  0.9439  0.3155 -0.4594
 2535TIP3   OH229095   0.466   4.517   3.792  0.1687 -0.1520 -0.2487
 2535TIP3    H129096   0.467   4.588   3.856 -1.3570  0.9984 -1.4336
 2535TIP3    H229097   0.532   4.456   3.824  0.8057  1.2890  1.3686
 2536TIP3   OH229098   2.675   4.579  11.351  0.2795  0.2439 -0.1482
 2536TIP3    H129099   2.631   4.664  11.361  0.8591  0.3605  1.6203
 2536TIP3    H229100   2.741   4.595  11.284  0.2289  1.1253 -0.0024
 2537TIP3   OH229101   4.288   0.628  14.197  0.4647  0.2640  0.0922
 2537TIP3    H129102   4.313   0.660  14.284  0.3167  2.1039 -0.5108
 2537TIP3    H229103   4.193   0.630  14.197  0.4157 -0.9730  0.2964
 2538TIP3   OH229104   4.115   6.832  15.189 -0.8228 -0.1660 -0.1092
 2538TIP3    H129105   4.089   6.924  15.184 -0.2918  0.0904  1.4542
 2538TIP3    H229106   4.055   6.793  15.253  0.3766 -0.3677  0.9282
 2539TIP3   OH229107   3.042   1.944   1.420  0.4651 -0.1309 -0.3248
 2539TIP3    H129108   3.126   1.987   1.408 -0.1942  1.1522 -0.5415
 2539TIP3    H229109   3.004   1.941   1.332  0.4524 -1.0770 -0.2942
 2540TIP3   OH229110   0.390   0.792   2.061 -1.1430  0.6236  0.1070
 2540TIP3    H129111   0.417   0.881   2.087  0.0990 -0.2414  2.0620
 2540TIP3    H229112   0.406   0.789   1.967  0.4942  1.9421  0.2812
 2541TIP3   OH229113   1.904   5.235   2.550  0.0870  0.1038  0.0823
 2541TIP3    H129114   1.826   5.185   2.526  1.4531 -2.1614  0.0788
 2541TIP3    H229115   1.943   5.259   2.466 -0.5962  1.3241  0.0829
 2542TIP3   OH229116   2.655   0.115   2.890 -0.0760 -0.4853 -0.0845
 2542TIP3    H129117   2.582   0.078   2.938 -1.7847  2.4200 -0.2375
 2542TIP3    H229118   2.719   0.139   2.957  0.7997 -2.8538  0.0576
 2543TIP3   OH229119   0.311   6.508  11.722 -0.2360 -0.0528  0.5362
 2543TIP3    H129120   0.317   6.558  11.803 -1.0638  0.1741  0.4628
 2543TIP3    H229121   0.359   6.560  11.658 -0.8858  0.5253  0.5164
 2544TIP3   OH229122   2.666   6.089   0.099 -0.2795 -0.5304  0.3132
 2544TIP3    H129123   2.685   6.075   0.192 -2.2220 -0.2027  0.8081
 2544TIP3    H229124   2.585   6.040   0.084  0.2185 -0.8877 -1.3169
 2545TIP3   OH229125   6.052   3.575   3.434 -0.7546 -0.4001  0.1807
 2545TIP3    H129126   6.050   3.653   3.490 -1.6746  0.6580 -1.2602
 2545TIP3    H229127   6.082   3.505   3.492  0.7031  1.1170  1.3820
 2546TIP3   OH229128   4.023   2.928  13.636  0.9688 -0.1720 -0.6960
 2546TIP3    H129129   4.063   2.940  13.722 -0.5661  0.0251  0.0179
 2546TIP3    H229130   3.951   2.991  13.633  0.5644 -0.6502 -1.8493
 2547TIP3   OH229131   4.188   3.259  16.435  0.0012  0.1170  0.4198
 2547TIP3    H129132   4.233   3.213  16.505 -2.6766 -2.7585  0.4538
 2547TIP3    H229133   4.113   3.301  16.477 -0.3413  0.3414 -0.3787
 2548TIP3   OH229134   3.513   2.148  16.511 -0.0262 -0.3671  0.5586
 2548TIP3    H129135   3.430   2.135  16.465  1.0718 -0.0620 -1.6367
 2548TIP3    H229136   3.499   2.228  16.562 -0.5595  0.6655 -1.1343
 2549TIP3   OH229137   0.895   6.461   6.650  0.5204  0.2297 -0.2162
 2549TIP3    H129138   0.842   6.452   6.730  1.0330 -0.2564  0.0763
 2549TIP3    H229139   0.842   6.419   6.582 -0.7335  2.2136 -0.5347
 2550TIP3   OH229140   0.005   4.652  12.177 -0.3248 -0.1800  0.1876
 2550TIP3    H129141   0.022   4.679  12.086 -0.8515  1.2504  0.4931
 2550TIP3    H229142   0.088   4.616  12.207  0.5490  1.4800 -0.1337
 2551TIP3   OH229143   6.799   4.392  17.182 -0.5230 -0.1322 -0.1808
 2551TIP3    H129144   6.870   4.387  17.118  0.1485 -0.3055  0.5636
 2551TIP3    H229145   6.725   4.427  17.133  0.3377  0.9465 -0.7551
 2552TIP3   OH229146   3.705   5.626   5.183  0.1005  0.4838  0.1545
 2552TIP3    H129147   3.642   5.593   5.120  0.6881 -0.9566  0.2784
 2552TIP3    H229148   3.676   5.591   5.267  0.2285  1.0680  0.4518
 2553TIP3   OH229149   0.286   5.899   5.657  0.4924  0.7629 -0.0713
 2553TIP3    H129150   0.367   5.868   5.698  0.4235  0.9429  0.2080
 2553TIP3    H229151   0.301   5.889   5.563  1.1437  1.5048 -0.0606
 2554TIP3   OH229152   1.505   6.725   5.329 -0.1708 -0.3545 -0.1901
 2554TIP3    H129153   1.579   6.760   5.281  0.0514 -0.2745  0.2019
 2554TIP3    H229154   1.457   6.802   5.360  2.0864 -0.1873  3.4456
 2555TIP3   OH229155   4.923   2.382  10.568  0.5225  0.9050  0.0108
 2555TIP3    H129156   4.917   2.311  10.504 -2.0645  0.2023  0.8767
 2555TIP3    H229157   4.885   2.344  10.648  1.5150  2.4694  1.2780
 2556TIP3   OH229158   5.351   0.449   2.179  0.3990 -0.2284  0.5099
 2556TIP3    H129159   5.326   0.357   2.167  0.4105 -0.1680  0.0120
 2556TIP3    H229160   5.362   0.458   2.274  2.2770 -1.2362  0.4377
 2557TIP3   OH229161   1.821   0.085   0.278  0.4241  0.3114 -0.0269
 2557TIP3    H129162   1.825   0.181   0.275 -0.6389  0.3516 -0.8085
 2557TIP3    H229163   1.749   0.063   0.220  0.7852 -0.9859 -0.0035
 2558TIP3   OH229164   0.992   3.231  11.275  0.1093 -0.6483  0.3829
 2558TIP3    H129165   1.037   3.287  11.213  1.1321 -1.8509 -0.0110
 2558TIP3    H229166   0.925   3.287  11.314 -1.5813 -0.1931 -2.8268
 2559TIP3   OH229167   1.149   2.826  10.753 -0.2636  0.3251  0.3274
 2559TIP3    H129168   1.075   2.873  10.790 -0.5926 -0.0296  0.1309
 2559TIP3    H229169   1.113   2.741  10.726 -0.2658  0.8991 -1.6670
 2560TIP3   OH229170   1.956   1.500  12.282  0.4848  0.5405 -0.1363
 2560TIP3    H129171   1.932   1.477  12.192  0.0888  1.6461 -0.3299
 2560TIP3    H229172   2.001   1.423  12.315 -1.3195 -0.7460 -0.5357
 2561TIP3   OH229173   3.421   0.238  10.715 -0.1142 -0.3146 -0.0231
 2561TIP3    H129174   3.369   0.318  10.708 -2.3925 -1.8265 -2.2937
 2561TIP3    H229175   3.512   0.267  10.702 -0.6749  2.0301  0.7866
 2562TIP3   OH229176   3.768   3.115   3.503 -0.5026 -0.3550 -0.5628
 2562TIP3    H129177   3.755   3.206   3.530  3.0359  0.0767  0.1872
 2562TIP3    H229178   3.817   3.075   3.575 -1.8444 -2.8622 -0.9382
 2563TIP3   OH229179   4.944   1.878   3.406  0.1385 -0.6773  0.0028
 2563TIP3    H129180   4.879   1.899   3.339  0.1902 -0.8699 -0.1091
 2563TIP3    H229181   4.926   1.788   3.430 -0.2286 -0.4374  0.6498
 2564TIP3   OH229182   2.364   3.080   4.826 -0.3098 -0.4161 -0.0900
 2564TIP3    H129183   2.433   3.015   4.843 -0.2843  0.0138  1.6055
 2564TIP3    H229184   2.309   3.039   4.759 -0.0848 -2.0499  0.6740
 2565TIP3   OH229185   4.488   0.393  17.046  0.3377  0.4093  0.2046
 2565TIP3    H129186   4.525   0.337  17.115 -0.8653 -0.9776 -0.2114
 2565TIP3    H229187   4.507   0.345  16.965 -1.5809  0.0516 -0.0806
 2566TIP3   OH229188   5.722   4.055   1.667  0.0369  0.2390  0.1054
 2566TIP3    H129189   5.701   4.017   1.582 -0.9952 -1.8950  1.2255
 2566TIP3    H229190   5.739   3.980   1.724 -1.6779  1.4176  2.3651
 2567TIP3   OH229191   3.221   2.342   3.227 -0.2221 -0.6803 -0.5420
 2567TIP3    H129192   3.237   2.296   3.309 -1.0987  0.4329  0.2905
 2567TIP3    H229193   3.286   2.413   3.226 -1.3962  0.4436  0.1305
 2568TIP3   OH229194   2.777   6.181  13.135 -0.1036 -0.2131 -0.1402
 2568TIP3    H129195   2.858   6.133  13.150  0.1149  0.3030  0.3451
 2568TIP3    H229196   2.794   6.233  13.057  0.5449  0.9953  0.7852
 2569TIP3   OH229197   4.439   3.628  14.255  0.3182 -0.0732 -0.1895
 2569TIP3    H129198   4.357   3.614  14.303  1.1522  0.2674  1.3759
 2569TIP3    H229199   4.418   3.603  14.165 -1.7317  0.7357  0.0040
 2570TIP3   OH229200   2.453   2.642   4.229 -0.3417  0.2783  0.8354
 2570TIP3    H129201   2.412   2.679   4.150 -2.0901 -1.0744  1.0441
 2570TIP3    H229202   2.386   2.654   4.297  1.2412  1.6747  2.2415
 2571TIP3   OH229203   0.881   5.421   1.329 -0.0912  0.1825 -0.1552
 2571TIP3    H129204   0.856   5.356   1.263 -1.9404 -2.8566  3.1697
 2571TIP3    H229205   0.798   5.445   1.370  1.1133  0.2996  2.3833
 2572TIP3   OH229206   6.419   6.254   3.787 -0.1918  0.2131 -0.5571
 2572TIP3    H129207   6.440   6.288   3.874  0.6351 -0.7041 -0.3788
 2572TIP3    H229208   6.461   6.315   3.727 -0.5699  0.7232 -0.3093
 2573TIP3   OH229209   5.405   4.364  11.084 -0.2055  0.5660  0.3054
 2573TIP3    H129210   5.449   4.424  11.023 -0.5245 -0.0850 -0.5928
 2573TIP3    H229211   5.413   4.278  11.043  2.3903 -0.5005  2.7317
 2574TIP3   OH229212   5.983   5.491   0.064 -0.7215  1.1234 -0.3001
 2574TIP3    H129213   5.949   5.413   0.106  0.0920 -0.0749 -1.7402
 2574TIP3    H229214   5.967   5.477  -0.030  1.8746  1.3567 -0.8731
 2575TIP3   OH229215   3.510   1.381   0.351 -0.4683  0.1262 -0.3769
 2575TIP3    H129216   3.453   1.332   0.410  0.6800  1.0834  1.6063
 2575TIP3    H229217   3.470   1.467   0.344 -0.0917  0.3129 -0.2328
 2576TIP3   OH229218   3.981   0.913  12.278  0.4604  0.1303 -0.1307
 2576TIP3    H129219   4.010   0.884  12.365 -1.1356 -1.1299  0.0169
 2576TIP3    H229220   4.031   0.859  12.217  1.9962  1.3961 -0.0680
 2577TIP3   OH229221   2.196   0.264   4.448 -0.0202 -0.0075  0.3916
 2577TIP3    H129222   2.131   0.200   4.421  0.4422 -1.0965  1.7121
 2577TIP3    H229223   2.231   0.300   4.367 -1.1048 -0.5884 -0.3517
 2578TIP3   OH229224   5.631   5.366   0.638 -0.4379  0.1688 -0.0861
 2578TIP3    H129225   5.582   5.317   0.705 -0.1947 -0.8103 -0.6097
 2578TIP3    H229226   5.563   5.408   0.586 -0.6945 -0.4301 -0.2432
 2579TIP3   OH229227   4.518   6.278   2.244  0.0035 -0.6445  0.0043
 2579TIP3    H129228   4.551   6.228   2.169 -0.5146 -0.9155 -0.0475
 2579TIP3    H229229   4.423   6.266   2.240 -0.1446  0.5265 -0.1366
 2580TIP3   OH229230   5.521   3.654  12.432 -0.3914  0.0936 -0.2936
 2580TIP3    H129231   5.479   3.691  12.510 -2.2880  0.3870 -1.3869
 2580TIP3    H229232   5.456   3.665  12.363  2.3730  2.8591 -2.7556
 2581TIP3   OH229233   1.942   5.687   0.662 -0.0244 -0.4662  0.5227
 2581TIP3    H129234   1.887   5.612   0.685 -1.2875  0.2275 -0.1664
 2581TIP3    H229235   1.940   5.743   0.740 -0.5570 -0.3015  0.3965
 2582TIP3   OH229236   5.301   2.072  13.743  0.5155  0.2362 -0.2243
 2582TIP3    H129237   5.309   2.137  13.673 -1.2250 -0.9255 -1.5852
 2582TIP3    H229238   5.293   2.123  13.823  0.6032  1.6607 -1.0939
 2583TIP3   OH229239   0.947   3.216  13.795  0.6724 -0.1628  0.2283
 2583TIP3    H129240   0.951   3.121  13.805  2.0586 -0.2699 -0.9451
 2583TIP3    H229241   0.999   3.250  13.868  1.7534 -0.4231 -0.3930
 2584TIP3   OH229242   3.035   5.691   3.386 -0.0973  0.1901  0.0383
 2584TIP3    H129243   3.028   5.758   3.454 -0.7822 -0.1630  0.3315
 2584TIP3    H229244   3.012   5.609   3.431 -1.4577  0.0707 -0.8110
 2585TIP3   OH229245   2.573   1.546   2.932 -0.2316  0.3908 -1.1101
 2585TIP3    H129246   2.569   1.514   3.023 -0.3851 -0.1415 -1.3006
 2585TIP3    H229247   2.662   1.580   2.922 -0.8008  2.3407 -0.1344
 2586TIP3   OH229248   4.700   0.234   2.524 -0.2600 -0.4576 -0.0099
 2586TIP3    H129249   4.782   0.232   2.573 -0.3749 -1.6587  0.1643
 2586TIP3    H229250   4.660   0.148   2.540 -2.4330  0.7443  1.4010
 2587TIP3   OH229251   0.019   3.935  11.716 -0.1461  0.6250 -0.0647
 2587TIP3    H129252   0.069   3.856  11.694 -0.3637  1.1049 -2.5086
 2587TIP3    H229253  -0.070   3.917  11.686 -0.8174  0.8776  1.6576
 2588TIP3   OH229254   6.841   4.130   0.098 -0.1000 -0.1881  0.7232
 2588TIP3    H129255   6.784   4.193   0.053 -0.3925 -1.1660 -0.3406
 2588TIP3    H229256   6.819   4.138   0.190 -1.7923 -0.3335  0.3687
 2589TIP3   OH229257   2.389   3.661  16.637  0.7951 -0.3549 -0.0382
 2589TIP3    H129258   2.349   3.606  16.704  0.7178  1.0774  1.1431
 2589TIP3    H229259   2.406   3.744  16.681  2.3936  0.0484 -1.3090
 2590TIP3   OH229260   1.618   0.013   3.686 -0.1744  0.1265  0.1682
 2590TIP3    H129261   1.702  -0.033   3.676 -0.9592 -1.2551 -0.3432
 2590TIP3    H229262   1.607   0.061   3.604  0.1791  0.4524  0.3048
 2591TIP3   OH229263   0.680   6.580   5.099  0.3958 -0.3596  0.0471
 2591TIP3    H129264   0.705   6.666   5.134 -3.6693  1.5521 -1.0747
 2591TIP3    H229265   0.722   6.576   5.013 -0.1001  0.9952 -0.2844
 2592TIP3   OH229266   3.385   0.309  11.795  0.1196  0.7042  0.0871
 2592TIP3    H129267   3.367   0.231  11.849 -1.4386  1.8965  1.3792
 2592TIP3    H229268   3.404   0.378  11.858  1.3746  1.4317 -1.0418
 2593TIP3   OH229269   2.348   5.708   2.240  0.2095  0.5012 -0.2113
 2593TIP3    H129270   2.314   5.793   2.212  0.7378  0.9364  0.4390
 2593TIP3    H229271   2.327   5.704   2.333  0.4316  0.0317 -0.1813
 2594TIP3   OH229272   1.614   6.150  13.251  0.3140  0.6653  0.4723
 2594TIP3    H129273   1.680   6.104  13.304  0.5972  0.4648 -0.0529
 2594TIP3    H229274   1.633   6.123  13.161  0.3050  1.6024  0.1874
 2595TIP3   OH229275   0.249   0.428  16.078 -0.2553  0.0811 -0.2503
 2595TIP3    H129276   0.234   0.334  16.095  1.6064 -0.1145  0.5109
 2595TIP3    H229277   0.344   0.438  16.082 -0.4547  2.1469  0.4212
 2596TIP3   OH229278   6.483   0.669   3.017  0.4475  0.0079 -0.3691
 2596TIP3    H129279   6.483   0.573   3.019  3.5407 -0.0649  1.4398
 2596TIP3    H229280   6.477   0.690   2.924 -1.9260 -1.8159 -0.7436
 2597TIP3   OH229281   1.812   2.228   3.936 -0.8044  0.0343 -0.3649
 2597TIP3    H129282   1.844   2.143   3.967 -1.9304 -0.2894 -0.0141
 2597TIP3    H229283   1.888   2.285   3.938  0.4131 -1.3830 -2.2501
 2598TIP3   OH229284   2.302   1.175  16.711 -1.0012  0.0876  0.1966
 2598TIP3    H129285   2.275   1.091  16.674 -0.1137 -0.5885  1.0215
 2598TIP3    H229286   2.231   1.200  16.770 -1.0938 -0.2870  0.2440
 2599TIP3   OH229287   0.129   2.841  16.393 -0.1305  0.3419  0.0836
 2599TIP3    H129288   0.095   2.773  16.450 -0.9914 -0.3005 -1.1425
 2599TIP3    H229289   0.219   2.813  16.373 -1.1815 -1.7430 -2.2411
 2600TIP3   OH229290   2.303   1.757   5.292 -0.0503  0.0436 -0.2379
 2600TIP3    H129291   2.274   1.731   5.379  1.0888  0.3640  0.2575
 2600TIP3    H229292   2.393   1.785   5.304  1.0367 -2.3762 -1.9765
 2601TIP3   OH229293   6.477   0.546  10.357  0.0862  0.4403  0.1083
 2601TIP3    H129294   6.460   0.631  10.316 -0.1411  0.3559  0.0229
 2601TIP3    H229295   6.435   0.551  10.443  0.4413  0.5669  0.2747
 2602TIP3   OH229296   5.572   2.010   0.711 -0.1901  0.6650  0.1143
 2602TIP3    H129297   5.613   2.032   0.627 -2.0020 -0.2893 -1.1009
 2602TIP3    H229298   5.568   1.914   0.710 -1.4806  0.6977  0.6396
 2603TIP3   OH229299   5.616   0.115   0.227 -0.0938 -0.0019  0.3194
 2603TIP3    H129300   5.553   0.123   0.299  0.2623 -0.6115  0.7092
 2603TIP3    H229301   5.581   0.172   0.158 -0.8642 -0.0401  0.6664
 2604TIP3   OH229302   4.726   5.124  11.706  0.1848  0.7132  0.1783
 2604TIP3    H129303   4.632   5.138  11.713 -0.0343 -0.4893 -0.0808
 2604TIP3    H229304   4.734   5.033  11.676  1.3794  1.3684 -1.6242
 2605TIP3   OH229305   4.560   1.823   5.499  0.0181  0.1600 -0.3468
 2605TIP3    H129306   4.517   1.865   5.574  1.5822 -0.4176  0.9287
 2605TIP3    H229307   4.594   1.896   5.447  2.1834  0.5992  1.5283
 2606TIP3   OH229308   4.812   5.779  13.352  0.2252  0.4113 -0.2432
 2606TIP3    H129309   4.870   5.855  13.342  0.2313  0.3431 -0.7626
 2606TIP3    H229310   4.846   5.715  13.290  0.3844 -0.1228  0.3971
 2607TIP3   OH229311   0.742   0.975  14.374  0.8796 -0.3542 -0.0862
 2607TIP3    H129312   0.835   0.998  14.380  1.0283 -1.2652  2.0206
 2607TIP3    H229313   0.698   1.036  14.433 -0.0968  0.8835 -1.9892
 2608TIP3   OH229314   6.591   5.629  14.817 -0.1891 -0.2004 -0.6976
 2608TIP3    H129315   6.552   5.575  14.886  0.5813  1.0553  0.7777
 2608TIP3    H229316   6.665   5.578  14.785 -0.2820 -0.6004 -0.2769
 2609TIP3   OH229317   1.302   0.851  12.535 -0.4371 -0.0859  0.3719
 2609TIP3    H129318   1.274   0.885  12.621 -0.6541  0.8070 -0.0365
 2609TIP3    H229319   1.224   0.809  12.500 -0.4402 -0.1686  0.4775
 2610TIP3   OH229320   5.514   5.510   2.654  0.7909 -0.0457 -0.3959
 2610TIP3    H129321   5.498   5.463   2.736 -0.0060  0.4303 -0.2770
 2610TIP3    H229322   5.608   5.530   2.656  0.8149 -0.2106  0.3091
 2611TIP3   OH229323   2.503   5.217   1.110 -0.2591 -0.6291 -0.1544
 2611TIP3    H129324   2.504   5.154   1.182 -1.3154  0.3097  0.7209
 2611TIP3    H229325   2.424   5.194   1.059  0.1217 -0.8759 -0.6410
 2612TIP3   OH229326   4.021   2.653  11.779  0.2937 -0.1608 -0.3934
 2612TIP3    H129327   3.969   2.629  11.702 -0.3413 -0.8207  0.2259
 2612TIP3    H229328   4.039   2.747  11.768 -2.4523  0.5003  0.1819
 2613TIP3   OH229329   1.893   3.709   2.321 -0.2913 -0.0374 -0.1424
 2613TIP3    H129330   1.891   3.803   2.302  0.0062 -0.2398 -1.2226
 2613TIP3    H229331   1.896   3.705   2.417  1.5694  1.1101 -0.0938
 2614TIP3   OH229332   1.431   4.568   6.128  0.1496  0.5413  0.2403
 2614TIP3    H129333   1.354   4.584   6.183  0.2276  0.2374  0.4436
 2614TIP3    H229334   1.413   4.482   6.088  0.2001  0.6543 -0.0254
 2615TIP3   OH229335   0.651   2.874   5.585  0.0057 -0.1289  0.1409
 2615TIP3    H129336   0.639   2.947   5.645 -2.1022  0.1227 -0.5207
 2615TIP3    H229337   0.601   2.802   5.624 -1.3830  0.0337 -1.2372
 2616TIP3   OH229338   0.872   3.366   1.851 -0.0957 -0.1813 -0.7474
 2616TIP3    H129339   0.889   3.429   1.781  0.9068  2.2673  1.5293
 2616TIP3    H229340   0.778   3.368   1.863 -0.1722  0.1086 -1.3461
 2617TIP3   OH229341   2.188   1.120  12.580  0.2700  0.0566  0.4060
 2617TIP3    H129342   2.185   1.058  12.653  2.9422 -0.8848 -0.1879
 2617TIP3    H229343   2.244   1.191  12.612  1.5640 -0.4252 -0.7140
 2618TIP3   OH229344   3.048   0.163  15.821  0.6278  0.0177 -0.6455
 2618TIP3    H129345   3.128   0.120  15.791  0.6945 -0.1420 -0.2341
 2618TIP3    H229346   2.984   0.144  15.753  0.5258 -1.1294 -0.2363
 2619TIP3   OH229347   3.083   4.738   4.444 -0.1753  0.1289 -0.3739
 2619TIP3    H129348   3.146   4.806   4.469 -0.1418  0.6657 -1.8309
 2619TIP3    H229349   3.010   4.749   4.506  0.1380  1.0404 -0.1535
 2620TIP3   OH229350   2.590   1.752   3.460 -0.8792 -0.1363 -0.3210
 2620TIP3    H129351   2.513   1.797   3.494 -0.8518  0.5031 -1.0626
 2620TIP3    H229352   2.663   1.811   3.479 -0.5527 -0.7930  0.4830
 2621TIP3   OH229353   5.591   4.983   2.747 -0.9599 -0.4274 -0.4001
 2621TIP3    H129354   5.653   5.005   2.816 -1.1726  5.1178 -1.4789
 2621TIP3    H229355   5.505   4.990   2.789 -1.0292  0.6816 -0.7105
 2622TIP3   OH229356   4.351   1.626   5.920  0.2098  0.1480  0.3425
 2622TIP3    H129357   4.340   1.718   5.947 -0.3417  0.2890 -0.3483
 2622TIP3    H229358   4.323   1.576   5.997 -0.1499  0.5549  0.4847
 2623TIP3   OH229359   0.701   0.937   2.032 -0.2789 -0.2379  0.4095
 2623TIP3    H129360   0.736   0.911   1.947 -1.1480  2.0576 -0.7447
 2623TIP3    H229361   0.708   1.032   2.033  1.9083 -0.2334  3.9368
 2624TIP3   OH229362   6.153   2.829  12.926  0.3370 -0.5421 -0.2949
 2624TIP3    H129363   6.072   2.846  12.975  0.7912  1.4175 -0.1397
 2624TIP3    H229364   6.184   2.744  12.959 -1.0115 -0.7550  0.5039
 2625TIP3   OH229365   2.397   0.874  12.728  0.5718  0.1152 -0.2111
 2625TIP3    H129366   2.304   0.859  12.708  0.6625 -0.5991 -0.1326
 2625TIP3    H229367   2.443   0.804  12.682  1.3168  1.8452 -2.2277
 2626TIP3   OH229368   1.820   2.793   3.267  0.0733  0.1393  0.6898
 2626TIP3    H129369   1.836   2.699   3.275 -1.7515 -0.1992  0.8193
 2626TIP3    H229370   1.858   2.830   3.347  2.1545 -0.2402 -0.0592
 2627TIP3   OH229371   4.382   2.294   3.324  0.2724 -0.9892 -0.0448
 2627TIP3    H129372   4.330   2.261   3.397 -0.8987 -0.1959 -0.4966
 2627TIP3    H229373   4.409   2.382   3.352  0.4810 -0.9889 -0.2474
 2628TIP3   OH229374   5.869   4.393   6.827 -0.4511 -0.1622  0.2135
 2628TIP3    H129375   5.847   4.470   6.881 -0.1811 -1.2688  1.9969
 2628TIP3    H229376   5.964   4.398   6.816 -0.5262  0.1552 -0.3449
 2629TIP3   OH229377   2.143   6.287  11.631  0.0097  0.9436  0.0951
 2629TIP3    H129378   2.193   6.313  11.554  0.3405 -0.5632 -0.2293
 2629TIP3    H229379   2.122   6.195  11.616 -1.3492  1.0731  1.0497
 2630TIP3   OH229380   0.302   6.576   1.736 -0.6875 -0.0000 -1.0477
 2630TIP3    H129381   0.211   6.591   1.762 -0.6108  0.1933 -0.8936
 2630TIP3    H229382   0.325   6.651   1.682  0.7404  2.2562  2.3714
 2631TIP3   OH229383   6.341   4.348  17.179  0.1426 -0.2406  0.4084
 2631TIP3    H129384   6.403   4.277  17.199  0.9877  0.3466 -0.0738
 2631TIP3    H229385   6.286   4.354  17.257  1.6182  0.1826  1.4778
 2632TIP3   OH229386   5.769   3.183   2.171  0.2826  0.3565  0.3639
 2632TIP3    H129387   5.831   3.238   2.124 -0.2703  1.6838  1.1220
 2632TIP3    H229388   5.690   3.237   2.179 -1.0115 -1.3032 -0.6205
 2633TIP3   OH229389   6.552   0.213   2.895 -0.4582  0.0614 -0.0844
 2633TIP3    H129390   6.493   0.168   2.834 -1.6347  0.7001  0.5499
 2633TIP3    H229391   6.507   0.207   2.980  0.4246  0.5119  0.4199
 2634TIP3   OH229392   4.145   6.513   5.943 -0.6612 -0.1191  0.1893
 2634TIP3    H129393   4.181   6.562   5.869 -0.7020  0.9741  0.8681
 2634TIP3    H229394   4.098   6.578   5.995 -0.8743 -0.9150  1.0315
 2635TIP3   OH229395   1.685   2.078  13.586  0.8090  0.2255  0.7124
 2635TIP3    H129396   1.733   1.995  13.586  0.1179 -0.1830  0.3912
 2635TIP3    H229397   1.603   2.058  13.630 -0.5457  0.0179 -1.7257
 2636TIP3   OH229398   3.676   4.484  11.751  0.4228 -0.2858 -0.3754
 2636TIP3    H129399   3.757   4.493  11.802 -0.2002  0.6098  0.4965
 2636TIP3    H229400   3.698   4.521  11.665  0.5568  1.2883  0.2954
 2637TIP3   OH229401   0.294   2.523  16.061 -0.2835  0.1150  0.2730
 2637TIP3    H129402   0.331   2.588  16.119  0.5416  0.4419 -0.5894
 2637TIP3    H229403   0.286   2.567  15.976 -0.3057 -0.7104 -0.1759
 2638TIP3   OH229404   1.135   0.863   6.077 -0.0130 -0.7931  0.1013
 2638TIP3    H129405   1.163   0.936   6.132 -0.2198  0.9905 -2.0117
 2638TIP3    H229406   1.094   0.801   6.138 -0.3297  1.1032  1.9154
 2639TIP3   OH229407   3.151   3.235  10.461  0.2075 -1.0058 -0.5647
 2639TIP3    H129408   3.244   3.246  10.476  0.1929 -1.1412 -0.3744
 2639TIP3    H229409   3.144   3.160  10.402  0.2883 -0.2406 -1.5842
 2640TIP3   OH229410   1.817   0.307  15.910  0.4870  0.1033  0.2868
 2640TIP3    H129411   1.780   0.358  15.982  0.5531  1.2226 -0.4546
 2640TIP3    H229412   1.830   0.370  15.839  0.7873 -0.9001 -0.5819
 2641TIP3   OH229413   5.934   5.134   0.058 -0.4523 -0.3111 -0.2867
 2641TIP3    H129414   5.856   5.188   0.050  0.6755  1.4700  0.0403
 2641TIP3    H229415   5.932   5.102   0.148 -0.7354 -0.1617 -0.2393
 2642TIP3   OH229416   3.715   4.893   4.031 -0.4309 -0.5568 -0.3851
 2642TIP3    H129417   3.755   4.916   3.946 -0.9272  0.5969 -0.3229
 2642TIP3    H229418   3.785   4.907   4.095 -0.6309  0.5379 -0.3859
 2643TIP3   OH229419   0.007   2.163  13.571  0.3117 -0.0932  0.7249
 2643TIP3    H129420  -0.040   2.221  13.511  0.2934 -0.5175  0.3203
 2643TIP3    H229421   0.071   2.118  13.516  0.4033 -0.3720  1.0529
 2644TIP3   OH229422   0.399   6.142  14.316 -0.3628  0.2911 -0.3996
 2644TIP3    H129423   0.325   6.085  14.299  1.5244 -2.3587 -0.3364
 2644TIP3    H229424   0.475   6.084  14.315  1.4849  2.4266  1.9483
 2645TIP3   OH229425   1.199   6.062   0.378  0.3453  0.1621  0.0855
 2645TIP3    H129426   1.166   6.125   0.442  1.3105 -1.5904  2.4514
 2645TIP3    H229427   1.289   6.044   0.406 -0.2182 -3.0479  0.2257
 2646TIP3   OH229428   4.849   5.230  14.613  0.2982 -0.2897  0.0753
 2646TIP3    H129429   4.769   5.179  14.624 -0.4376  0.2113 -2.5008
 2646TIP3    H229430   4.890   5.194  14.534  1.3798  1.0429 -0.0032
 2647TIP3   OH229431   3.232   1.714  13.855 -0.5936  0.0740  0.2037
 2647TIP3    H129432   3.242   1.733  13.762  1.2754  1.2094  0.5957
 2647TIP3    H229433   3.247   1.620  13.863  2.2270  0.3972 -0.3376
 2648TIP3   OH229434   3.886   2.589   2.431 -0.6910 -0.0699  0.2827
 2648TIP3    H129435   3.862   2.658   2.492 -0.6830  0.2189 -0.0369
 2648TIP3    H229436   3.953   2.628   2.375 -0.5490 -0.3962  0.2214
 2649TIP3   OH229437   5.920   5.071   6.245 -0.9713  0.7523 -0.2162
 2649TIP3    H129438   5.902   4.987   6.287 -1.7501 -0.0947 -2.1166
 2649TIP3    H229439   5.981   5.115   6.304  0.2975 -1.5793  0.3402
 2650TIP3   OH229440   0.270   0.848  10.984  0.1062 -0.0766  0.9893
 2650TIP3    H129441   0.341   0.826  10.923 -0.6094 -1.9138  0.7605
 2650TIP3    H229442   0.289   0.938  11.010  2.1115 -0.2536  0.3709
 2651TIP3   OH229443   1.942   5.484   3.001  0.0618 -0.2805  0.0790
 2651TIP3    H129444   2.009   5.454   2.940  0.3220  0.7449 -0.1509
 2651TIP3    H229445   1.890   5.406   3.019  0.1112 -0.6536 -1.2819
 2652TIP3   OH229446   4.577   3.666   0.610  0.2133  0.5259  0.1720
 2652TIP3    H129447   4.645   3.680   0.676 -0.9954  1.0599  1.3619
 2652TIP3    H229448   4.523   3.596   0.646  0.5592 -0.4568 -1.1425
 2653TIP3   OH229449   2.655   4.739   4.039  0.1626 -0.4236  0.0423
 2653TIP3    H129450   2.584   4.723   3.977 -0.5912 -0.2237  0.8232
 2653TIP3    H229451   2.724   4.677   4.015  0.2939  0.3126 -1.5900
 2654TIP3   OH229452   6.080   2.486  15.163  0.4497  0.3241  0.5649
 2654TIP3    H129453   6.103   2.557  15.222 -0.5794  1.3503 -0.2216
 2654TIP3    H229454   6.084   2.525  15.076 -0.1295 -0.5691  0.1225
 2655TIP3   OH229455   6.591   1.425   4.486 -0.2193  0.3121  0.2214
 2655TIP3    H129456   6.514   1.418   4.542  0.7920  0.9842  1.7736
 2655TIP3    H229457   6.605   1.519   4.477 -0.0854  0.2048 -0.8071
 2656TIP3   OH229458   4.114   5.457  16.697  0.4365 -1.0639 -0.3332
 2656TIP3    H129459   4.198   5.490  16.666 -0.4051  1.8213  0.1423
 2656TIP3    H229460   4.125   5.449  16.791  0.2038 -0.6651 -0.2683
 2657TIP3   OH229461   4.770   3.071   4.152  0.3056  0.3564 -0.2659
 2657TIP3    H129462   4.791   3.035   4.066 -0.4366 -2.2460  0.5525
 2657TIP3    H229463   4.834   3.031   4.211 -0.9875 -0.2091  0.8009
 2658TIP3   OH229464   0.013   2.259   5.649 -0.2510 -0.0695  0.3926
 2658TIP3    H129465   0.091   2.299   5.611  0.1219 -1.5431 -0.4891
 2658TIP3    H229466  -0.007   2.312   5.726 -0.7129  2.7360 -1.5042
 2659TIP3   OH229467   4.112   0.551   3.300 -0.4429 -0.0825  0.9892
 2659TIP3    H129468   4.069   0.504   3.229 -1.1890 -0.9940  1.9954
 2659TIP3    H229469   4.134   0.637   3.263 -2.9411  0.3560  0.3261
 2660TIP3   OH229470   1.839   5.102   4.851 -0.0441  0.2598  0.4682
 2660TIP3    H129471   1.864   5.021   4.894  0.0602 -0.5861 -1.1150
 2660TIP3    H229472   1.781   5.075   4.780  1.2550  1.3752 -1.1001
 2661TIP3   OH229473   6.453   6.758   3.926 -0.4998  0.2340  0.3471
 2661TIP3    H129474   6.502   6.677   3.914  0.3306  0.8639 -0.7435
 2661TIP3    H229475   6.405   6.745   4.007 -0.8341 -1.5598 -0.1011
 2662TIP3   OH229476   5.502   5.580  15.592 -0.4642  0.3767  0.4848
 2662TIP3    H129477   5.468   5.643  15.655 -1.0345  0.7953 -0.2241
 2662TIP3    H229478   5.545   5.513  15.645 -2.3505 -0.1604  1.4476
 2663TIP3   OH229479   3.709   0.894   1.879  0.0829  0.3557 -0.4327
 2663TIP3    H129480   3.663   0.859   1.802  1.5838 -0.0469 -1.1772
 2663TIP3    H229481   3.649   0.960   1.914 -2.1850 -1.8359  0.1266
 2664TIP3   OH229482   5.834   5.957  11.667 -0.0263  0.2524 -0.6654
 2664TIP3    H129483   5.812   5.907  11.745 -0.5978  2.8254  0.9621
 2664TIP3    H229484   5.927   5.938  11.651 -0.0077 -0.6317  0.3862
 2665TIP3   OH229485   5.486   4.255   1.172  0.2014 -0.0798 -0.4597
 2665TIP3    H129486   5.415   4.219   1.119 -0.8652  0.2164  0.7511
 2665TIP3    H229487   5.550   4.286   1.107 -0.5714 -0.6924 -1.5554
 2666TIP3   OH229488   3.174   1.224  13.141 -0.3959 -0.7621  0.0324
 2666TIP3    H129489   3.178   1.247  13.048  0.4416  0.1241  0.2765
 2666TIP3    H229490   3.131   1.299  13.182 -2.7020 -2.0326  0.1046
 2667TIP3   OH229491   5.510   3.935   4.207  0.0811  0.3639 -0.4720
 2667TIP3    H129492   5.570   3.991   4.255 -0.6102 -0.3954  1.3480
 2667TIP3    H229493   5.555   3.851   4.198 -0.1748  0.2003 -0.2658
 2668TIP3   OH229494   4.054   4.104  16.173 -0.8556  0.1626 -0.4070
 2668TIP3    H129495   4.049   4.190  16.130 -1.0627  1.0809  1.3322
 2668TIP3    H229496   4.139   4.105  16.217 -1.1655 -0.2164  0.2160
 2669TIP3   OH229497   4.309   6.021   0.519 -0.0475  0.3961 -0.1513
 2669TIP3    H129498   4.387   5.992   0.567 -0.0580  0.9527  0.2072
 2669TIP3    H229499   4.308   5.965   0.441 -1.1329 -1.8789  1.3891
 2670TIP3   OH229500   0.171   2.642   6.420  0.3634  0.2520  0.0269
 2670TIP3    H129501   0.123   2.717   6.384 -0.6721 -0.2707  0.2709
 2670TIP3    H229502   0.235   2.620   6.352 -0.2421  0.5095 -0.6380
 2671TIP3   OH229503   4.034   3.282   5.330 -0.0798  0.0251 -0.1622
 2671TIP3    H129504   3.941   3.267   5.343  0.2255 -2.3191 -0.1901
 2671TIP3    H229505   4.077   3.232   5.399  1.1788  2.0925  0.6462
 2672TIP3   OH229506   6.565   4.847  11.464  0.2418 -0.8177 -0.2231
 2672TIP3    H129507   6.507   4.911  11.505  0.7851  0.9554 -2.0092
 2672TIP3    H229508   6.647   4.894  11.450  0.2808 -1.4710 -2.6889
 2673TIP3   OH229509   0.721   1.632  16.202  0.4963  0.4596  0.4334
 2673TIP3    H129510   0.681   1.569  16.263 -1.7281  1.5552  0.2162
 2673TIP3    H229511   0.722   1.586  16.118  0.8903 -0.0271  0.6952
 2674TIP3   OH229512   4.502   4.655  14.965 -0.3917  0.0977 -0.0363
 2674TIP3    H129513   4.577   4.597  14.952 -0.9323 -0.6124 -0.0670
 2674TIP3    H229514   4.515   4.693  15.052 -1.4640 -2.2856  1.2496
 2675TIP3   OH229515   4.243   4.251   4.937  0.0084 -0.8137 -0.2957
 2675TIP3    H129516   4.168   4.302   4.969 -0.8251 -2.1116 -0.1343
 2675TIP3    H229517   4.304   4.250   5.011  0.3120  0.4444 -0.5061
 2676TIP3   OH229518   0.802   0.860  10.575 -0.1403 -1.0485 -0.1784
 2676TIP3    H129519   0.725   0.804  10.565 -0.2715 -0.8798 -0.1061
 2676TIP3    H229520   0.876   0.802  10.553 -0.2846 -1.2124 -0.2398
 2677TIP3   OH229521   5.266   3.153   3.806 -0.4222 -0.4805  0.3441
 2677TIP3    H129522   5.233   3.093   3.873  2.6514 -1.2548  1.3234
 2677TIP3    H229523   5.355   3.174   3.834 -0.1565  1.8019 -1.8257
 2678TIP3   OH229524   5.709   3.474  13.544  0.5958  0.0747  0.2195
 2678TIP3    H129525   5.668   3.542  13.597 -0.4125 -0.0022 -0.4228
 2678TIP3    H229526   5.794   3.460  13.584  0.9102  1.8451  0.2461
 2679TIP3   OH229527   3.952   2.815   4.401 -0.3975  0.7091  0.5283
 2679TIP3    H129528   3.874   2.838   4.451 -0.2183  0.4290  0.9444
 2679TIP3    H229529   3.981   2.731   4.439 -2.1144 -1.2621 -2.1672
 2680TIP3   OH229530   4.587   4.592  13.249 -0.4594  0.8225  0.3481
 2680TIP3    H129531   4.634   4.558  13.173 -0.4010  0.8602  0.3672
 2680TIP3    H229532   4.621   4.541  13.323  0.0401  1.3019  0.4581
 2681TIP3   OH229533   1.937   4.770   1.396 -0.3372  0.3676 -0.2917
 2681TIP3    H129534   1.959   4.691   1.347 -2.0480  0.2694 -0.9731
 2681TIP3    H229535   1.895   4.737   1.476 -0.4080  0.5752 -0.2433
 2682TIP3   OH229536   2.596   1.869   4.345 -0.3550  0.2130  0.3495
 2682TIP3    H129537   2.662   1.910   4.289  1.4418 -0.6740  1.7024
 2682TIP3    H229538   2.599   1.920   4.426 -2.2687  0.9191  0.0358
 2683TIP3   OH229539   4.526   4.549  14.219 -0.0595 -0.1165  0.0316
 2683TIP3    H129540   4.438   4.548  14.257 -0.8782  0.5690 -1.7023
 2683TIP3    H229541   4.547   4.457  14.204 -0.9355 -0.2446 -0.4871
 2684TIP3   OH229542   5.069   2.210   5.523 -0.2773  0.0028  0.0186
 2684TIP3    H129543   5.139   2.274   5.515  1.3689 -1.7846 -0.6495
 2684TIP3    H229544   5.113   2.125   5.516 -2.3408 -1.2247  0.9936
 2685TIP3   OH229545   6.735   5.889  15.839  0.3645  0.3562 -0.1433
 2685TIP3    H129546   6.658   5.900  15.895 -0.5066 -0.3609 -1.1412
 2685TIP3    H229547   6.809   5.894  15.898 -0.4818  0.5794  0.9267
 2686TIP3   OH229548   0.999   5.793  16.936  0.3365 -0.6160 -0.1898
 2686TIP3    H129549   1.002   5.782  16.840  4.5495  1.6363 -0.5493
 2686TIP3    H229550   0.972   5.884  16.948  2.4100 -0.0652  0.5603
 2687TIP3   OH229551   0.800   6.779   0.272 -0.4170  0.0757 -0.0593
 2687TIP3    H129552   0.778   6.865   0.236 -0.1845  1.3832  2.7387
 2687TIP3    H229553   0.730   6.760   0.334  0.3680 -1.0546  0.5173
 2688TIP3   OH229554   2.799   1.917   3.518  0.3402 -0.4063  0.7894
 2688TIP3    H129555   2.885   1.916   3.475  0.9910 -1.7363  2.0234
 2688TIP3    H229556   2.802   1.993   3.575 -0.1529  0.7969 -0.7424
 2689TIP3   OH229557   4.906   4.437  14.375 -0.2939  0.2828 -0.1184
 2689TIP3    H129558   4.878   4.346  14.385  0.6712 -0.2984 -2.1770
 2689TIP3    H229559   4.875   4.462  14.287  1.9160  0.9969 -0.7454
 2690TIP3   OH229560   5.172   5.229   3.195  0.2467  0.6551  0.3145
 2690TIP3    H129561   5.147   5.195   3.280  0.5676  0.1512  0.2089
 2690TIP3    H229562   5.226   5.306   3.214 -1.3641  1.7859  0.5510
 2691TIP3   OH229563   5.351   3.219  12.739 -0.2189 -0.0801 -0.2969
 2691TIP3    H129564   5.297   3.142  12.722  0.9389 -1.0129  0.1253
 2691TIP3    H229565   5.341   3.235  12.833  0.0888 -0.1638 -0.2460
 2692TIP3   OH229566   2.961   2.573   0.995  0.3951 -0.9848  0.2501
 2692TIP3    H129567   2.948   2.551   1.087  1.6175  0.4810  0.8232
 2692TIP3    H229568   3.052   2.602   0.990  0.3984 -1.1745 -1.4616
 2693TIP3   OH229569   5.316   3.275  13.020 -0.4701 -0.6207 -0.4191
 2693TIP3    H129570   5.253   3.213  13.058 -0.6365  0.4723  1.1764
 2693TIP3    H229571   5.270   3.359  13.021  0.8379  0.1081  0.3268
 2694TIP3   OH229572   0.118   0.402  12.154 -0.6060  0.0499 -0.0308
 2694TIP3    H129573   0.107   0.443  12.069 -1.4329  0.5324  0.2982
 2694TIP3    H229574   0.128   0.308  12.135  1.8313  0.4108 -0.8241
 2695TIP3   OH229575   0.020   3.570  16.367  0.2147 -0.6396 -0.1539
 2695TIP3    H129576   0.025   3.632  16.294 -0.8186 -0.8925 -0.4468
 2695TIP3    H229577  -0.064   3.526  16.356  1.1048 -2.4035 -0.1895
 2696TIP3   OH229578   6.251   0.747   1.628  0.0654  0.0808 -0.0140
 2696TIP3    H129579   6.273   0.655   1.637  0.1371  0.1234  0.2452
 2696TIP3    H229580   6.231   0.776   1.717 -3.7013 -0.6101 -0.4785
 2697TIP3   OH229581   4.688   6.270   5.268 -0.2734 -0.3235 -0.6801
 2697TIP3    H129582   4.654   6.327   5.198  0.9478 -0.2198 -1.2158
 2697TIP3    H229583   4.719   6.192   5.222  1.0565 -0.0204 -0.3433
 2698TIP3   OH229584   5.720   5.931   1.845 -0.5163  0.3063 -0.6372
 2698TIP3    H129585   5.638   5.980   1.848 -1.0433 -0.6040  0.3432
 2698TIP3    H229586   5.767   5.958   1.923 -1.7751 -2.3024  1.1612
 2699TIP3   OH229587   6.707   0.533   1.135  0.1118 -0.3966  0.4673
 2699TIP3    H129588   6.660   0.485   1.202 -0.7624 -1.3121 -0.7533
 2699TIP3    H229589   6.791   0.489   1.128 -0.5296 -1.5483 -0.3588
 2700TIP3   OH229590   5.027   1.136  12.267  1.1176  0.0337 -0.1433
 2700TIP3    H129591   5.102   1.192  12.286  0.6345  1.4239 -1.9881
 2700TIP3    H229592   4.956   1.172  12.321  1.0012  0.7950 -0.7723
 2701TIP3   OH229593   5.329   3.342   0.833 -0.2675  0.4501 -0.2326
 2701TIP3    H129594   5.383   3.357   0.755 -1.0549  0.5879 -0.7662
 2701TIP3    H229595   5.346   3.418   0.889 -1.2315  1.4208 -1.1844
 2702TIP3   OH229596   2.019   1.798  16.383 -0.4451  0.2049  0.1192
 2702TIP3    H129597   1.948   1.742  16.415 -0.6426  0.3260 -0.1005
 2702TIP3    H229598   1.975   1.879  16.357 -0.3109  0.0429 -0.6122
 2703TIP3   OH229599   0.808   4.165  13.272 -0.0401  0.7232  1.0280
 2703TIP3    H129600   0.835   4.208  13.353  0.1540  0.1843  1.2546
 2703TIP3    H229601   0.868   4.091  13.263  0.2257  1.0451  0.1540
 2704TIP3   OH229602   2.066   4.051   6.303 -0.0842  0.0357  0.3004
 2704TIP3    H129603   2.011   3.979   6.271 -0.8847 -0.0156  1.7165
 2704TIP3    H229604   2.012   4.129   6.291 -0.5343 -0.0262  1.7849
 2705TIP3   OH229605   4.804   3.220  11.238 -0.8781 -0.7957 -0.7015
 2705TIP3    H129606   4.835   3.308  11.259 -1.5477 -0.6934 -0.0911
 2705TIP3    H229607   4.871   3.184  11.179  1.5578 -1.3611  2.1601
 2706TIP3   OH229608   4.539   4.807   4.376  0.0154 -0.0955 -0.3452
 2706TIP3    H129609   4.464   4.859   4.405 -1.3610 -2.1916  0.1684
 2706TIP3    H229610   4.609   4.828   4.438 -0.4162  1.2696 -0.3056
 2707TIP3   OH229611   5.406   1.564   0.629 -0.0189 -0.6705 -0.3028
 2707TIP3    H129612   5.433   1.655   0.645  0.1288 -0.3468 -2.2281
 2707TIP3    H229613   5.374   1.534   0.714 -3.4948  2.3135 -0.3342
 2708TIP3   OH229614   5.363   4.519   5.186  0.2468  0.1414 -0.4143
 2708TIP3    H129615   5.307   4.508   5.262 -0.4557  1.2435 -0.7503
 2708TIP3    H229616   5.352   4.611   5.161  1.4378  0.1252 -1.0857
 2709TIP3   OH229617   0.137   5.280   5.113  0.0875 -0.2012  0.4671
 2709TIP3    H129618   0.131   5.202   5.168  0.0251  0.5743  1.5975
 2709TIP3    H229619   0.226   5.313   5.129 -0.7052  1.3356  1.9650
 2710TIP3   OH229620   5.167   5.672  11.854 -0.2560  0.5041 -0.5043
 2710TIP3    H129621   5.222   5.698  11.927 -0.9285  0.2778  0.0955
 2710TIP3    H229622   5.166   5.576  11.857  1.1105  0.4025 -1.8781
 2711TIP3   OH229623   0.179   0.478  17.116  0.1956 -0.3188 -0.5217
 2711TIP3    H129624   0.243   0.526  17.169 -0.4537  0.0992 -0.0926
 2711TIP3    H229625   0.204   0.387  17.124  1.1425 -0.1000 -0.9189
 2712TIP3   OH229626   4.178   4.901  12.833 -0.1068 -0.0448  0.5960
 2712TIP3    H129627   4.249   4.946  12.879  0.3953  0.2155 -0.3874
 2712TIP3    H229628   4.220   4.863  12.756 -1.1833  0.9750 -0.5575
 2713TIP3   OH229629   6.067   4.482  13.662 -0.3828  0.4049 -0.6994
 2713TIP3    H129630   5.991   4.472  13.719 -0.2940 -0.9426 -0.7860
 2713TIP3    H229631   6.130   4.532  13.714 -1.5469  2.1614 -0.8755
 2714TIP3   OH229632   4.542   0.179  12.328  0.1548 -0.3672  0.1675
 2714TIP3    H129633   4.514   0.253  12.381 -0.9960  0.6295 -1.7016
 2714TIP3    H229634   4.524   0.102  12.382 -1.1220  0.5805  1.1456
 2715TIP3   OH229635   0.424   2.876   5.396  0.1495  0.5020 -0.2889
 2715TIP3    H129636   0.510   2.901   5.429  0.7835  1.4231 -2.4569
 2715TIP3    H229637   0.363   2.927   5.448  1.0128  1.0325  0.2395
 2716TIP3   OH229638   3.789   4.274  12.122  0.4349  0.3546  0.2510
 2716TIP3    H129639   3.874   4.317  12.130  0.9549 -0.9944  3.3684
 2716TIP3    H229640   3.798   4.218  12.045  2.4629  0.0731  0.6463
 2717TIP3   OH229641   2.211   0.029   5.957 -0.0314 -0.5164 -0.1717
 2717TIP3    H129642   2.142   0.044   6.021  0.5860 -1.0065  0.6228
 2717TIP3    H229643   2.168  -0.020   5.887 -0.4778 -0.8840  0.3490
 2718TIP3   OH229644   5.744   0.590   1.919  0.2053  0.1446 -0.5014
 2718TIP3    H129645   5.774   0.520   1.977  1.0296  2.4634  2.1158
 2718TIP3    H229646   5.649   0.578   1.914  0.1525 -0.3075  1.1253
 2719TIP3   OH229647   0.682   2.539  15.125  0.1643 -0.0635 -0.4582
 2719TIP3    H129648   0.628   2.461  15.113 -0.0172 -0.2144  1.1421
 2719TIP3    H229649   0.770   2.506  15.139  0.1791  0.0466 -0.2924
 2720TIP3   OH229650   5.776   4.678   6.036 -0.1951 -0.1557 -0.0377
 2720TIP3    H129651   5.716   4.738   5.991  0.6065  2.6085  2.2076
 2720TIP3    H229652   5.734   4.662   6.121  1.3185  0.2930  0.8304
 2721TIP3   OH229653   3.778   4.413  10.911  0.0007  0.5734  0.2989
 2721TIP3    H129654   3.799   4.363  10.832 -1.1701  0.1017  0.2639
 2721TIP3    H229655   3.767   4.503  10.880  0.1981  0.5092  0.0387
 2722TIP3   OH229656   2.822   2.337   4.372 -0.2069 -0.1389  0.2382
 2722TIP3    H129657   2.858   2.397   4.437  0.2320 -0.3466  0.1858
 2722TIP3    H229658   2.813   2.389   4.293 -0.9456  0.1745  0.5136
 2723TIP3   OH229659   1.788   3.256   2.775  0.0319 -0.7409 -0.1215
 2723TIP3    H129660   1.742   3.339   2.770  1.6872  0.1708 -0.8483
 2723TIP3    H229661   1.825   3.243   2.687  3.0215 -0.2881  0.9676
 2724TIP3   OH229662   1.834   3.132  13.832  0.0168  0.3550  0.5971
 2724TIP3    H129663   1.755   3.118  13.781  0.4264 -2.0780  0.5051
 2724TIP3    H229664   1.833   3.063  13.899  1.9834  0.2995  0.6489
 2725TIP3   OH229665   2.136   4.656   1.923 -0.3998 -0.2969  0.5226
 2725TIP3    H129666   2.211   4.650   1.864 -0.6765 -0.3075  0.1674
 2725TIP3    H229667   2.096   4.741   1.904  1.2028  1.0874  2.7703
 2726TIP3   OH229668   5.203   4.256   6.916  0.0749 -0.2568 -0.4229
 2726TIP3    H129669   5.286   4.297   6.890 -1.1370  2.0656 -0.9450
 2726TIP3    H229670   5.221   4.162   6.915  2.2807  0.1028 -1.9417
 2727TIP3   OH229671   1.692   1.597   3.393 -0.0478 -0.5442 -0.3904
 2727TIP3    H129672   1.611   1.551   3.374  0.0815 -0.9383 -0.0135
 2727TIP3    H229673   1.680   1.632   3.482 -0.6260  1.2185 -1.1099
 2728TIP3   OH229674   1.708   3.907  15.656  0.1751 -0.3585  0.5711
 2728TIP3    H129675   1.697   3.996  15.623 -0.3599 -0.4032  0.6139
 2728TIP3    H229676   1.710   3.853  15.577 -1.9948 -0.5588  0.5921
 2729TIP3   OH229677   1.289   5.356  13.091  0.7611 -0.5400 -0.1768
 2729TIP3    H129678   1.338   5.276  13.112  0.2077 -0.5112  1.3555
 2729TIP3    H229679   1.321   5.420  13.154  0.4755  0.1747 -0.7472
 2730TIP3   OH229680   2.470   5.536   4.231 -0.1120 -0.3781 -0.2713
 2730TIP3    H129681   2.464   5.624   4.269 -4.2464 -0.4661 -0.3539
 2730TIP3    H229682   2.533   5.546   4.159  0.6787  2.1039  0.6442
 2731TIP3   OH229683   2.870   3.595   2.882  0.3380 -0.1725  0.7590
 2731TIP3    H129684   2.882   3.657   2.954  2.4777 -1.0078  1.2036
 2731TIP3    H229685   2.841   3.515   2.924 -0.5624 -0.0353  0.4129
 2732TIP3   OH229686   3.067   6.040  12.082  0.2753 -0.4677 -0.4732
 2732TIP3    H129687   3.021   5.970  12.036 -1.7479  0.1971  0.4452
 2732TIP3    H229688   3.095   6.100  12.013  1.1166 -1.6160 -1.1737
 2733TIP3   OH229689   1.957   2.395  16.173 -0.8290  0.0594  0.5834
 2733TIP3    H129690   2.023   2.454  16.209 -0.4207  1.0974 -1.7060
 2733TIP3    H229691   1.973   2.394  16.079 -2.1691 -2.0849  0.2873
 2734TIP3   OH229692   6.490   1.016  15.509  1.0655 -0.4653 -0.2556
 2734TIP3    H129693   6.504   1.087  15.447  2.1185 -0.5645 -0.1564
 2734TIP3    H229694   6.507   0.936  15.459  1.5407 -0.5627  0.0488
 2735TIP3   OH229695   0.740   4.923  13.828 -0.4773  0.7150 -0.1616
 2735TIP3    H129696   0.692   4.948  13.907  0.6155  0.8842  0.4569
 2735TIP3    H229697   0.823   4.890  13.859 -0.4602 -0.2583 -1.1968
 2736TIP3   OH229698   2.141   0.140   1.776 -0.0807  0.4545  0.2804
 2736TIP3    H129699   2.138   0.204   1.705  0.5571  1.2140  0.9141
 2736TIP3    H229700   2.195   0.182   1.843  1.6562 -1.3808  0.0915
 2737TIP3   OH229701   3.615   5.252   2.393 -0.4051  0.4967 -0.7371
 2737TIP3    H129702   3.558   5.324   2.368  1.1676  1.7463 -0.8588
 2737TIP3    H229703   3.567   5.207   2.463 -2.2078  0.5442 -1.8791
 2738TIP3   OH229704   1.560   3.106  11.434 -0.1275 -0.6907  0.0272
 2738TIP3    H129705   1.566   3.187  11.384 -3.4325 -1.4718 -1.8956
 2738TIP3    H229706   1.496   3.125  11.503  1.2240 -0.9003  1.3959
 2739TIP3   OH229707   6.781   2.180  12.951  0.1904 -0.0401 -0.1930
 2739TIP3    H129708   6.823   2.260  12.983 -1.4549  1.2407 -1.0954
 2739TIP3    H229709   6.748   2.137  13.029 -1.6640  1.8250  0.1504
 2740TIP3   OH229710   4.637   5.405  14.890 -0.4909  0.2503 -0.0103
 2740TIP3    H129711   4.571   5.407  14.958  1.2302 -2.1290  1.9063
 2740TIP3    H229712   4.651   5.311  14.873  0.7622  0.7424 -1.9967
 2741TIP3   OH229713   2.112   5.108   0.784 -0.2862  0.1207  0.5290
 2741TIP3    H129714   2.020   5.133   0.793 -0.5492 -0.7128  0.2875
 2741TIP3    H229715   2.138   5.075   0.870 -0.3042  0.0818  0.5198
 2742TIP3   OH229716   0.814   0.185  14.659 -0.2491  0.2146 -0.4284
 2742TIP3    H129717   0.751   0.122  14.624 -0.4343 -0.5159  1.1482
 2742TIP3    H229718   0.888   0.132  14.687  0.4955  0.9310 -0.9891
 2743TIP3   OH229719   5.729   5.818   5.365 -0.0579 -0.9451 -0.1200
 2743TIP3    H129720   5.818   5.784   5.355  0.1184 -1.1494  1.7295
 2743TIP3    H229721   5.706   5.798   5.456 -1.9527 -0.7786 -0.5249
 2744TIP3   OH229722   0.912   5.856   1.088  0.1447  0.0202  0.1527
 2744TIP3    H129723   0.987   5.894   1.133 -0.6788 -0.5284  2.0789
 2744TIP3    H229724   0.851   5.833   1.158 -0.5158 -2.3701 -1.1027
 2745TIP3   OH229725   4.769   5.009  13.196  0.1316  0.3726  0.2514
 2745TIP3    H129726   4.831   4.946  13.232  1.0584 -0.1157 -2.0413
 2745TIP3    H229727   4.807   5.094  13.217  1.1764  0.0835 -0.3717
 2746TIP3   OH229728   5.692   1.306   4.527 -0.0024 -0.3094 -0.1607
 2746TIP3    H129729   5.709   1.399   4.509 -2.0846  0.3209  0.9168
 2746TIP3    H229730   5.730   1.291   4.613  0.9641 -0.6949 -0.6276
 2747TIP3   OH229731   0.180   2.650  11.861 -0.0804  0.6565  0.2320
 2747TIP3    H129732   0.192   2.671  11.768 -2.3442 -0.1184 -0.2800
 2747TIP3    H229733   0.219   2.563  11.871  1.3735  1.2956  0.3492
 2748TIP3   OH229734   2.720   2.526  14.611  0.4038  1.0860  0.7950
 2748TIP3    H129735   2.712   2.433  14.628  0.6044  0.6391 -1.2340
 2748TIP3    H229736   2.771   2.560  14.685  2.0071 -0.7726  0.6290
 2749TIP3   OH229737   0.777   5.488   5.625  0.8811  0.4309 -0.0078
 2749TIP3    H129738   0.706   5.469   5.565  1.1594 -1.4571  0.2098
 2749TIP3    H229739   0.749   5.567   5.671 -0.3504  0.6054 -1.0029
 2750TIP3   OH229740   5.161   4.947  16.440  0.2721 -0.5125 -0.2395
 2750TIP3    H129741   5.120   4.907  16.364 -1.2618 -1.6206  1.1040
 2750TIP3    H229742   5.234   4.888  16.461  2.0056  0.8736 -1.9715
 2751TIP3   OH229743   4.960   4.374   1.562  0.1362 -0.4200 -0.6235
 2751TIP3    H129744   5.024   4.391   1.492  2.1914  0.6060  1.3809
 2751TIP3    H229745   4.875   4.373   1.517  1.4709 -1.7046 -3.4090
 2752TIP3   OH229746   2.492   6.632  14.787  0.0492 -0.3417  0.2900
 2752TIP3    H129747   2.476   6.719  14.825 -1.7748  0.0385 -1.1935
 2752TIP3    H229748   2.505   6.649  14.694 -0.2653 -1.6660 -0.0078
 2753TIP3   OH229749   4.678   6.455   5.043 -0.0492 -0.4669 -0.4165
 2753TIP3    H129750   4.718   6.389   4.986 -1.1742  0.4517 -2.4053
 2753TIP3    H229751   4.617   6.501   4.985 -0.1695  1.5293  1.2120
 2754TIP3   OH229752   4.201   0.102  13.397 -0.0397 -0.2559  0.9845
 2754TIP3    H129753   4.130   0.042  13.421  0.8418 -1.5643  0.4439
 2754TIP3    H229754   4.268   0.087  13.464  0.1516  0.1870  0.8926
 2755TIP3   OH229755   1.238   3.873  14.769 -0.2706 -0.3374 -0.2430
 2755TIP3    H129756   1.188   3.948  14.801 -1.7445 -0.9527 -1.0160
 2755TIP3    H229757   1.201   3.854  14.683  0.3353 -1.6985 -0.2346
 2756TIP3   OH229758   1.922   1.771   1.967 -0.3201  0.3048  0.0113
 2756TIP3    H129759   1.978   1.826   1.912 -0.2215  0.0476 -0.1498
 2756TIP3    H229760   1.841   1.821   1.977 -0.3173  0.3784 -0.3242
 2757TIP3   OH229761   1.299   1.028  13.623 -0.1368  0.1388 -0.1243
 2757TIP3    H129762   1.360   1.018  13.550 -1.6741  0.4053 -1.4843
 2757TIP3    H229763   1.303   0.944  13.669 -1.2041 -1.1276 -2.1890
 2758TIP3   OH229764   5.409   0.801   2.101 -0.3660 -0.4374 -0.0402
 2758TIP3    H129765   5.415   0.720   2.050 -1.7629  0.1222 -1.1913
 2758TIP3    H229766   5.442   0.869   2.041  1.3167 -0.1788  1.1046
 2759TIP3   OH229767   6.065   3.527   4.139 -0.3172  0.9010 -0.2013
 2759TIP3    H129768   6.030   3.602   4.090 -2.2589  0.4859  0.4582
 2759TIP3    H229769   6.006   3.455   4.118  0.3736  0.0490  0.6839
 2760TIP3   OH229770   2.703   5.116   0.291  0.4750 -0.4770 -0.3664
 2760TIP3    H129771   2.655   5.051   0.342 -0.1674  0.2172 -0.0614
 2760TIP3    H229772   2.653   5.123   0.209 -0.3247  0.6758  0.1881
 2761TIP3   OH229773   2.060   0.311   3.201 -0.2597 -0.2314 -0.4169
 2761TIP3    H129774   2.047   0.397   3.241  0.8786  0.6472 -1.8277
 2761TIP3    H229775   1.992   0.304   3.135  0.9491  0.5632 -1.7905
 2762TIP3   OH229776   5.955   4.260  15.980 -0.1154 -0.1694 -0.4984
 2762TIP3    H129777   5.940   4.173  16.016  1.7137 -0.9083 -1.4004
 2762TIP3    H229778   5.911   4.320  16.042  2.0285 -1.4049  2.4319
 2763TIP3   OH229779   2.884   0.134   4.272 -0.2709  0.6859  0.3893
 2763TIP3    H129780   2.976   0.146   4.248 -0.2617  0.5139  0.3354
 2763TIP3    H229781   2.838   0.135   4.188 -0.3579  1.0981  0.4381
 2764TIP3   OH229782   0.398   3.179  15.822 -0.5702 -0.0525  0.2477
 2764TIP3    H129783   0.408   3.159  15.729  0.1710  1.0051  0.0965
 2764TIP3    H229784   0.416   3.272  15.830  0.2121 -0.2823  1.5775
 2765TIP3   OH229785   0.013   6.543  12.410  0.2159  0.1793  0.6291
 2765TIP3    H129786   0.097   6.504  12.387  1.0786  2.5166 -0.5105
 2765TIP3    H229787   0.006   6.530  12.505  0.6004 -2.2569  0.4043
 2766TIP3   OH229788   3.634   0.915  16.342  0.3512  0.0004  0.9012
 2766TIP3    H129789   3.669   0.962  16.418 -2.0708  0.7715  1.6238
 2766TIP3    H229790   3.600   0.984  16.285  0.4580 -0.6878 -0.0251
 2767TIP3   OH229791   5.751   5.692  11.039  0.4035  0.0609  0.0222
 2767TIP3    H129792   5.678   5.692  10.977 -0.0926  1.1181  0.5938
 2767TIP3    H229793   5.805   5.617  11.012 -1.4463 -1.4388  0.2615
 2768TIP3   OH229794   0.223   2.162   6.609  0.6292  0.1174  0.4504
 2768TIP3    H129795   0.275   2.242   6.599 -1.2152  1.3034 -0.1474
 2768TIP3    H229796   0.134   2.189   6.586 -0.1009 -2.0444  0.5962
 2769TIP3   OH229797   3.167   4.761  12.124 -0.1450 -0.2362  0.1631
 2769TIP3    H129798   3.168   4.721  12.037 -0.3082 -0.6422  0.3441
 2769TIP3    H229799   3.257   4.755  12.154  0.2540  1.3341 -0.6095
 2770TIP3   OH229800   1.776   5.807   4.266 -0.0177 -0.5596 -0.6705
 2770TIP3    H129801   1.844   5.739   4.259 -0.3683 -0.7701 -2.3229
 2770TIP3    H229802   1.703   5.762   4.308 -0.3155 -1.2989 -1.9174
 2771TIP3   OH229803   0.394   5.523  11.883  0.3651 -0.1516 -0.4143
 2771TIP3    H129804   0.394   5.527  11.787  0.4691  1.3542 -0.3716
 2771TIP3    H229805   0.459   5.587  11.910 -0.6166  0.4120  0.6871
 2772TIP3   OH229806   2.619   1.653   2.340  0.7578 -0.8418  0.5451
 2772TIP3    H129807   2.700   1.603   2.352  0.2483 -1.6203  0.8456
 2772TIP3    H229808   2.557   1.589   2.304  0.6410  0.0712 -0.9548
 2773TIP3   OH229809   5.423   3.059  13.358  0.3191 -0.0228  0.3451
 2773TIP3    H129810   5.473   2.999  13.412  1.8952  0.2561 -0.7217
 2773TIP3    H229811   5.370   3.110  13.420  0.7734 -0.8587  1.4433
 2774TIP3   OH229812   2.994   2.752   4.835 -0.1177 -0.1486  0.2536
 2774TIP3    H129813   2.912   2.742   4.787  1.2436  0.6124 -2.3939
 2774TIP3    H229814   3.051   2.683   4.802  0.7605  0.1572  1.0626
 2775TIP3   OH229815   3.474   6.039  13.838 -0.2861  0.0907 -0.1313
 2775TIP3    H129816   3.553   6.015  13.885 -0.2305 -0.6404 -0.5912
 2775TIP3    H229817   3.487   6.131  13.814  1.3895 -0.5958 -2.1018
 2776TIP3   OH229818   2.572   1.246  13.371  0.5150 -0.1838  0.3577
 2776TIP3    H129819   2.479   1.251  13.346 -0.2048 -1.6100  2.5469
 2776TIP3    H229820   2.608   1.330  13.342 -1.0891 -0.1450 -1.8091
 2777TIP3   OH229821   6.254   2.254  15.848 -0.5479 -0.6396  0.4039
 2777TIP3    H129822   6.262   2.323  15.914 -1.2009 -0.5465  0.3957
 2777TIP3    H229823   6.162   2.258  15.821 -0.0237  0.1191 -1.3733
 2778TIP3   OH229824   3.030   4.661   6.053 -0.4766  0.5940  0.0849
 2778TIP3    H129825   3.075   4.734   6.095 -1.2313  0.2447  1.5882
 2778TIP3    H229826   2.940   4.665   6.087 -1.0614  0.1178 -1.3193
 2779TIP3   OH229827   0.329   6.815   0.316  0.8320 -0.7332 -0.2857
 2779TIP3    H129828   0.277   6.789   0.392 -0.0843 -2.4956 -1.4411
 2779TIP3    H229829   0.319   6.743   0.255  1.6063  0.5923 -2.0611
 2780TIP3   OH229830   5.857   4.568  15.310  0.2371  0.2270 -0.2315
 2780TIP3    H129831   5.848   4.598  15.400 -0.2365 -1.3408  0.2798
 2780TIP3    H229832   5.946   4.594  15.285  1.4176 -1.6865  1.6695
 2781TIP3   OH229833   3.627   4.742   4.572 -0.2306 -0.6060 -0.1090
 2781TIP3    H129834   3.663   4.654   4.565  0.9961 -0.0993 -0.4691
 2781TIP3    H229835   3.648   4.770   4.662  3.1864  0.8368 -1.1909
 2782TIP3   OH229836   5.301   4.579  11.389  0.0093 -0.2505 -0.2282
 2782TIP3    H129837   5.221   4.528  11.374 -0.9331  1.5200 -1.6533
 2782TIP3    H229838   5.372   4.516  11.378 -1.1340 -2.0163  1.6583
 2783TIP3   OH229839   5.199   1.742  11.773 -0.0928 -0.0128 -1.1673
 2783TIP3    H129840   5.211   1.648  11.761  1.9956 -0.2317  1.6660
 2783TIP3    H229841   5.276   1.782  11.731  0.2815  0.1907 -0.3253
 2784TIP3   OH229842   3.238   3.237  12.550  0.4291 -0.1529 -0.0853
 2784TIP3    H129843   3.260   3.278  12.466 -1.4226 -0.0575 -0.5731
 2784TIP3    H229844   3.207   3.149  12.527  2.1572 -1.0397  0.7509
 2785TIP3   OH229845   5.545   6.214  11.553 -0.3813 -0.0921 -0.0980
 2785TIP3    H129846   5.619   6.159  11.578 -0.5910  0.0724  0.8980
 2785TIP3    H229847   5.584   6.296  11.523 -0.1835  0.3007  1.1998
 2786TIP3   OH229848   1.524   2.493   3.095 -0.5038 -0.3193  0.5117
 2786TIP3    H129849   1.513   2.505   3.189 -2.6453 -0.4075  0.3245
 2786TIP3    H229850   1.571   2.572   3.066 -2.0782  0.9705  1.3128
 2787TIP3   OH229851   6.159   1.319  11.359 -0.0235 -0.7032 -0.8079
 2787TIP3    H129852   6.155   1.409  11.327  2.0364 -0.3382 -0.1699
 2787TIP3    H229853   6.217   1.273  11.298  1.3353 -0.8061  0.5050
 2788TIP3   OH229854   5.086   2.799   0.253  0.0569  0.0991  0.6878
 2788TIP3    H129855   5.045   2.883   0.273  0.2783 -0.1260  2.2103
 2788TIP3    H229856   5.014   2.744   0.222 -0.2385  0.5785  0.4999
 2789TIP3   OH229857   2.815   6.828   0.824  0.2852  0.0646  0.0276
 2789TIP3    H129858   2.901   6.828   0.782  0.0311 -0.2536 -0.4975
 2789TIP3    H229859   2.834   6.810   0.916  0.6722 -1.5359 -0.3266
 2790TIP3   OH229860   1.838   5.996  13.364  0.1627  0.1495 -0.3344
 2790TIP3    H129861   1.838   5.975  13.458 -0.1440  0.7912 -0.1805
 2790TIP3    H229862   1.871   5.918  13.322  0.6333 -0.0258  0.3432
 2791TIP3   OH229863   5.396   6.656  14.042 -0.0400  0.2889  0.5497
 2791TIP3    H129864   5.462   6.632  13.977  0.2479  0.7484  0.6668
 2791TIP3    H229865   5.446   6.691  14.116 -0.3552 -0.3590  1.0806
 2792TIP3   OH229866   1.260   5.126  10.714 -0.3773 -0.0759  0.5533
 2792TIP3    H129867   1.208   5.046  10.704 -1.0186  0.1288  2.0017
 2792TIP3    H229868   1.197   5.197  10.708 -0.0564  0.2400  0.8595
 2793TIP3   OH229869   1.816   3.056  13.080  0.5949  0.3384  0.0529
 2793TIP3    H129870   1.887   3.081  13.139 -0.3616  0.1506  1.3289
 2793TIP3    H229871   1.811   2.961  13.087 -0.7819  0.4626  1.2147
 2794TIP3   OH229872   4.257   1.415   1.771 -0.3080  0.9930 -0.1577
 2794TIP3    H129873   4.287   1.383   1.856  2.5786 -2.4112 -2.1841
 2794TIP3    H229874   4.183   1.358   1.749 -1.2300  2.0489  0.1010
 2795TIP3   OH229875   4.830   2.865  13.161  0.3076 -0.4833 -0.1366
 2795TIP3    H129876   4.767   2.907  13.219 -0.8778 -1.4917 -0.6319
 2795TIP3    H229877   4.779   2.796  13.118  1.3619 -0.3078 -1.7313
 2796TIP3   OH229878   4.949   5.376  15.126 -0.7516 -0.1229  0.0538
 2796TIP3    H129879   4.901   5.312  15.073  0.2195 -0.8620  0.0129
 2796TIP3    H229880   5.038   5.373  15.090 -0.2757 -0.0260  1.1805
 2797TIP3   OH229881   6.647   3.658   0.601  0.1040 -0.0616 -0.1038
 2797TIP3    H129882   6.685   3.572   0.615  1.3555  0.6693  1.2716
 2797TIP3    H229883   6.594   3.675   0.679 -1.3559 -0.1732 -1.0362
 2798TIP3   OH229884   5.714   2.583  16.795 -0.6291 -0.0791  0.0472
 2798TIP3    H129885   5.665   2.587  16.877  1.8004  0.4791  1.5868
 2798TIP3    H229886   5.704   2.492  16.766 -0.8806 -0.5109  1.4091
 2799TIP3   OH229887   3.385   0.595   5.081  0.0626 -0.3715  0.0612
 2799TIP3    H129888   3.365   0.502   5.066  0.7904 -0.3454 -1.1615
 2799TIP3    H229889   3.426   0.624   5.000  0.9544  0.7234  0.8822
 2800TIP3   OH229890   6.403   4.263   0.620  0.4959 -0.8173  0.0931
 2800TIP3    H129891   6.314   4.258   0.655  0.0250  0.3349 -0.8421
 2800TIP3    H229892   6.391   4.262   0.525  1.2751  1.4009 -0.0911
 2801TIP3   OH229893   5.361   4.916  16.121 -0.0646  0.1115  0.3336
 2801TIP3    H129894   5.375   4.976  16.194 -1.2772  0.1741  0.5227
 2801TIP3    H229895   5.280   4.871  16.141  0.1621 -0.6781 -0.4394
 2802TIP3   OH229896   4.744   1.518   3.888  0.3790 -0.5485  0.1998
 2802TIP3    H129897   4.743   1.423   3.876  1.1911 -0.5435  0.0458
 2802TIP3    H229898   4.802   1.533   3.962 -0.3564 -0.2142  0.7161
 2803TIP3   OH229899   1.708   0.042  14.449 -0.3201  0.4898  0.0797
 2803TIP3    H129900   1.698   0.073  14.539 -0.6512  2.3084 -0.5547
 2803TIP3    H229901   1.790  -0.008  14.450 -0.7348 -0.2271  1.5503
 2804TIP3   OH229902   1.568   5.892  13.417 -0.1170  0.5218  0.1959
 2804TIP3    H129903   1.559   5.944  13.337  2.2603 -1.8764 -1.8243
 2804TIP3    H229904   1.644   5.929  13.461 -1.4964  1.9185  1.5279
 2805TIP3   OH229905   6.580   5.814   2.521 -0.1942 -0.2977 -0.1083
 2805TIP3    H129906   6.650   5.751   2.540  1.0605  0.9021 -0.5030
 2805TIP3    H229907   6.566   5.807   2.427 -0.2433 -0.1791 -0.1099
 2806TIP3   OH229908   1.274   4.987  11.574  0.0471  0.4370  0.0950
 2806TIP3    H129909   1.185   5.010  11.598  0.4356  2.4824 -0.1745
 2806TIP3    H229910   1.271   4.973  11.479  0.3590  2.8046 -0.3295
 2807TIP3   OH229911   4.600   2.529   0.598  0.3937  0.3343  0.2468
 2807TIP3    H129912   4.682   2.509   0.553  0.2032  1.9174 -0.9063
 2807TIP3    H229913   4.578   2.449   0.645  1.5476 -0.8127 -1.0622
 2808TIP3   OH229914   4.667   5.425  11.919 -0.5270  0.5028  0.6920
 2808TIP3    H129915   4.759   5.402  11.923 -0.4603  0.2741 -1.2513
 2808TIP3    H229916   4.633   5.406  12.007  0.6939 -1.8817  0.7163
 2809TIP3   OH229917   3.393   2.516  12.096 -0.6130 -0.5118 -0.3152
 2809TIP3    H129918   3.326   2.466  12.144 -0.7546  0.8407  0.9647
 2809TIP3    H229919   3.476   2.483  12.129 -0.7028 -0.3620  0.0789
 2810TIP3   OH229920   3.917   3.134   2.958  0.5764 -0.7921  0.3091
 2810TIP3    H129921   3.893   3.070   2.891  0.7500  0.9227 -1.4948
 2810TIP3    H229922   3.988   3.092   3.007  0.6955 -1.9750 -0.8210
 2811TIP3   OH229923   6.083   5.399  13.172  0.3556  0.0993 -0.1570
 2811TIP3    H129924   5.992   5.430  13.175  0.3146  0.0662 -0.8222
 2811TIP3    H229925   6.133   5.467  13.218 -0.1187 -0.3325  1.0057
 2812TIP3   OH229926   4.842   1.709   5.127 -0.4942  0.1148 -0.0714
 2812TIP3    H129927   4.747   1.716   5.133 -0.6798 -1.2408 -0.9382
 2812TIP3    H229928   4.869   1.665   5.207 -1.0581 -2.7927 -1.3547
 2813TIP3   OH229929   4.801   6.336   3.017 -0.0227 -0.8241  0.0923
 2813TIP3    H129930   4.720   6.301   2.980 -0.2723  0.5662 -0.7244
 2813TIP3    H229931   4.838   6.263   3.066 -1.7478 -1.4972  0.4571
 2814TIP3   OH229932   4.021   3.158  12.911  0.0987 -0.2003 -0.2074
 2814TIP3    H129933   3.976   3.079  12.879  0.4897 -0.6241  0.2815
 2814TIP3    H229934   4.059   3.196  12.832 -0.3134 -0.3532 -0.4891
 2815TIP3   OH229935   3.910   0.366   4.308  0.5552  0.4866 -0.7041
 2815TIP3    H129936   3.917   0.348   4.402  0.0590 -0.0922 -0.7661
 2815TIP3    H229937   3.821   0.337   4.285  0.9925 -0.2365 -1.5332
 2816TIP3   OH229938   3.297   2.972  15.822 -0.1012  0.6508 -0.9462
 2816TIP3    H129939   3.328   2.893  15.866  0.6546  1.8792  0.8783
 2816TIP3    H229940   3.292   2.949  15.729 -2.2121 -2.2435 -0.2570
 2817TIP3   OH229941   1.393   4.737  16.360 -0.0402  0.4556  0.3584
 2817TIP3    H129942   1.379   4.822  16.402 -1.3876  0.9945 -1.0865
 2817TIP3    H229943   1.372   4.752  16.268 -0.1352 -1.4074  0.0388
 2818TIP3   OH229944   4.425   5.593  14.279 -0.1992  0.2272  0.0312
 2818TIP3    H129945   4.504   5.547  14.309 -0.5259 -0.8181 -0.6453
 2818TIP3    H229946   4.357   5.565  14.340 -0.4323 -0.3297 -0.4711
 2819TIP3   OH229947   3.361   2.376   2.890  0.0736  0.3829  0.2597
 2819TIP3    H129948   3.383   2.294   2.846  0.0676  0.3666  0.2874
 2819TIP3    H229949   3.430   2.389   2.955  0.3981  0.6981 -0.1409
 2820TIP3   OH229950   3.399   4.583  15.957  0.8346  0.3074 -0.2604
 2820TIP3    H129951   3.419   4.552  15.869  1.7587  0.8564 -0.2621
 2820TIP3    H229952   3.304   4.593  15.959  0.8125  0.3567 -1.2091
 2821TIP3   OH229953   4.153   3.200  12.652  0.6005  0.0266  0.1080
 2821TIP3    H129954   4.215   3.163  12.588  0.6277  2.0991 -1.1672
 2821TIP3    H229955   4.071   3.209  12.604 -0.0910 -0.6291  1.1277
 2822TIP3   OH229956   0.730   6.582   3.612  0.0670 -0.1317 -0.2359
 2822TIP3    H129957   0.668   6.599   3.542  0.9313  1.1761 -0.7189
 2822TIP3    H229958   0.783   6.510   3.581  1.7687  1.7110 -1.9011
 2823TIP3   OH229959   6.820   1.173  14.582 -0.1761  0.5062  0.1774
 2823TIP3    H129960   6.830   1.194  14.675 -1.0700  3.1981 -0.2415
 2823TIP3    H229961   6.909   1.164  14.550  0.1440 -0.5257  1.2650
 2824TIP3   OH229962   3.684   1.092   1.233 -0.6948 -0.5589  0.0410
 2824TIP3    H129963   3.632   1.163   1.271  0.9493 -0.0298  1.4247
 2824TIP3    H229964   3.634   1.013   1.251 -1.0853 -0.0562  1.2293
 2825TIP3   OH229965   4.412   1.425  11.933  0.1523  0.2875  0.0868
 2825TIP3    H129966   4.361   1.454  11.857 -1.3156 -0.9716  0.5301
 2825TIP3    H229967   4.499   1.406  11.897 -0.0413  1.2353 -0.9544
 2826TIP3   OH229968   0.856   5.891   5.088  0.2669  0.1252 -0.0604
 2826TIP3    H129969   0.907   5.973   5.080 -0.5037  0.5248 -1.0919
 2826TIP3    H229970   0.843   5.881   5.182 -0.2324  1.5843  0.0556
 2827TIP3   OH229971   1.347   1.620  15.887 -0.6281 -0.0220  0.0841
 2827TIP3    H129972   1.354   1.525  15.878  2.1525  0.2837 -2.1183
 2827TIP3    H229973   1.272   1.644  15.832  1.3026 -0.6357 -3.0428
 2828TIP3   OH229974   0.857   4.450   2.769 -0.3106 -0.4043  0.0217
 2828TIP3    H129975   0.770   4.437   2.732  0.4896 -1.6468 -1.5504
 2828TIP3    H229976   0.846   4.438   2.863 -1.7476 -1.0286 -0.2094
 2829TIP3   OH229977   4.862   5.302   3.106 -0.8857  0.8921 -0.7778
 2829TIP3    H129978   4.914   5.342   3.175 -1.9612 -0.6620  1.0387
 2829TIP3    H229979   4.879   5.355   3.028  0.7654  2.4007  0.5477
 2830TIP3   OH229980   3.495   1.480  13.373  0.2154 -0.1541  0.1329
 2830TIP3    H129981   3.558   1.412  13.398  0.1666 -0.4631 -0.5649
 2830TIP3    H229982   3.459   1.450  13.290  0.3118  0.8012 -0.2735
 2831TIP3   OH229983   5.317   6.011   3.092 -0.0514 -0.5031  0.3228
 2831TIP3    H129984   5.388   6.069   3.121 -1.8036  1.2452  1.3113
 2831TIP3    H229985   5.361   5.928   3.074  2.1475  0.2881  1.5748
 2832TIP3   OH229986   2.598   0.026  11.104  0.3545  0.0534  0.1187
 2832TIP3    H129987   2.518   0.028  11.157  0.8868 -2.2340  1.1365
 2832TIP3    H229988   2.601  -0.063  11.069  2.0924  0.3186 -0.5102
 2833TIP3   OH229989   2.616   3.334  15.421  0.8428  0.5787 -0.4045
 2833TIP3    H129990   2.647   3.388  15.493 -1.9884 -0.5503  1.8589
 2833TIP3    H229991   2.671   3.256  15.424  0.4543  0.3343  0.8915
 2834TIP3   OH229992   4.990   1.840  12.215  0.3399 -0.1968  0.2803
 2834TIP3    H129993   4.962   1.844  12.307  1.2548  0.5075  0.5497
 2834TIP3    H229994   4.998   1.747  12.196  2.2848 -0.3681  1.6276
 2835TIP3   OH229995   5.252   1.852  14.468 -0.0725  0.0041 -0.3029
 2835TIP3    H129996   5.311   1.787  14.505 -0.5816 -0.3615 -0.1234
 2835TIP3    H229997   5.210   1.892  14.544 -0.3892 -0.0559 -0.4465
 2836TIP3   OH229998   4.999   1.239  15.402  0.2540  0.0923 -0.1724
 2836TIP3    H129999   5.077   1.215  15.452  0.6330  0.6175 -0.4984
 2836TIP3    H230000   4.950   1.158  15.392 -0.6331  0.1974  2.4196
 2837TIP3   OH230001   4.525   1.734  16.948 -0.5822 -0.0296 -0.1506
 2837TIP3    H130002   4.568   1.819  16.943 -1.0362  0.1285 -1.7223
 2837TIP3    H230003   4.585   1.681  17.001  0.3092  0.9066 -0.1735
 2838TIP3   OH230004   2.911   3.329   1.754 -0.4322  0.1236  0.5665
 2838TIP3    H130005   2.965   3.398   1.792 -1.6660  1.8162 -0.5919
 2838TIP3    H230006   2.970   3.283   1.694  0.4590  0.0156  1.4935
 2839TIP3   OH230007   3.386   3.700   1.615  0.3366  0.3232 -0.4447
 2839TIP3    H130008   3.326   3.754   1.667 -0.1904  2.4157 -3.0019
 2839TIP3    H230009   3.330   3.652   1.555  1.0432 -0.3238 -0.6083
 2840TIP3   OH230010   3.246   5.338  15.967  0.0550  0.4298  0.1708
 2840TIP3    H130011   3.314   5.403  15.954  0.8069 -0.7823 -2.7416
 2840TIP3    H230012   3.293   5.255  15.975 -0.9929 -0.3119 -0.9658
 2841TIP3   OH230013   3.697   5.563  16.330  0.2192  0.2869  0.3756
 2841TIP3    H130014   3.672   5.644  16.375  0.4629  0.1746  0.7117
 2841TIP3    H230015   3.694   5.496  16.398  0.9986  0.1900  0.3179
 2842TIP3   OH230016   3.439   6.143   4.785 -0.1799 -0.1197  0.6092
 2842TIP3    H130017   3.503   6.147   4.713  0.1116 -2.8209  0.5856
 2842TIP3    H230018   3.490   6.114   4.860 -0.8873  0.5271  1.3536
 2843TIP3   OH230019   3.603   4.041   6.280 -0.6938 -0.1958  0.1895
 2843TIP3    H130020   3.512   4.070   6.288 -0.8248 -0.9812  2.1818
 2843TIP3    H230021   3.620   3.994   6.362  2.4333  2.5136  1.3201
 2844TIP3   OH230022   4.178   4.804   1.941 -1.0342 -0.4429 -0.2262
 2844TIP3    H130023   4.136   4.877   1.986 -0.3664 -0.3414  0.2574
 2844TIP3    H230024   4.110   4.769   1.884 -1.2952  0.7150 -0.6643
 2845TIP3   OH230025   2.761   4.311  11.819 -0.0559  0.5975 -0.7642
 2845TIP3    H130026   2.825   4.267  11.762 -0.9675  1.2621 -2.3896
 2845TIP3    H230027   2.734   4.388  11.768 -2.5020  0.0715 -0.3638
 2846TIP3   OH230028   5.473   3.171  14.789 -0.3236  0.2038  0.2764
 2846TIP3    H130029   5.453   3.234  14.858 -0.1580 -0.1488  0.6454
 2846TIP3    H230030   5.504   3.093  14.835 -1.1445 -0.3868 -0.1407
 2847TIP3   OH230031   3.866   0.115   3.952  0.2483  0.8161  0.3292
 2847TIP3    H130032   3.851   0.024   3.927 -1.9967  0.8432  1.3268
 2847TIP3    H230033   3.961   0.124   3.957  0.5324 -1.2000 -0.6659
 2848TIP3   OH230034   5.732   6.777  15.418  0.5668 -0.0324  0.1942
 2848TIP3    H130035   5.743   6.683  15.433  2.0549 -0.0725 -0.9613
 2848TIP3    H230036   5.692   6.783  15.331 -1.1189  0.3987  0.9499
 2849TIP3   OH230037   2.345   3.652  16.077 -0.7762 -0.4607  0.5660
 2849TIP3    H130038   2.305   3.621  16.158 -0.5517  0.2481  0.9547
 2849TIP3    H230039   2.439   3.643  16.092 -0.7417 -0.6930  0.2312
 2850TIP3   OH230040   3.384   0.751  14.096  0.2142 -0.1721  0.3897
 2850TIP3    H130041   3.418   0.803  14.023 -0.5625 -1.4798 -0.9698
 2850TIP3    H230042   3.408   0.661  14.074  1.5548 -0.4602  2.6892
 2851TIP3   OH230043   2.952   3.369   2.326 -0.3312 -0.2228  0.2627
 2851TIP3    H130044   2.894   3.322   2.267 -0.4846 -0.0680  0.2901
 2851TIP3    H230045   2.989   3.440   2.273  0.5465 -0.8721 -0.0122
 2852TIP3   OH230046   0.986   6.272  17.188  0.5817 -0.6559 -0.4329
 2852TIP3    H130047   1.037   6.353  17.187 -0.2561 -0.0128  2.2349
 2852TIP3    H230048   0.903   6.296  17.228 -0.0932 -2.6212 -0.5556
 2853TIP3   OH230049   5.026   6.688   1.272 -0.6950 -0.0045  0.0746
 2853TIP3    H130050   5.005   6.684   1.365  1.5487  3.1751  0.9215
 2853TIP3    H230051   5.055   6.600   1.250  0.8606 -0.3788  3.0585
 2854TIP3   OH230052   0.280   4.035  14.612  0.6477 -0.2367  0.2987
 2854TIP3    H130053   0.269   3.943  14.587  0.5523 -0.1460 -0.0034
 2854TIP3    H230054   0.305   4.032  14.704 -0.4288 -0.5200  0.6019
 2855TIP3   OH230055   3.184   0.777   5.040 -0.1837 -0.1317  0.3845
 2855TIP3    H130056   3.246   0.733   5.098 -0.1961 -1.1610 -0.3585
 2855TIP3    H230057   3.112   0.714   5.030 -1.4449  1.0919  1.3450
 2856TIP3   OH230058   6.523   6.752   5.123  0.4156 -0.2351 -0.6751
 2856TIP3    H130059   6.477   6.833   5.146 -2.0313 -1.9501  1.1240
 2856TIP3    H230060   6.469   6.713   5.054  1.3189 -0.5638 -1.2128
 2857TIP3   OH230061   1.151   0.416  16.778  0.0355 -0.4644  0.1910
 2857TIP3    H130062   1.202   0.480  16.829  1.0919 -0.9353 -0.2487
 2857TIP3    H230063   1.160   0.334  16.827 -1.4584 -0.2729  0.8484
 2858TIP3   OH230064   6.433   4.357   3.695  0.6561 -0.3976  0.6324
 2858TIP3    H130065   6.438   4.268   3.660 -0.7432 -0.5988  0.8901
 2858TIP3    H230066   6.520   4.373   3.732  1.8286 -0.5929 -1.8332
 2859TIP3   OH230067   5.718   1.228  12.795 -0.2750 -0.1852 -0.1940
 2859TIP3    H130068   5.747   1.179  12.717  1.4127  1.8167 -0.9283
 2859TIP3    H230069   5.651   1.288  12.762 -0.9658 -0.6568  0.3205
 2860TIP3   OH230070   2.880   1.476   5.700 -0.7414  0.6908  0.1481
 2860TIP3    H130071   2.836   1.545   5.750 -0.9320  0.4431  0.3252
 2860TIP3    H230072   2.870   1.398   5.753 -0.8086  0.4569 -0.2039
 2861TIP3   OH230073   6.417   1.363  13.599  0.7398 -0.2876 -0.2664
 2861TIP3    H130074   6.417   1.268  13.613  2.9632 -0.4550 -1.1006
 2861TIP3    H230075   6.324   1.388  13.604  0.2234 -2.2821  1.2588
 2862TIP3   OH230076   0.747   5.273   2.470 -0.0098 -0.1320  0.0687
 2862TIP3    H130077   0.755   5.366   2.447 -0.2907  0.8776  3.3882
 2862TIP3    H230078   0.697   5.274   2.552 -0.6214 -3.3108 -0.1602
 2863TIP3   OH230079   6.094   4.299  15.081 -0.1946  0.3962 -0.2276
 2863TIP3    H130080   6.138   4.281  15.164  0.6523  0.0308 -0.7434
 2863TIP3    H230081   6.155   4.268  15.014 -0.7833  0.8566 -0.9960
 2864TIP3   OH230082   3.973   1.725  13.959  0.2893 -0.2202  0.1925
 2864TIP3    H130083   3.998   1.727  13.867 -0.6893 -2.2643 -0.1820
 2864TIP3    H230084   4.037   1.665  13.999  0.0170 -0.2472  0.5896
 2865TIP3   OH230085   5.525   2.271  14.284 -0.0225 -0.4541 -0.1973
 2865TIP3    H130086   5.495   2.193  14.331 -1.5568  0.8104  1.0244
 2865TIP3    H230087   5.603   2.242  14.237 -0.0135 -2.4825  0.9577
 2866TIP3   OH230088   2.092   1.997   2.058 -0.3682 -0.5165 -0.4752
 2866TIP3    H130089   2.024   1.993   2.125  1.6493 -0.5922  1.6932
 2866TIP3    H230090   2.070   2.074   2.005 -0.9867  0.7150  1.4759
 2867TIP3   OH230091   1.591   6.518  15.373 -0.5360  0.0266  0.1822
 2867TIP3    H130092   1.560   6.481  15.456 -1.5015  0.6977  0.1481
 2867TIP3    H230093   1.677   6.553  15.393  0.6528 -2.5955  0.1004
 2868TIP3   OH230094   5.911   2.874   4.821  0.0117 -0.1887  1.1217
 2868TIP3    H130095   5.966   2.923   4.760 -0.0944  0.5276  1.5889
 2868TIP3    H230096   5.969   2.806   4.856 -0.1282 -1.1128 -0.3206
 2869TIP3   OH230097   6.649   2.079  16.235 -0.0003  0.1907  0.6168
 2869TIP3    H130098   6.569   2.118  16.200  0.6684  1.7432  0.7495
 2869TIP3    H230099   6.672   2.134  16.310  0.2323 -1.3054  1.6994
 2870TIP3   OH230100   5.082   4.725   6.011 -0.2910  0.6069  0.4773
 2870TIP3    H130101   5.054   4.806   5.968 -0.1984  0.2727 -0.2173
 2870TIP3    H230102   5.020   4.714   6.083  0.1849  1.7207  1.0871
 2871TIP3   OH230103   0.885   0.268  15.723 -0.3885  0.0977 -0.1912
 2871TIP3    H130104   0.965   0.271  15.775 -0.1989  1.1215 -0.5213
 2871TIP3    H230105   0.839   0.191  15.754  0.0033  0.3611  1.0913
 2872TIP3   OH230106   6.041   0.348   1.007  0.1512 -0.0252 -0.2163
 2872TIP3    H130107   6.133   0.370   0.995  0.3582 -1.1856 -0.8888
 2872TIP3    H230108   5.994   0.410   0.950  0.7020 -1.0500 -1.8725
 2873TIP3   OH230109   5.010   2.835   1.272 -0.3511  0.2982 -0.4782
 2873TIP3    H130110   4.982   2.767   1.211  2.4620 -1.2243 -0.2516
 2873TIP3    H230111   5.028   2.911   1.216 -1.3719  0.1608 -1.0234
 2874TIP3   OH230112   1.864   0.008   1.553  0.3925  0.3278  0.5603
 2874TIP3    H130113   1.903  -0.078   1.535  0.0098  0.2364  0.1484
 2874TIP3    H230114   1.773  -0.011   1.576  0.3786  0.6044  0.7446
 2875TIP3   OH230115   0.496   1.076  13.981  0.2069  1.3361  0.0946
 2875TIP3    H130116   0.519   1.107  13.893 -0.6272  1.4608 -0.0918
 2875TIP3    H230117   0.483   0.982  13.970 -0.8825  1.5002 -0.1479
 2876TIP3   OH230118   2.824   3.657   6.305  0.6215 -0.1900  0.5028
 2876TIP3    H130119   2.737   3.696   6.315 -0.3920 -1.7902 -1.3444
 2876TIP3    H230120   2.839   3.608   6.386  0.3980  1.1409  1.3702
 2877TIP3   OH230121   1.529   3.988  17.102 -0.7515  0.4735  0.1097
 2877TIP3    H130122   1.514   4.075  17.064  0.4763  0.0222 -1.5600
 2877TIP3    H230123   1.596   4.003  17.169  0.0008  0.7312 -0.6781
 2878TIP3   OH230124   3.539   6.218   2.276 -0.3041 -0.5458 -0.1492
 2878TIP3    H130125   3.497   6.228   2.362  1.1737  0.4639  0.5094
 2878TIP3    H230126   3.467   6.217   2.214 -1.5441 -3.1488  1.1998
 2879TIP3   OH230127   1.772   3.796  14.779 -0.0108 -0.1009  0.3714
 2879TIP3    H130128   1.693   3.845  14.804  0.6404  1.0812  0.1614
 2879TIP3    H230129   1.768   3.717  14.833 -1.6302 -0.3579 -0.0494
 2880TIP3   OH230130   4.445   4.146  14.115 -0.1662 -0.0811 -0.2389
 2880TIP3    H130131   4.428   4.134  14.208  2.1904 -0.1954  0.2364
 2880TIP3    H230132   4.500   4.071  14.091 -2.2219 -1.0744 -2.2148
 2881TIP3   OH230133   4.828   6.142  15.657 -0.4080 -0.4513  0.0423
 2881TIP3    H130134   4.801   6.054  15.634 -1.9176  0.4438 -1.9331
 2881TIP3    H230135   4.746   6.190  15.670  0.2961  1.0878 -0.8344
 2882TIP3   OH230136   5.603   4.295   2.327 -0.2076  0.0495  0.3328
 2882TIP3    H130137   5.645   4.280   2.412  0.0615  0.2723  0.2400
 2882TIP3    H230138   5.592   4.390   2.322  0.2026  0.0785 -0.0832
 2883TIP3   OH230139   5.465   0.270  15.100 -0.4610 -0.0064 -0.4085
 2883TIP3    H130140   5.414   0.348  15.079 -1.4117 -1.2584 -3.2985
 2883TIP3    H230141   5.404   0.214  15.148 -0.2047  0.4322  0.4554
 2884TIP3   OH230142   4.879   2.987   2.704  0.0596 -0.1691 -0.0368
 2884TIP3    H130143   4.892   3.032   2.787  1.7038  1.0192 -0.8836
 2884TIP3    H230144   4.949   2.921   2.701 -1.1321 -1.5074  0.3080
 2885TIP3   OH230145   2.733   6.790   3.757  0.5200 -0.0744 -0.1694
 2885TIP3    H130146   2.752   6.829   3.671 -1.6657 -0.5850 -0.9489
 2885TIP3    H230147   2.804   6.727   3.771  0.6721 -0.3102 -1.8206
 2886TIP3   OH230148   4.006   5.414   2.132  0.3390  0.4763  0.5510
 2886TIP3    H130149   3.964   5.413   2.218  1.3871 -1.8192  1.1271
 2886TIP3    H230150   3.962   5.344   2.083  1.1369  0.3596 -0.0231
 2887TIP3   OH230151   6.793   5.711  11.906 -0.0178 -0.3181  0.0670
 2887TIP3    H130152   6.866   5.678  11.958 -1.2901 -2.2783  0.6976
 2887TIP3    H230153   6.722   5.724  11.969 -0.7701 -0.2062 -0.7871
 2888TIP3   OH230154   2.782   4.645   6.319  0.9803 -0.5455  0.0286
 2888TIP3    H130155   2.787   4.561   6.274  2.5666 -0.9629  0.9136
 2888TIP3    H230156   2.715   4.633   6.387 -0.6728 -0.2324 -1.4777
 2889TIP3   OH230157   6.423   5.800  11.868  0.4680 -0.4025  0.2937
 2889TIP3    H130158   6.339   5.755  11.865  0.2511 -0.0558  0.9431
 2889TIP3    H230159   6.473   5.755  11.936  0.5129 -0.1136  0.4553
 2890TIP3   OH230160   5.387   5.889  13.854  0.1928  0.4212  0.2187
 2890TIP3    H130161   5.476   5.918  13.835  0.8142 -1.0811  0.6931
 2890TIP3    H230162   5.338   5.970  13.867  1.6537  1.2734  0.6620
 2891TIP3   OH230163   4.320   6.599  15.536  0.3184  0.2951  0.0394
 2891TIP3    H130164   4.350   6.675  15.485  2.6507 -0.5242  0.0775
 2891TIP3    H230165   4.256   6.556  15.480  1.6779  0.2772 -1.5526
 2892TIP3   OH230166   6.491   3.478  11.278 -0.5175 -0.2377 -0.8837
 2892TIP3    H130167   6.473   3.429  11.198 -0.3425  0.2645 -1.2330
 2892TIP3    H230168   6.463   3.568  11.259 -0.6705 -0.1573 -0.3104
 2893TIP3   OH230169   3.540   0.142   2.483  0.1752  0.2492 -0.1445
 2893TIP3    H130170   3.594   0.144   2.404  1.1291  0.0604  0.4904
 2893TIP3    H230171   3.546   0.052   2.514 -0.7149  0.1626 -0.1932
 2894TIP3   OH230172   1.635   5.170   0.957  0.2549 -0.2451  0.4949
 2894TIP3    H130173   1.598   5.115   1.027 -1.7914  1.1948  0.6263
 2894TIP3    H230174   1.634   5.259   0.994  0.8404  0.2834 -0.7219
 2895TIP3   OH230175   0.709   3.902   4.659  0.3329 -0.8168 -0.3405
 2895TIP3    H130176   0.671   3.983   4.625 -0.2786 -1.4067 -1.0944
 2895TIP3    H230177   0.669   3.891   4.745 -1.0323 -1.2688 -0.9909
 2896TIP3   OH230178   3.232   0.039   3.042  0.4560  0.2982  0.3626
 2896TIP3    H130179   3.290  -0.023   3.086 -1.2376 -2.3267 -0.8299
 2896TIP3    H230180   3.282   0.069   2.967  1.5806  1.0179  1.3665
 2897TIP3   OH230181   6.078   2.270   4.333  0.0935 -0.3816 -0.2374
 2897TIP3    H130182   6.039   2.246   4.417 -0.2189  0.3497 -0.1601
 2897TIP3    H230183   6.172   2.278   4.351  0.4062 -2.7181 -0.5528
 2898TIP3   OH230184   1.933   0.061  10.310 -0.2516 -0.1255  0.3916
 2898TIP3    H130185   1.843   0.087  10.329 -0.1278  0.0731  0.7037
 2898TIP3    H230186   1.935  -0.034  10.325 -0.7025 -0.3307 -0.7406
 2899TIP3   OH230187   0.904   4.341  12.764  0.0625 -0.4377 -0.1724
 2899TIP3    H130188   0.998   4.352  12.778  0.1605 -0.9394 -0.4272
 2899TIP3    H230189   0.866   4.351  12.851  0.3252 -0.0022 -0.1035
 2900TIP3   OH230190   0.022   2.338  16.097 -0.4160  0.0755 -0.2319
 2900TIP3    H130191  -0.004   2.383  16.178  0.6024  0.7004 -0.2426
 2900TIP3    H230192   0.088   2.275  16.124 -0.6938 -0.3233 -0.4614
 2901TIP3   OH230193   1.633   5.088  11.111 -0.5496 -0.3389 -0.7956
 2901TIP3    H130194   1.703   5.141  11.149 -2.3993  1.6443  0.0791
 2901TIP3    H230195   1.672   5.051  11.031  0.8095  2.6517 -1.6867
 2902TIP3   OH230196   0.633   2.532  13.970  0.0051 -0.1870 -0.1727
 2902TIP3    H130197   0.716   2.490  13.947 -0.5792 -1.3037 -0.2836
 2902TIP3    H230198   0.648   2.568  14.058  0.0509 -1.9685  0.5829
 2903TIP3   OH230199   2.302   0.279   5.516  0.0819 -0.6819 -0.4244
 2903TIP3    H130200   2.223   0.224   5.520 -1.1044  0.9517 -0.1874
 2903TIP3    H230201   2.268   0.367   5.500  1.8530  0.1258  0.1015
 2904TIP3   OH230202   0.079   1.946  13.121 -0.1251  0.2591  0.0735
 2904TIP3    H130203  -0.001   1.995  13.143 -1.7467 -0.6867 -3.1374
 2904TIP3    H230204   0.058   1.855  13.140  0.0563 -0.0206 -0.9736
 2905TIP3   OH230205   0.922   0.628  10.465  0.5870 -0.0617  0.3578
 2905TIP3    H130206   0.840   0.587  10.493  0.7074 -0.1839  0.5320
 2905TIP3    H230207   0.981   0.554  10.450  0.0070 -0.1618 -1.9518
 2906TIP3   OH230208   0.948   0.171   0.422  0.1701 -0.0030 -0.0730
 2906TIP3    H130209   0.981   0.255   0.391  1.2002  0.3702  1.8684
 2906TIP3    H230210   1.004   0.149   0.497 -1.2693 -1.5050  0.6309
 2907TIP3   OH230211   3.528   3.392   5.355 -0.1336  0.4492 -0.1340
 2907TIP3    H130212   3.531   3.481   5.390 -0.3656  0.8187 -1.0441
 2907TIP3    H230213   3.442   3.359   5.380 -0.2241  0.6373 -0.2007
 2908TIP3   OH230214   3.174   6.533   0.631 -0.1216 -0.1860  0.1681
 2908TIP3    H130215   3.269   6.525   0.636 -0.0803 -0.1328 -0.4563
 2908TIP3    H230216   3.158   6.572   0.546 -0.5529  2.5178  1.3663
 2909TIP3   OH230217   2.451   3.491   2.700  0.6575 -0.1226  1.0256
 2909TIP3    H130218   2.536   3.531   2.715  0.0298  1.2479  1.1174
 2909TIP3    H230219   2.395   3.564   2.674 -0.0683 -1.2572 -0.7720
 2910TIP3   OH230220   4.552   1.523   2.846  0.2337  0.1744  0.1120
 2910TIP3    H130221   4.640   1.508   2.812 -0.6126 -1.2406 -1.6093
 2910TIP3    H230222   4.514   1.588   2.787  0.1066  0.7853  0.8533
 2911TIP3   OH230223   3.681   5.855   0.127  0.5443  0.2319  0.4779
 2911TIP3    H130224   3.633   5.874   0.047 -0.1944  0.0852  0.8796
 2911TIP3    H230225   3.721   5.938   0.152  2.1233 -0.0610 -0.9069
 2912TIP3   OH230226   4.724   1.638   6.292 -0.4726  0.3564  0.6500
 2912TIP3    H130227   4.767   1.572   6.347 -1.5407 -0.4303  0.5840
 2912TIP3    H230228   4.632   1.611   6.291 -0.6175  0.8378 -0.8323
 2913TIP3   OH230229   6.543   2.782  12.054  0.4079 -0.3161 -0.1128
 2913TIP3    H130230   6.465   2.745  12.013 -0.0407  1.0998 -0.5854
 2913TIP3    H230231   6.611   2.776  11.987  0.3093 -0.1692 -0.2246
 2914TIP3   OH230232   5.065   0.724  12.029 -0.0497  0.5718  0.2618
 2914TIP3    H130233   5.137   0.682  12.076 -1.1382 -0.3300  1.1785
 2914TIP3    H230234   4.999   0.655  12.019 -0.5850  1.2269 -1.0499
 2915TIP3   OH230235   3.230   5.880  15.213  0.5552  0.2709 -0.0469
 2915TIP3    H130236   3.150   5.844  15.174  0.0445  1.1222  0.2010
 2915TIP3    H230237   3.266   5.807  15.264  0.0273 -0.1646 -0.2852
 2916TIP3   OH230238   2.579   0.607  14.438 -0.2469 -0.0434  0.1432
 2916TIP3    H130239   2.503   0.566  14.480 -2.2943  0.8803 -2.3526
 2916TIP3    H230240   2.654   0.574  14.487 -2.0565 -2.9860  1.2187
 2917TIP3   OH230241   4.285   1.581   2.445  0.5479  0.0831 -0.6175
 2917TIP3    H130242   4.291   1.530   2.526 -0.9570 -0.2126 -0.6580
 2917TIP3    H230243   4.351   1.543   2.388  1.0122 -0.3050  0.1596
 2918TIP3   OH230244   3.301   5.454  16.960  0.4622 -0.6054 -0.1894
 2918TIP3    H130245   3.235   5.499  17.013 -0.0664 -0.5030 -0.9178
 2918TIP3    H230246   3.348   5.398  17.022 -0.4816 -0.8752  0.3007
 2919TIP3   OH230247   3.379   3.057  16.942 -0.1848  0.2761 -0.3771
 2919TIP3    H130248   3.444   2.999  16.982  0.8825  0.4887 -1.7202
 2919TIP3    H230249   3.319   2.998  16.897  0.4209  0.1492 -1.0456
 2920TIP3   OH230250   1.874   5.927   3.730 -0.3993  0.8246  0.2270
 2920TIP3    H130251   1.851   5.924   3.823 -0.2013  1.0310  0.2853
 2920TIP3    H230252   1.933   5.853   3.718  0.0819  1.1704  0.4122
 2921TIP3   OH230253   2.327   4.579   3.682 -0.4429 -0.2118 -0.5928
 2921TIP3    H130254   2.253   4.518   3.689 -0.1168 -0.8024 -1.9149
 2921TIP3    H230255   2.379   4.544   3.609  1.0167  0.3262  0.1634
 2922TIP3   OH230256   0.636   2.029  12.718  0.4474 -0.6368 -0.1743
 2922TIP3    H130257   0.653   2.120  12.691  0.4450 -0.9114 -1.1511
 2922TIP3    H230258   0.696   1.977  12.664 -0.9651 -1.3572 -1.1060
 2923TIP3   OH230259   1.110   4.726  16.786  0.4898 -0.0583 -0.8728
 2923TIP3    H130260   1.038   4.760  16.734 -1.1139 -1.1858  0.4989
 2923TIP3    H230261   1.114   4.632  16.764 -0.1234 -0.5209  0.8562
 2924TIP3   OH230262   4.348   5.855   1.380 -0.1904 -0.3184 -0.4620
 2924TIP3    H130263   4.340   5.950   1.390 -0.3565 -0.0929 -2.4882
 2924TIP3    H230264   4.320   5.838   1.291 -1.2233 -2.4186  0.2036
 2925TIP3   OH230265   3.354   4.257  11.910  0.1311  0.1596  0.1032
 2925TIP3    H130266   3.429   4.312  11.933 -0.6916  0.1547  3.3604
 2925TIP3    H230267   3.279   4.303  11.947 -1.2458 -0.7482 -1.4608
 2926TIP3   OH230268   5.361   2.794   2.818 -0.1835 -0.2998  0.2621
 2926TIP3    H130269   5.293   2.728   2.834  0.4650 -0.6483  1.7404
 2926TIP3    H230270   5.441   2.754   2.852  0.7677  0.1648 -1.3018
 2927TIP3   OH230271   0.573   6.816  13.216 -0.3965 -0.1276 -0.3085
 2927TIP3    H130272   0.666   6.796  13.204 -0.1796  0.7877 -0.2487
 2927TIP3    H230273   0.527   6.742  13.177  0.3580 -1.1204  0.6273
 2928TIP3   OH230274   1.356   3.739   4.809  0.3451  0.0874 -0.4134
 2928TIP3    H130275   1.283   3.762   4.751  1.4027 -1.0019 -2.2726
 2928TIP3    H230276   1.414   3.815   4.807  0.4308  0.0150 -0.9125
 2929TIP3   OH230277   1.149   2.638  14.258 -0.4435  0.4738 -0.1716
 2929TIP3    H130278   1.153   2.584  14.337  2.7207  0.2288 -0.3533
 2929TIP3    H230279   1.185   2.722  14.284 -1.5045  1.1480 -0.8362
 2930TIP3   OH230280   3.849   4.889  16.333 -0.0457  0.0766  0.0255
 2930TIP3    H130281   3.910   4.898  16.406 -0.1544  0.6597  0.0495
 2930TIP3    H230282   3.857   4.797  16.306  1.3321  0.2891 -0.3851
 2931TIP3   OH230283   2.433   6.215  10.416  0.4892  0.0595 -0.1850
 2931TIP3    H130284   2.407   6.128  10.445 -1.3025  1.4000  2.7129
 2931TIP3    H230285   2.350   6.259  10.395  1.4107  0.8557 -2.4321
 2932TIP3   OH230286   3.428   0.834  13.379  0.4412 -0.5501 -0.1997
 2932TIP3    H130287   3.494   0.886  13.332  0.4435 -1.0632 -0.7863
 2932TIP3    H230288   3.345   0.878  13.361  0.1877 -1.7611 -2.2516
 2933TIP3   OH230289   1.406   3.688   5.779 -0.4046 -0.1440 -0.1535
 2933TIP3    H130290   1.501   3.690   5.771 -0.3688  1.5449  0.3338
 2933TIP3    H230291   1.390   3.645   5.863  0.1007  2.3895  1.3378
 2934TIP3   OH230292   1.344   6.566  12.636 -0.2425 -0.5461  0.2081
 2934TIP3    H130293   1.284   6.491  12.630 -2.1932  0.9617 -0.6980
 2934TIP3    H230294   1.386   6.569  12.550  1.0468 -1.4898  0.7793
 2935TIP3   OH230295   3.581   5.247  10.665 -0.2225  0.1579  0.4082
 2935TIP3    H130296   3.665   5.236  10.710 -0.3511  1.0569  0.8959
 2935TIP3    H230297   3.602   5.291  10.583  0.1340 -2.3312 -0.9450
 2936TIP3   OH230298   3.245   5.698  16.375  0.3067  0.2908 -0.0247
 2936TIP3    H130299   3.211   5.763  16.313 -1.8353 -0.3923  0.3543
 2936TIP3    H230300   3.174   5.636  16.386  1.0580 -0.2745  2.2153
 2937TIP3   OH230301   2.774   2.650  14.850 -0.1854 -0.1453 -0.0093
 2937TIP3    H130302   2.851   2.685  14.896 -1.4637  0.0782  2.0642
 2937TIP3    H230303   2.700   2.699  14.885 -1.3391 -0.5464 -1.7615
 2938TIP3   OH230304   0.078   4.173  15.978  0.1717 -0.1072 -0.3631
 2938TIP3    H130305   0.102   4.231  16.050 -0.3823 -1.7181  1.2004
 2938TIP3    H230306  -0.018   4.174  15.977  0.1713  0.3043 -1.4567
 2939TIP3   OH230307   6.026   4.674   5.946  0.4162 -0.5198  0.0315
 2939TIP3    H130308   5.932   4.668   5.963  0.3803  0.0229  0.0541
 2939TIP3    H230309   6.055   4.748   6.000  1.0634 -1.3769  0.8827
 2940TIP3   OH230310   3.226   4.241  15.065 -0.0974 -0.1739 -0.1674
 2940TIP3    H130311   3.227   4.263  14.971  0.4675  0.5686 -0.0027
 2940TIP3    H230312   3.222   4.326  15.109  0.5461 -0.4756  0.4929
 2941TIP3   OH230313   4.667   3.002   1.400 -0.1875 -0.1632 -0.3578
 2941TIP3    H130314   4.615   3.061   1.455 -0.4743 -1.3073  0.6253
 2941TIP3    H230315   4.623   2.918   1.406  1.4450 -1.0271  0.0390
 2942TIP3   OH230316   3.891   2.359  12.981 -0.1071  0.1577 -0.0026
 2942TIP3    H130317   3.919   2.278  12.937 -0.2844 -1.4398  2.6033
 2942TIP3    H230318   3.806   2.379  12.943  0.4105 -0.2443 -1.4444
 2943TIP3   OH230319   5.825   4.350  15.732 -0.3641 -0.3066 -0.1113
 2943TIP3    H130320   5.735   4.353  15.763  0.2735  1.9852  1.7482
 2943TIP3    H230321   5.875   4.318  15.807  0.6396  0.8256 -0.2721
 2944TIP3   OH230322   2.671   4.107  16.925 -0.1236 -0.0283 -0.5770
 2944TIP3    H130323   2.716   4.072  17.002 -0.0499  2.7405  0.7468
 2944TIP3    H230324   2.626   4.031  16.888  3.3150 -2.3772 -0.4164
 2945TIP3   OH230325   3.887   2.646  11.524  0.1907  0.0186  0.0686
 2945TIP3    H130326   3.893   2.551  11.535 -1.5213 -0.2595 -0.9762
 2945TIP3    H230327   3.927   2.662  11.438  2.1168  0.5184  1.0106
 2946TIP3   OH230328   4.510   0.364  10.999  0.4371  0.0414  0.5419
 2946TIP3    H130329   4.601   0.370  11.029  0.9129 -1.1680 -0.5791
 2946TIP3    H230330   4.515   0.366  10.904 -0.9626  2.6904  0.4262
 2947TIP3   OH230331   2.538   6.728  13.345 -0.4888  0.1386  0.2920
 2947TIP3    H130332   2.476   6.800  13.359 -1.0543 -0.1017 -0.9318
 2947TIP3    H230333   2.506   6.658  13.402 -0.8250  0.3172  0.3266
 2948TIP3   OH230334   0.791   4.173   0.792  0.2385 -0.7096  0.9647
 2948TIP3    H130335   0.773   4.267   0.793  1.2431 -0.5127  1.3144
 2948TIP3    H230336   0.708   4.133   0.820 -0.6036 -0.0175 -0.4317
 2949TIP3   OH230337   4.319   5.471  11.059 -0.0014  0.4949 -0.0715
 2949TIP3    H130338   4.252   5.537  11.075 -1.0493 -0.2076 -1.4007
 2949TIP3    H230339   4.387   5.490  11.124 -0.7358  2.2201  0.2476
 2950TIP3   OH230340   4.032   1.201   1.434 -0.4624  0.0446 -0.2230
 2950TIP3    H130341   4.030   1.256   1.356  0.2133  0.0254 -0.2632
 2950TIP3    H230342   4.118   1.159   1.431  0.6506  1.9810  1.8513
 2951TIP3   OH230343   1.646   2.494  11.685 -0.1386  0.1044  0.2038
 2951TIP3    H130344   1.664   2.581  11.650 -0.2089  0.2042  0.4112
 2951TIP3    H230345   1.678   2.498  11.776 -0.3751 -0.0039  0.2924
 2952TIP3   OH230346   6.292   6.502   1.940 -0.5188 -0.2319 -0.3797
 2952TIP3    H130347   6.377   6.464   1.914 -0.5853 -0.3098 -0.4853
 2952TIP3    H230348   6.242   6.427   1.973 -0.2210 -0.0402  0.5332
 2953TIP3   OH230349   3.181   1.968  14.612 -0.2316 -0.5221  0.4793
 2953TIP3    H130350   3.196   1.973  14.517  1.0575 -1.7969  0.5764
 2953TIP3    H230351   3.120   1.895  14.622 -0.3234 -0.4223  0.6521
 2954TIP3   OH230352   1.735   4.782  16.767 -0.2500 -0.1710  0.2273
 2954TIP3    H130353   1.765   4.771  16.677  0.0551  0.9426  0.1799
 2954TIP3    H230354   1.640   4.768  16.763 -0.0604 -1.5363 -0.0018
 2955TIP3   OH230355   6.165   5.877   4.212  0.3425 -0.4537 -0.3550
 2955TIP3    H130356   6.224   5.950   4.231  0.3535 -0.4486 -0.4079
 2955TIP3    H230357   6.077   5.914   4.222  0.3366 -0.1490 -1.4137
 2956TIP3   OH230358   1.052   6.326   1.526  0.0731  0.2055  0.1859
 2956TIP3    H130359   1.019   6.343   1.438  1.7175 -0.1344 -0.5161
 2956TIP3    H230360   1.139   6.288   1.513  0.3963  0.2586  1.9587
 2957TIP3   OH230361   3.539   3.780   1.262  0.1098 -0.2022 -0.0406
 2957TIP3    H130362   3.596   3.704   1.256 -1.8225 -1.6993 -0.4283
 2957TIP3    H230363   3.519   3.788   1.356  0.6128  0.0802  0.0457
 2958TIP3   OH230364   1.751   1.585  15.923  0.2444 -0.0381 -0.2800
 2958TIP3    H130365   1.777   1.649  15.857 -1.5499 -1.0006 -2.0010
 2958TIP3    H230366   1.694   1.524  15.877  1.0378 -2.3041  1.5505
 2959TIP3   OH230367   2.209   2.874   4.669 -0.7084 -0.0945 -0.1681
 2959TIP3    H130368   2.154   2.797   4.651  0.0991 -0.7555  0.1249
 2959TIP3    H230369   2.291   2.838   4.701 -0.2867  0.9003 -0.0850
 2960TIP3   OH230370   3.731   4.522   2.459 -0.5088 -0.6567  0.5189
 2960TIP3    H130371   3.672   4.597   2.457  0.2743 -0.0142 -1.2706
 2960TIP3    H230372   3.812   4.554   2.417  0.7987 -1.7548  2.0661
 2961TIP3   OH230373   0.487   0.904   3.361 -0.2271  0.2868  0.5357
 2961TIP3    H130374   0.409   0.849   3.358 -1.4263  1.8649  0.7952
 2961TIP3    H230375   0.501   0.920   3.455  0.6992 -0.3411  0.5174
 2962TIP3   OH230376   4.770   3.383   2.470 -0.1119  0.0580  0.1123
 2962TIP3    H130377   4.842   3.446   2.480  0.9188 -0.9138 -0.8303
 2962TIP3    H230378   4.813   3.298   2.471 -1.2783 -0.5528 -0.3622
 2963TIP3   OH230379   6.116   3.539  16.846 -1.0165  0.2114  0.0759
 2963TIP3    H130380   6.132   3.528  16.753  1.0203 -1.0439  0.5090
 2963TIP3    H230381   6.196   3.509  16.888 -2.3395 -0.5114  2.2876
 2964TIP3   OH230382   0.775   3.772  12.748  0.2358  0.2543 -0.6866
 2964TIP3    H130383   0.725   3.720  12.811  0.7564 -0.1551 -0.6083
 2964TIP3    H230384   0.838   3.820  12.801  0.4639  0.1529 -0.8679
 2965TIP3   OH230385   4.980   4.452  15.796 -0.0124  0.6483 -0.4734
 2965TIP3    H130386   4.908   4.416  15.743 -0.6573  1.9360 -0.5001
 2965TIP3    H230387   4.936   4.504  15.864  0.8908  2.3064 -1.1134
 2966TIP3   OH230388   2.994   1.717  15.384 -0.2085 -0.2475 -0.3922
 2966TIP3    H130389   3.077   1.701  15.339  0.4347  1.9704 -0.1077
 2966TIP3    H230390   2.956   1.630  15.395  2.0795 -1.3420 -0.4908
 2967TIP3   OH230391   5.206   0.940   2.953 -0.1047  0.3828  0.2523
 2967TIP3    H130392   5.172   0.926   2.864 -1.7545 -0.5396  0.9823
 2967TIP3    H230393   5.210   0.852   2.990  2.2098  0.5650  0.5633
 2968TIP3   OH230394   1.287   3.795   5.547 -0.2594  0.4344 -0.0243
 2968TIP3    H130395   1.342   3.767   5.621  0.3201 -0.2429 -0.6867
 2968TIP3    H230396   1.316   3.885   5.528  0.7777  0.0314 -0.4693
 2969TIP3   OH230397   3.516   1.575   5.463 -0.6646 -0.1007  0.7881
 2969TIP3    H130398   3.471   1.509   5.516 -1.9193 -0.5055 -0.6913
 2969TIP3    H230399   3.446   1.621   5.417  0.3511 -0.8904 -1.7664
 2970TIP3   OH230400   6.554   4.872   3.090  0.2100  0.1162  0.6289
 2970TIP3    H130401   6.533   4.953   3.044 -1.0243  0.1763  1.2642
 2970TIP3    H230402   6.636   4.842   3.050 -0.3053  0.6727 -0.9245
 2971TIP3   OH230403   2.883   0.482  11.370  0.9617 -0.4923  0.0291
 2971TIP3    H130404   2.795   0.461  11.401  1.0319  0.6043  1.0220
 2971TIP3    H230405   2.908   0.406  11.317 -0.5717 -0.8240 -0.2801
 2972TIP3   OH230406   3.388   2.496   0.527  0.1061  0.5005 -0.1510
 2972TIP3    H130407   3.315   2.456   0.575  0.7218 -1.4862 -0.7717
 2972TIP3    H230408   3.345   2.550   0.460 -0.9218 -1.7920 -1.4776
 2973TIP3   OH230409   5.550   2.008   3.142  0.3776 -0.3363 -0.6179
 2973TIP3    H130410   5.639   1.999   3.107  1.1227  0.0625  1.0576
 2973TIP3    H230411   5.530   2.102   3.132  0.2063 -0.3941 -0.8308
 2974TIP3   OH230412   5.890   3.535   3.721  0.1175  0.1425  0.7217
 2974TIP3    H130413   5.861   3.461   3.775  1.2574  0.3884  1.6987
 2974TIP3    H230414   5.977   3.509   3.689  0.4228  0.9634  0.8800
 2975TIP3   OH230415   1.140   5.013   2.118 -0.0111 -0.8607  0.3294
 2975TIP3    H130416   1.050   4.990   2.094 -0.2240  0.7117 -0.4948
 2975TIP3    H230417   1.140   5.109   2.125  2.0306 -0.6234 -1.6568
 2976TIP3   OH230418   2.504   3.408   0.511 -0.3397  0.3217 -0.5739
 2976TIP3    H130419   2.439   3.474   0.534 -0.9330  0.1162 -1.5768
 2976TIP3    H230420   2.567   3.454   0.456  0.3708  0.5160  0.3822
 2977TIP3   OH230421   5.369   3.324   0.432  0.4363 -0.1105 -0.1641
 2977TIP3    H130422   5.359   3.361   0.520  1.4579  2.2399 -0.9388
 2977TIP3    H230423   5.372   3.230   0.445  0.2729  0.1626  2.2788
 2978TIP3   OH230424   3.692   1.185   2.447 -0.0098 -0.1466  0.1250
 2978TIP3    H130425   3.615   1.199   2.501 -1.2260 -1.0452 -1.2950
 2978TIP3    H230426   3.741   1.116   2.492 -0.6752 -0.4456  0.4076
 2979TIP3   OH230427   1.423   2.554  13.346 -0.4015 -0.2333  0.2885
 2979TIP3    H130428   1.480   2.626  13.318 -0.7731  0.5954  1.5553
 2979TIP3    H230429   1.457   2.477  13.300  0.3748  0.6390 -0.6416
 2980TIP3   OH230430   0.537   4.225  15.272  0.5508 -0.2100  0.7362
 2980TIP3    H130431   0.483   4.210  15.195 -0.1180  2.3503  0.6392
 2980TIP3    H230432   0.626   4.202  15.243  0.1471 -0.3823 -0.4138
 2981TIP3   OH230433   0.477   6.304  15.880 -0.1647  0.3225 -0.0709
 2981TIP3    H130434   0.462   6.221  15.835  1.1256  0.5809 -1.0462
 2981TIP3    H230435   0.390   6.342  15.891 -0.5120  0.6327 -3.1374
 2982TIP3   OH230436   4.693   1.439  14.010 -0.2689 -0.2667  0.5069
 2982TIP3    H130437   4.656   1.353  13.991 -1.2418  0.3380 -0.4344
 2982TIP3    H230438   4.787   1.428  13.996 -0.1219 -1.6097  2.1051
 2983TIP3   OH230439   6.376   4.553  12.222 -0.9355  0.3633  0.0291
 2983TIP3    H130440   6.448   4.614  12.239  1.0208 -1.9635  0.6648
 2983TIP3    H230441   6.299   4.597  12.258  0.5701  1.9123  1.5895
 2984TIP3   OH230442   4.627   3.846  13.665  0.5945  0.1223 -0.0655
 2984TIP3    H130443   4.559   3.778  13.670  1.4145 -0.6864  0.3390
 2984TIP3    H230444   4.589   3.920  13.712  0.1291 -0.4394  0.4737
 2985TIP3   OH230445   1.195   1.278   2.717  0.0528  0.0744  0.2823
 2985TIP3    H130446   1.163   1.269   2.807 -0.5247  2.0816  0.3299
 2985TIP3    H230447   1.253   1.203   2.705 -2.3144 -2.0774  1.2030
 2986TIP3   OH230448   1.376   5.241   5.880 -0.0644  0.3198  0.2313
 2986TIP3    H130449   1.373   5.336   5.875  0.4303  0.3677  0.6605
 2986TIP3    H230450   1.325   5.219   5.958  0.5682  0.3057  0.6530
 2987TIP3   OH230451   6.100   1.965   4.999 -0.0619 -0.5205  0.4316
 2987TIP3    H130452   6.139   2.020   4.931  0.0816 -1.0828  0.0524
 2987TIP3    H230453   6.010   1.996   5.007 -0.2868 -0.9077 -0.5134
 2988TIP3   OH230454   1.161   5.215  13.517 -0.1708 -0.8589 -0.3644
 2988TIP3    H130455   1.256   5.206  13.511 -0.0556 -1.5310  1.5916
 2988TIP3    H230456   1.144   5.307  13.497  1.0385 -0.4219  0.4892
 2989TIP3   OH230457   1.989   0.801  13.295  0.3350 -0.2285 -0.1854
 2989TIP3    H130458   2.009   0.875  13.352  0.0626 -0.6999  0.5394
 2989TIP3    H230459   2.069   0.748  13.296  0.4182 -0.1099 -0.4488
 2990TIP3   OH230460   3.251   3.244   3.168 -0.0279  0.2325  0.3063
 2990TIP3    H130461   3.250   3.184   3.243 -0.1927  1.6210  1.4657
 2990TIP3    H230462   3.209   3.324   3.201 -0.3894  0.7824 -1.3735
 2991TIP3   OH230463   3.060   6.713  10.240  0.5176 -0.1501  0.1418
 2991TIP3    H130464   3.145   6.674  10.225  0.1164 -0.8909 -0.2337
 2991TIP3    H230465   2.998   6.640  10.239 -0.3194  0.5293 -1.1511
 2992TIP3   OH230466   2.419   0.041  12.204 -0.4461 -0.2143 -0.3231
 2992TIP3    H130467   2.463   0.018  12.122 -1.0045  1.8730 -1.2648
 2992TIP3    H230468   2.483   0.095  12.251 -0.5712 -0.4381  0.1152
 2993TIP3   OH230469   5.379   4.627  17.175 -0.5745 -0.3027 -0.5330
 2993TIP3    H130470   5.396   4.535  17.154  0.7207 -0.3286  0.5139
 2993TIP3    H230471   5.337   4.625  17.261 -0.4120  0.0883 -0.4420
 2994TIP3   OH230472   4.661   2.337   0.371  0.0764  0.7895 -0.0360
 2994TIP3    H130473   4.716   2.260   0.386  0.7147  1.0949 -0.7696
 2994TIP3    H230474   4.578   2.316   0.416  0.5025 -0.0014  0.4083
 2995TIP3   OH230475   1.742   6.507   5.060 -1.1309  0.2128 -0.2414
 2995TIP3    H130476   1.732   6.553   4.977 -1.2008  0.4712 -0.0896
 2995TIP3    H230477   1.818   6.546   5.101 -0.4991 -0.5855 -0.6211
 2996TIP3   OH230478   5.979   2.245  15.085 -0.6220 -0.0197 -0.3941
 2996TIP3    H130479   6.021   2.213  15.005 -1.8057 -0.4619 -0.8646
 2996TIP3    H230480   6.027   2.325  15.108  0.0677 -0.1818 -1.2402
 2997TIP3   OH230481   4.879   1.009   5.719  0.4499 -0.3188 -0.5159
 2997TIP3    H130482   4.858   0.941   5.655 -0.3573  0.0356 -0.6264
 2997TIP3    H230483   4.974   1.021   5.710  0.3850 -0.4659 -1.4453
 2998TIP3   OH230484   2.812   4.320   2.167 -0.0226 -0.1476  0.2228
 2998TIP3    H130485   2.811   4.308   2.262 -0.2274  2.0992  0.5635
 2998TIP3    H230486   2.834   4.234   2.132  0.3137 -0.9677  2.3114
 2999TIP3   OH230487   3.248   2.599   5.263  0.5710 -0.1156 -0.6137
 2999TIP3    H130488   3.268   2.689   5.237  0.1615 -0.0771 -0.7949
 2999TIP3    H230489   3.316   2.546   5.221  0.7306  0.0929 -0.6189
 3000TIP3   OH230490   0.519   6.154  10.808  0.0218  0.1499  0.5398
 3000TIP3    H130491   0.576   6.198  10.745  0.3295 -0.2597  0.5330
 3000TIP3    H230492   0.560   6.069  10.823  0.1894  0.4072  1.6305
 3001TIP3   OH230493   6.026   4.709  16.029  0.0809 -0.0446 -0.1032
 3001TIP3    H130494   6.061   4.747  15.948  0.2881  0.7781  0.3607
 3001TIP3    H230495   5.937   4.682  16.006 -0.3530  1.4364 -0.2560
 3002TIP3   OH230496   0.667   3.744  14.338  0.3549 -0.1122 -0.0499
 3002TIP3    H130497   0.673   3.711  14.248 -1.0253 -1.0162  0.1531
 3002TIP3    H230498   0.659   3.665  14.392  0.5683  0.4400  0.8161
 3003TIP3   OH230499   4.446   6.154  14.487 -0.1810 -0.1411  0.7134
 3003TIP3    H130500   4.390   6.204  14.546 -0.7491 -0.8315  0.7729
 3003TIP3    H230501   4.535   6.174  14.516 -0.4092  0.4838  1.0126
 3004TIP3   OH230502   1.992   4.608  13.561  0.1279 -0.1217  0.5921
 3004TIP3    H130503   2.024   4.672  13.624  0.8178 -0.7155  0.8485
 3004TIP3    H230504   2.037   4.527  13.583  1.1098 -0.1372 -1.2278
 3005TIP3   OH230505   4.933   6.221  11.610 -0.0149 -0.2031  0.5442
 3005TIP3    H130506   4.995   6.178  11.551 -1.4844 -1.2890 -0.2457
 3005TIP3    H230507   4.860   6.161  11.618 -0.5372  0.5798  2.3230
 3006TIP3   OH230508   1.515   5.932  11.783 -0.2196  0.2260  0.2154
 3006TIP3    H130509   1.581   5.864  11.773  0.3669  0.5543  1.5837
 3006TIP3    H230510   1.432   5.886  11.780  0.0896 -0.3007 -0.7036
 3007TIP3   OH230511   2.685   0.697  16.425 -0.2092 -0.2227 -0.6953
 3007TIP3    H130512   2.634   0.776  16.408  0.1022  0.0535 -0.3635
 3007TIP3    H230513   2.711   0.704  16.517  0.8483 -0.1108 -0.9901
 3008TIP3   OH230514   2.322   5.819  14.318 -0.4072  0.2200 -0.0135
 3008TIP3    H130515   2.284   5.877  14.252 -1.7403  0.1773  0.7030
 3008TIP3    H230516   2.368   5.878  14.378 -1.3503  0.5004  0.4422
 3009TIP3   OH230517   0.449   6.608  13.121 -0.1467 -0.0282  0.0910
 3009TIP3    H130518   0.502   6.529  13.134  1.3900  0.7911 -0.7736
 3009TIP3    H230519   0.369   6.576  13.078 -0.7305 -1.3898  2.0322
 3010TIP3   OH230520   1.571   2.112   3.983 -0.1292 -0.7220 -0.6383
 3010TIP3    H130521   1.544   2.117   3.892 -1.8817  0.4381 -0.1078
 3010TIP3    H230522   1.642   2.176   3.991 -1.4884  0.8569 -0.7318
 3011TIP3   OH230523   5.352   1.044  15.767 -0.1184 -0.1022 -0.5259
 3011TIP3    H130524   5.366   0.952  15.788  2.1101  0.7001  2.1592
 3011TIP3    H230525   5.435   1.072  15.727 -0.8388  0.7152 -1.5027
 3012TIP3   OH230526   3.307   0.947  12.735 -0.2464 -0.4017 -0.2093
 3012TIP3    H130527   3.239   0.999  12.779  0.3528  0.9484 -0.8105
 3012TIP3    H230528   3.268   0.923  12.651 -0.1213  0.0735 -0.4084
 3013TIP3   OH230529   1.566   4.978  15.660  0.6425 -0.0130  0.5381
 3013TIP3    H130530   1.660   4.978  15.677  1.0101 -1.2681 -1.1589
 3013TIP3    H230531   1.547   4.888  15.634 -0.9716  0.3013  0.5539
 3014TIP3   OH230532   2.766   4.620   5.399 -0.0352  0.4587  0.9027
 3014TIP3    H130533   2.696   4.645   5.338 -0.0637 -2.4032 -0.3820
 3014TIP3    H230534   2.846   4.629   5.348  0.0720 -0.6198  0.8571
 3015TIP3   OH230535   4.615   0.705  14.170  0.2587 -0.5382  0.3270
 3015TIP3    H130536   4.554   0.638  14.140  0.6643 -0.0299 -1.7834
 3015TIP3    H230537   4.702   0.670  14.148  0.4982  0.4217 -0.3341
 3016TIP3   OH230538   4.258   5.885  17.068 -0.4170 -0.0104  0.1159
 3016TIP3    H130539   4.324   5.889  17.138 -0.7259  1.1842  0.3604
 3016TIP3    H230540   4.176   5.865  17.114 -0.0864 -2.5943 -0.3082
 3017TIP3   OH230541   1.338   1.169   4.758  0.1678  0.5934 -0.0552
 3017TIP3    H130542   1.329   1.169   4.662  0.1125  0.7747 -0.0510
 3017TIP3    H230543   1.338   1.262   4.781 -2.6011  0.5770  0.3723
 3018TIP3   OH230544   0.455   2.919   0.027  0.5571  0.7355  0.3576
 3018TIP3    H130545   0.392   2.912   0.099 -0.7234  0.3984 -0.7567
 3018TIP3    H230546   0.517   2.847   0.042 -0.4446 -0.1301  0.4229
 3019TIP3   OH230547   6.213   5.630  15.107 -0.0477 -0.3811  0.2495
 3019TIP3    H130548   6.184   5.698  15.046 -1.1676 -1.1115 -0.0635
 3019TIP3    H230549   6.289   5.668  15.152 -0.7810  1.1449  0.2417
 3020TIP3   OH230550   3.470   1.329   1.308  0.2662 -0.7940  0.5231
 3020TIP3    H130551   3.422   1.393   1.256  0.8717  2.9318  4.0466
 3020TIP3    H230552   3.562   1.349   1.293  0.5065 -1.4226  1.0858
 3021TIP3   OH230553   5.823   4.106   2.495  0.0299 -0.3960  0.2034
 3021TIP3    H130554   5.785   4.185   2.533 -1.0768  1.2898 -3.8356
 3021TIP3    H230555   5.750   4.045   2.490 -0.4243  0.2128 -1.0870
 3022TIP3   OH230556   1.865   5.209  15.652 -0.0783  0.0466 -0.0551
 3022TIP3    H130557   1.948   5.256  15.653 -0.1200  0.1119  0.8068
 3022TIP3    H230558   1.860   5.166  15.737 -0.9325  0.0603 -0.0876
 3023TIP3   OH230559   2.533   4.777  15.421  0.3332 -0.4211  0.2481
 3023TIP3    H130560   2.444   4.747  15.438  0.0455  0.8730  1.1276
 3023TIP3    H230561   2.559   4.822  15.501  1.4581  0.0050 -0.3309
 3024TIP3   OH230562   6.287   3.609  11.449  0.3947  0.2348 -0.0875
 3024TIP3    H130563   6.330   3.527  11.474  0.4325  0.0738 -0.6680
 3024TIP3    H230564   6.255   3.645  11.532  0.5881 -0.2448  0.2033
 3025TIP3   OH230565   3.920   2.353   0.399  0.0780 -0.3530 -0.3144
 3025TIP3    H130566   3.964   2.333   0.481  1.4198 -1.0294 -1.1719
 3025TIP3    H230567   3.974   2.312   0.331 -1.2049 -0.1481 -1.5132
 3026TIP3   OH230568   1.501   2.617  12.522  0.2472  0.5269  0.3368
 3026TIP3    H130569   1.508   2.668  12.441 -1.1471  0.6406  0.2587
 3026TIP3    H230570   1.439   2.547  12.501  0.3817  0.1590  1.1185
 3027TIP3   OH230571   5.536   4.239  14.544  0.2248  0.4164  0.3183
 3027TIP3    H130572   5.560   4.332  14.538  0.4034  0.3271 -0.4173
 3027TIP3    H230573   5.465   4.229  14.481 -0.4388  0.2497  1.0780
 3028TIP3   OH230574   1.594   6.405   6.207  0.2701 -0.0207  0.3042
 3028TIP3    H130575   1.598   6.443   6.294 -0.3629 -1.0295  0.7853
 3028TIP3    H230576   1.589   6.311   6.221 -1.5276 -0.1441 -0.7409
 3029TIP3   OH230577   4.528   1.904  10.465 -0.3104 -0.9002  0.0362
 3029TIP3    H130578   4.619   1.928  10.446 -0.8702  1.5774  0.1709
 3029TIP3    H230579   4.489   1.889  10.379 -0.2105 -0.2140 -0.1319
 3030TIP3   OH230580   5.793   3.940   4.364  0.1257  0.7026 -0.1325
 3030TIP3    H130581   5.882   3.975   4.362  0.6816 -0.4719  1.8282
 3030TIP3    H230582   5.774   3.927   4.457 -0.9034 -1.9424 -0.6264
 3031TIP3   OH230583   3.792   6.261  13.682  0.1082  0.3958 -0.4447
 3031TIP3    H130584   3.804   6.169  13.706 -0.4567  0.4601  0.1010
 3031TIP3    H230585   3.743   6.299  13.755 -2.9751  0.2676 -2.2709
 3032TIP3   OH230586   4.278   0.404   2.313  0.2429 -0.4279 -0.0502
 3032TIP3    H130587   4.348   0.381   2.374 -1.4198 -1.0837  1.7352
 3032TIP3    H230588   4.280   0.499   2.309  0.1651 -0.3308  1.4062
 3033TIP3   OH230589   6.177   2.706   4.578  0.3360  0.4041 -0.2580
 3033TIP3    H130590   6.257   2.667   4.616 -0.8789 -1.0688  0.9377
 3033TIP3    H230591   6.207   2.788   4.539  2.0160  1.1823  2.3948
 3034TIP3   OH230592   5.892   5.372   4.491  0.1503 -0.3348  0.3953
 3034TIP3    H130593   5.920   5.289   4.530  0.4308 -0.5943 -0.3344
 3034TIP3    H230594   5.832   5.346   4.420 -0.3441  0.1228  0.6429
 3035TIP3   OH230595   4.786   6.147   3.246  0.1240 -0.1720 -0.2196
 3035TIP3    H130596   4.720   6.085   3.276  0.4750 -0.6153 -0.3484
 3035TIP3    H230597   4.859   6.134   3.305  0.6462 -0.7246 -0.9600
 3036TIP3   OH230598   5.807   2.686  14.164  0.2738  0.0061 -0.4780
 3036TIP3    H130599   5.772   2.771  14.136  0.1231 -0.3081 -1.2886
 3036TIP3    H230600   5.734   2.644  14.209 -0.0178 -0.1549 -1.0908
 3037TIP3   OH230601   3.389   2.261  11.083 -0.0398 -0.1719 -0.5020
 3037TIP3    H130602   3.436   2.304  11.155 -1.1957  1.4067 -0.6384
 3037TIP3    H230603   3.363   2.176  11.119 -0.3148  0.4529  0.8386
 3038TIP3   OH230604   1.909   1.013   1.541 -0.0433  0.2137  0.2166
 3038TIP3    H130605   1.873   1.003   1.629 -1.1955  0.7416 -0.1647
 3038TIP3    H230606   1.910   0.924   1.506  1.4973 -0.1605  1.1353
 3039TIP3   OH230607   6.306   5.556   2.632  0.0380  0.1198  0.3346
 3039TIP3    H130608   6.303   5.652   2.629  1.6771  0.1914  0.0717
 3039TIP3    H230609   6.373   5.533   2.569 -1.3706 -1.3176 -0.7232
 3040TIP3   OH230610   2.860   1.253   3.101  0.2331 -0.0362 -0.4784
 3040TIP3    H130611   2.906   1.170   3.117  0.4751 -0.0823 -1.3657
 3040TIP3    H230612   2.917   1.320   3.138  1.0007 -0.0999 -1.4969
 3041TIP3   OH230613   0.210   3.133   1.551  0.2013  0.3234 -0.0887
 3041TIP3    H130614   0.190   3.177   1.634 -0.6424 -1.0785  0.4872
 3041TIP3    H230615   0.293   3.088   1.566 -0.7403 -1.2757  0.5956
 3042TIP3   OH230616   1.539   0.309   1.845 -0.5942  0.4584  0.3122
 3042TIP3    H130617   1.627   0.345   1.831 -0.1184  0.6241  3.0813
 3042TIP3    H230618   1.550   0.214   1.838  0.3737  0.3127  2.7575
 3043TIP3   OH230619   6.095   4.194  13.957  0.4247  0.4510  0.4078
 3043TIP3    H130620   6.159   4.264  13.945  0.1624  0.7210  0.5791
 3043TIP3    H230621   6.012   4.240  13.971  0.2188  0.1047  0.3306
 3044TIP3   OH230622   6.407   6.166  13.917  0.3448 -0.4129  0.2000
 3044TIP3    H130623   6.451   6.164  13.832  1.1194  0.6788  0.5603
 3044TIP3    H230624   6.316   6.188  13.896  0.7024  0.6438 -0.3059
 3045TIP3   OH230625   3.563   1.890   2.855  0.1849 -0.3709 -0.4844
 3045TIP3    H130626   3.468   1.896   2.846  0.2823  2.3479 -0.6808
 3045TIP3    H230627   3.597   1.952   2.790  2.0310 -0.3438  0.4347
 3046TIP3   OH230628   2.731   3.483   1.503 -0.4718  0.6760  0.1180
 3046TIP3    H130629   2.733   3.479   1.408 -1.3198 -0.5643  0.1163
 3046TIP3    H230630   2.802   3.425   1.531  0.5732  1.9970  0.2600
 3047TIP3   OH230631   4.179   0.505  11.462  0.7202  0.1968 -0.0154
 3047TIP3    H130632   4.179   0.594  11.427 -1.7228  0.3573  0.2434
 3047TIP3    H230633   4.149   0.514  11.552 -1.6672 -1.0227 -0.5981
 3048TIP3   OH230634   6.585   4.458  13.213 -0.4132 -0.2424  0.6963
 3048TIP3    H130635   6.571   4.454  13.308 -0.5190  0.1116  0.6948
 3048TIP3    H230636   6.635   4.378  13.193  1.7111  0.8262  1.4084
 3049TIP3   OH230637   0.338   1.974   2.580  0.2279  0.9578 -0.0524
 3049TIP3    H130638   0.293   2.005   2.659 -0.2662 -1.6064  0.7731
 3049TIP3    H230639   0.424   2.014   2.583  0.3208  0.6784  1.9772
 3050TIP3   OH230640   2.020   3.194   2.018 -0.1466  0.0999  0.2846
 3050TIP3    H130641   1.996   3.237   1.936  1.4064 -0.5263 -0.5450
 3050TIP3    H230642   1.963   3.117   2.022 -0.9134  0.6591  0.3004
 3051TIP3   OH230643   1.316   0.086   1.150 -0.1822  0.3906 -0.1726
 3051TIP3    H130644   1.292   0.064   1.240 -0.5577  2.0121  0.1580
 3051TIP3    H230645   1.261   0.161   1.128  0.7558  0.7714 -1.3274
 3052TIP3   OH230646   3.986   3.987  12.668 -0.3343 -0.2366  0.1939
 3052TIP3    H130647   3.960   4.027  12.751  1.1833  2.6998 -0.6024
 3052TIP3    H230648   3.906   3.986  12.616 -0.8193  0.0319  0.9192
 3053TIP3   OH230649   1.489   2.550   2.285  0.1261 -0.0900  0.2432
 3053TIP3    H130650   1.508   2.466   2.326  0.5976 -0.2978 -0.3806
 3053TIP3    H230651   1.458   2.606   2.356 -1.1438 -1.0867  0.4942
 3054TIP3   OH230652   3.408   0.068  11.970  0.1882  0.3384  0.0327
 3054TIP3    H130653   3.480   0.005  11.971  0.5705  0.7660  0.4319
 3054TIP3    H230654   3.329   0.015  11.965  0.5273 -0.1495 -0.1537
 3055TIP3   OH230655   2.676   1.958  13.100 -0.1962  0.2796  1.0833
 3055TIP3    H130656   2.670   1.887  13.164  0.3773  0.8794  1.8117
 3055TIP3    H230657   2.711   2.032  13.149 -0.2318  0.9028  0.1906
 3056TIP3   OH230658   1.512   4.303   5.486  0.4893  0.2480  0.0032
 3056TIP3    H130659   1.576   4.306   5.557 -0.0853 -0.9522  0.6072
 3056TIP3    H230660   1.461   4.224   5.503 -0.8396  0.9027 -0.7307
 3057TIP3   OH230661   0.754   6.738  16.080 -0.4655  0.1143  0.1399
 3057TIP3    H130662   0.773   6.644  16.083 -1.0373  0.0031  0.4148
 3057TIP3    H230663   0.797   6.773  16.158  0.5342  0.2355 -0.4527
 3058TIP3   OH230664   4.044   5.942   5.974 -0.2237 -0.8313 -0.1307
 3058TIP3    H130665   3.964   5.918   6.020 -0.2748  2.9783  2.2498
 3058TIP3    H230666   4.114   5.899   6.023 -0.6038 -0.8173  0.4387
 3059TIP3   OH230667   2.158   2.564  13.863 -0.3303  0.1665 -0.2481
 3059TIP3    H130668   2.232   2.504  13.854  0.6536  1.3337 -0.3101
 3059TIP3    H230669   2.154   2.583  13.957 -0.9565 -0.3734 -0.1628
 3060TIP3   OH230670   5.931   5.214  13.790  0.0448 -0.4133 -0.8690
 3060TIP3    H130671   5.989   5.195  13.715  0.4015  0.7328 -0.9078
 3060TIP3    H230672   5.864   5.147  13.786  0.3887 -0.7166 -1.8883
 3061TIP3   OH230673   1.581   1.591  12.085 -0.0341  0.2161  0.2272
 3061TIP3    H130674   1.498   1.616  12.127  0.1232 -0.7988  1.1719
 3061TIP3    H230675   1.592   1.499  12.106  0.7395  0.0231 -0.9332
 3062TIP3   OH230676   5.201   3.455   3.961  0.0299  0.1993 -0.5213
 3062TIP3    H130677   5.160   3.369   3.948 -1.4307  0.5700  1.1624
 3062TIP3    H230678   5.133   3.517   3.936  0.3270  0.8561  0.2767
 3063TIP3   OH230679   5.750   3.829   4.609  0.0530 -0.0246 -0.5891
 3063TIP3    H130680   5.794   3.830   4.693  0.0636 -0.3319 -0.5926
 3063TIP3    H230681   5.687   3.757   4.614 -0.1823  0.1661 -0.7220
 3064TIP3   OH230682   5.914   3.660  13.131  0.2149 -0.1399  0.3703
 3064TIP3    H130683   5.963   3.640  13.052  0.7871 -1.2733  0.9879
 3064TIP3    H230684   5.945   3.746  13.158  0.3198  0.0666 -0.3968
 3065TIP3   OH230685   2.975   3.023   4.865 -0.1873  0.1485  0.0473
 3065TIP3    H130686   3.054   3.063   4.901 -0.6867  0.5339  0.7606
 3065TIP3    H230687   3.001   2.934   4.843  1.0599  0.9403 -1.9616
 3066TIP3   OH230688   3.069   3.216  14.820 -0.1392 -0.4513  0.2398
 3066TIP3    H130689   2.991   3.161  14.827 -0.8795  0.7094  1.6369
 3066TIP3    H230690   3.036   3.306  14.827  1.2576  0.1033  0.1397
 3067TIP3   OH230691   6.664   3.250   6.508 -0.5679  0.8074 -0.6671
 3067TIP3    H130692   6.754   3.282   6.509 -0.6669  1.0848 -0.2776
 3067TIP3    H230693   6.615   3.315   6.559 -0.7255 -0.1402  0.4335
 3068TIP3   OH230694   5.796   0.543   6.487 -0.2726 -0.5649  0.2689
 3068TIP3    H130695   5.888   0.516   6.489 -0.1678 -0.2641 -0.3638
 3068TIP3    H230696   5.798   0.635   6.514  0.0704  0.6084 -3.3114
 3069TIP3   OH230697   2.665   4.209  14.034  0.5217  0.1154 -0.4700
 3069TIP3    H130698   2.572   4.212  14.011 -0.4195  0.3305  2.8513
 3069TIP3    H230699   2.688   4.116  14.025 -0.1788 -0.0435 -0.7362
 3070TIP3   OH230700   4.735   1.944   0.820 -0.6608 -0.1638 -0.5066
 3070TIP3    H130701   4.650   1.974   0.853 -0.6375  1.4521 -1.7298
 3070TIP3    H230702   4.797   2.011   0.850  0.1243 -1.0870 -0.0110
 3071TIP3   OH230703   4.219   4.156   2.004 -0.3782  0.3521  0.3799
 3071TIP3    H130704   4.269   4.139   2.084 -0.2786 -0.0486  0.2345
 3071TIP3    H230705   4.259   4.236   1.967  1.2584 -0.8320 -0.5874
 3072TIP3   OH230706   3.405   3.861  14.436 -0.1037  0.2434  0.6711
 3072TIP3    H130707   3.400   3.860  14.340 -1.2878 -0.9410  0.7130
 3072TIP3    H230708   3.432   3.950  14.458  2.2608 -0.0074 -0.8261
 3073TIP3   OH230709   2.464   3.028  14.520  0.0728 -0.0463 -0.0482
 3073TIP3    H130710   2.475   3.047  14.427  2.5873  1.6104  0.5079
 3073TIP3    H230711   2.385   3.076  14.546 -0.5970 -0.4572 -1.2562
 3074TIP3   OH230712   1.527   5.832   2.161  0.0872 -0.3860  0.2764
 3074TIP3    H130713   1.537   5.737   2.146 -1.4234 -0.6866  1.0370
 3074TIP3    H230714   1.529   5.841   2.256  0.9738  0.4668  0.1932
 3075TIP3   OH230715   5.668   6.288  13.051 -0.2333  0.9652 -0.1333
 3075TIP3    H130716   5.644   6.334  13.131 -1.3930  0.3530 -0.0955
 3075TIP3    H230717   5.755   6.321  13.028 -0.7777  2.7138  0.1967
 3076TIP3   OH230718   6.454   1.560   6.564 -0.2430 -0.5556  0.0582
 3076TIP3    H130719   6.546   1.547   6.584 -0.4583 -1.5088  0.4943
 3076TIP3    H230720   6.417   1.471   6.564 -1.0405 -0.2321 -0.6729
 3077TIP3   OH230721   6.231   0.686  11.449  0.0612 -0.1568 -0.3975
 3077TIP3    H130722   6.296   0.721  11.509  0.5576 -1.0725 -0.3842
 3077TIP3    H230723   6.176   0.761  11.426 -1.6500 -0.1795  3.0289
 3078TIP3   OH230724   2.072   0.124  12.656 -0.2146 -0.1324 -0.2745
 3078TIP3    H130725   2.108   0.213  12.662 -0.4934  0.3496 -3.6235
 3078TIP3    H230726   2.006   0.120  12.725  0.4430  1.9338  0.5588
 3079TIP3   OH230727   4.968   6.273   5.111 -0.4613  0.0650  0.1952
 3079TIP3    H130728   4.937   6.213   5.180  1.1337 -0.4029  0.5441
 3079TIP3    H230729   4.931   6.358   5.135 -0.4763 -0.2236  1.2688
 3080TIP3   OH230730   1.161   3.514   1.397 -0.2246  0.0839 -0.2222
 3080TIP3    H130731   1.081   3.554   1.362  0.1834  0.3041 -0.9299
 3080TIP3    H230732   1.226   3.584   1.391  0.6427 -0.7957 -1.9718
 3081TIP3   OH230733   5.671   2.800  11.510  0.4391 -0.6972 -0.3309
 3081TIP3    H130734   5.702   2.717  11.474 -1.3349 -1.6075  0.0983
 3081TIP3    H230735   5.661   2.784  11.604  0.4989  0.1544 -0.1639
 3082TIP3   OH230736   6.579   1.418   2.657  0.5656 -0.2294  0.3642
 3082TIP3    H130737   6.495   1.460   2.676 -0.3985 -0.3390 -2.9275
 3082TIP3    H230738   6.613   1.466   2.582  2.8979 -0.9649  0.8664
 3083TIP3   OH230739   3.273   1.579   1.430 -0.0888  0.1460  0.2084
 3083TIP3    H130740   3.307   1.634   1.501 -0.8995 -0.8977  1.4385
 3083TIP3    H230741   3.179   1.574   1.446 -0.2825 -0.1412 -0.9333
 3084TIP3   OH230742   4.168   0.128   2.264 -0.2402 -0.5140 -0.3452
 3084TIP3    H130743   4.230   0.116   2.192 -0.2437  1.7460 -0.7878
 3084TIP3    H230744   4.174   0.221   2.285 -5.2399  0.4804 -2.0444
 3085TIP3   OH230745   4.500   2.496   4.114  0.7192 -0.1545 -0.5738
 3085TIP3    H130746   4.517   2.500   4.208 -0.7223  0.0447 -0.2919
 3085TIP3    H230747   4.405   2.506   4.107  0.7481 -0.6795 -2.0200
 3086TIP3   OH230748   6.601   5.525   2.630 -0.0591 -0.6061  0.4493
 3086TIP3    H130749   6.558   5.440   2.645  1.1568 -0.8593  3.0266
 3086TIP3    H230750   6.650   5.542   2.711 -1.3333  3.2420  0.6164
 3087TIP3   OH230751   2.187   0.698   5.152 -0.3718 -0.0514 -0.1688
 3087TIP3    H130752   2.183   0.788   5.181 -2.3452  0.5921 -2.1525
 3087TIP3    H230753   2.268   0.693   5.101 -0.9185  1.0543 -1.2155
 3088TIP3   OH230754   4.685   6.609   2.104  0.7056  0.1712 -0.0419
 3088TIP3    H130755   4.603   6.654   2.084  0.5750  0.7434  1.6394
 3088TIP3    H230756   4.668   6.517   2.081 -0.3772  0.2969  0.2092
 3089TIP3   OH230757   6.629   3.690   0.879  0.2491  0.0530  0.1070
 3089TIP3    H130758   6.682   3.765   0.905  1.3116  0.1545 -2.1179
 3089TIP3    H230759   6.666   3.616   0.927  0.9459  0.5070  0.2741
 3090TIP3   OH230760   1.325   2.734  11.377 -0.0293  0.8303 -0.0181
 3090TIP3    H130761   1.268   2.659  11.396  0.9594  0.2359  0.6936
 3090TIP3    H230762   1.367   2.754  11.461  1.2347  0.8842 -0.6469
 3091TIP3   OH230763   2.292   0.838  11.161  0.0160 -0.1493 -0.1346
 3091TIP3    H130764   2.378   0.828  11.118  0.6514  1.6810  0.6094
 3091TIP3    H230765   2.268   0.929  11.144 -0.6004  0.0792  1.7667
 3092TIP3   OH230766   1.119   5.540   1.214  0.0705 -0.0981 -0.0231
 3092TIP3    H130767   1.041   5.512   1.263  0.7660 -0.0071  1.1631
 3092TIP3    H230768   1.126   5.476   1.143 -0.2058 -1.0315  0.7690
 3093TIP3   OH230769   4.508   1.349   4.373 -0.3297 -0.2605  0.2123
 3093TIP3    H130770   4.463   1.398   4.304 -2.3568 -1.1083  0.8483
 3093TIP3    H230771   4.564   1.287   4.326  2.0646  2.3046 -0.6093
 3094TIP3   OH230772   6.173   1.081   1.512  0.5800 -0.5826 -0.3266
 3094TIP3    H130773   6.249   1.065   1.567 -0.1943 -1.3443  0.5546
 3094TIP3    H230774   6.165   1.002   1.458 -0.1577 -0.9353  0.2867
 3095TIP3   OH230775   6.336   2.578  16.816 -0.1733  0.2689  0.0864
 3095TIP3    H130776   6.320   2.490  16.783  0.4779  0.2220 -0.1053
 3095TIP3    H230777   6.262   2.629  16.781  0.5543  0.2476 -1.6091
 3096TIP3   OH230778   0.907   1.542   1.061  0.1657  0.5359  0.0544
 3096TIP3    H130779   0.931   1.451   1.079 -0.5941  0.5232  1.0637
 3096TIP3    H230780   0.892   1.544   0.966  3.0401  0.3183 -0.4956
 3097TIP3   OH230781   5.156   4.548   4.692  0.0263 -0.2583 -0.5950
 3097TIP3    H130782   5.252   4.554   4.693  0.2153 -2.1486 -1.6502
 3097TIP3    H230783   5.131   4.539   4.784  0.9376 -0.5621 -0.3646
 3098TIP3   OH230784   5.590   3.612   0.772  0.2013  0.0968  0.3248
 3098TIP3    H130785   5.613   3.692   0.820  0.1123  0.2183  0.1638
 3098TIP3    H230786   5.507   3.633   0.729  1.3459  0.7733 -1.6832
 3099TIP3   OH230787   3.144   4.899  11.115 -0.7754 -0.1114  0.3685
 3099TIP3    H130788   3.177   4.811  11.134  1.1979  0.7578  1.2668
 3099TIP3    H230789   3.176   4.918  11.027 -1.5107 -0.4084  0.0296
 3100TIP3   OH230790   3.792   4.194   0.478  0.4569 -0.2189 -0.5655
 3100TIP3    H130791   3.727   4.156   0.419 -1.5611 -0.1783  1.4658
 3100TIP3    H230792   3.788   4.288   0.462 -1.9253  0.0866  1.1811
 3101TIP3   OH230793   3.680   2.842  15.884 -0.0413  0.0179  0.4350
 3101TIP3    H130794   3.651   2.799  15.805  0.2162 -0.0269  0.3631
 3101TIP3    H230795   3.610   2.827  15.947 -0.5390  0.5981  0.0309
 3102TIP3   OH230796   1.617   6.526   1.499 -0.1155 -0.0334 -0.1645
 3102TIP3    H130797   1.569   6.488   1.573 -0.1313 -1.7864 -1.0161
 3102TIP3    H230798   1.590   6.617   1.497 -2.6078 -0.6867  0.0669
 3103TIP3   OH230799   1.360   2.668   4.870 -0.0147  0.0023  0.0234
 3103TIP3    H130800   1.354   2.736   4.937 -1.2121  1.3329 -1.3482
 3103TIP3    H230801   1.318   2.592   4.909 -0.1566  0.5666  0.9982
 3104TIP3   OH230802   4.012   0.576  17.159 -0.2505  0.1421 -0.6037
 3104TIP3    H130803   4.082   0.624  17.114 -0.4832 -0.1165 -1.2429
 3104TIP3    H230804   4.049   0.490  17.176  0.0617  0.4417  0.2793
 3105TIP3   OH230805   4.983   0.742  14.394  0.4466  0.3647 -0.2161
 3105TIP3    H130806   5.038   0.814  14.365 -1.5206  2.1903  0.3184
 3105TIP3    H230807   4.930   0.719  14.318 -0.7900  1.3388  0.3209
 3106TIP3   OH230808   0.074   3.306   2.939  0.3583  0.3163 -0.0846
 3106TIP3    H130809   0.051   3.214   2.934 -1.1887  0.4414  2.6227
 3106TIP3    H230810  -0.009   3.352   2.946  1.1504  1.7332  0.6400
 3107TIP3   OH230811   4.047   1.282  15.227  0.4208  0.3675 -0.3636
 3107TIP3    H130812   4.007   1.240  15.303  0.0985  1.5021  0.1130
 3107TIP3    H230813   3.973   1.310  15.173  0.6470 -0.4163 -1.0990
 3108TIP3   OH230814   6.681   6.258   3.238  0.4606  0.3386 -0.2685
 3108TIP3    H130815   6.637   6.199   3.299  2.3066  0.1806  0.9881
 3108TIP3    H230816   6.617   6.329   3.223 -1.3418 -1.3270 -0.9095
 3109TIP3   OH230817   6.357   5.303   4.742  0.0545  0.2060 -0.1168
 3109TIP3    H130818   6.429   5.267   4.794 -0.6792 -0.2733  0.5920
 3109TIP3    H230819   6.376   5.397   4.736  2.1202 -0.2588 -2.1985
 3110TIP3   OH230820   6.570   2.993   4.402  0.0986  0.2824  0.2017
 3110TIP3    H130821   6.612   3.041   4.331  1.0080 -2.2847 -1.1214
 3110TIP3    H230822   6.643   2.959   4.454 -0.2609 -2.7473 -1.0962
 3111TIP3   OH230823   1.456   4.586  11.500  0.1497 -0.4523  0.0857
 3111TIP3    H130824   1.547   4.562  11.480 -0.0003 -0.7562 -0.2251
 3111TIP3    H230825   1.462   4.631  11.584  0.4452 -1.4802  0.6297
 3112TIP3   OH230826   0.841   5.239   3.847  0.3286 -0.8158 -0.4880
 3112TIP3    H130827   0.850   5.291   3.927 -1.4126  2.3124 -2.1536
 3112TIP3    H230828   0.920   5.261   3.797  0.4744 -1.2476 -0.4486
 3113TIP3   OH230829   2.280   1.454  11.248  0.4578 -0.1144 -0.4929
 3113TIP3    H130830   2.309   1.533  11.201  1.1789 -0.7888 -1.2175
 3113TIP3    H230831   2.325   1.382  11.203 -0.3465 -0.9585  0.0283
 3114TIP3   OH230832   4.243   1.425   5.731 -0.3066 -0.6283  0.3153
 3114TIP3    H130833   4.180   1.452   5.797 -1.4374  0.8005 -1.2543
 3114TIP3    H230834   4.310   1.493   5.731 -0.1291 -0.8001  0.2256
 3115TIP3   OH230835   3.843   4.424   3.199  0.0915 -0.2193  0.1032
 3115TIP3    H130836   3.835   4.476   3.119 -1.1809  1.2859  1.1526
 3115TIP3    H230837   3.797   4.343   3.179 -0.2549  0.1547 -0.6793
 3116TIP3   OH230838   0.917   2.437   1.131  0.8544  0.3762 -0.4740
 3116TIP3    H130839   0.917   2.487   1.049 -0.2615  2.4539  0.7124
 3116TIP3    H230840   0.986   2.476   1.184  0.3709  0.2772  0.2492
 3117TIP3   OH230841   5.939   3.688  14.027 -0.2570 -0.0874  0.2017
 3117TIP3    H130842   5.919   3.690  14.121 -2.3514  0.3889 -0.1807
 3117TIP3    H230843   5.938   3.780  14.001  0.9308 -0.1731 -0.2012
 3118TIP3   OH230844   4.457   3.833   5.132 -0.3176 -0.3423  0.1333
 3118TIP3    H130845   4.393   3.858   5.065 -1.5133 -1.0999  0.9461
 3118TIP3    H230846   4.496   3.915   5.159 -1.7920  0.2952  0.4248
 3119TIP3   OH230847   4.260   6.320   4.748  0.0491  0.0696 -0.4631
 3119TIP3    H130848   4.174   6.356   4.771 -0.8640 -2.8425  1.1448
 3119TIP3    H230849   4.248   6.287   4.659 -0.7406 -0.8571 -0.0341
 3120TIP3   OH230850   6.824   2.747   1.640  0.2127  0.3793 -0.5789
 3120TIP3    H130851   6.802   2.670   1.691 -0.8059  1.5285  0.7891
 3120TIP3    H230852   6.916   2.764   1.661 -0.5065  1.5911  2.0570
 3121TIP3   OH230853   0.206   6.365   3.426  0.1415 -0.0425  0.2511
 3121TIP3    H130854   0.266   6.420   3.375 -0.9507  1.0534  0.1049
 3121TIP3    H230855   0.234   6.376   3.517  0.2065  0.3990  0.1764
 3122TIP3   OH230856   3.525   4.403   1.377  0.3091  0.1537 -0.2297
 3122TIP3    H130857   3.549   4.327   1.430 -0.6409 -1.9437 -2.6108
 3122TIP3    H230858   3.466   4.454   1.433  1.6959 -0.2946  1.7538
 3123TIP3   OH230859   2.597   3.291  11.719 -0.0664 -0.2067 -0.3638
 3123TIP3    H130860   2.543   3.236  11.774 -0.8161  1.5429  0.7183
 3123TIP3    H230861   2.680   3.298  11.766 -0.4117  0.5896  0.1489
 3124TIP3   OH230862   1.373   4.524   4.899  0.2320  0.2463 -0.5145
 3124TIP3    H130863   1.451   4.555   4.853  1.7894  0.1408  1.8555
 3124TIP3    H230864   1.399   4.439   4.934 -2.0420 -1.2428 -2.1667
 3125TIP3   OH230865   2.824   2.323   3.067  0.1672  0.4568  0.5218
 3125TIP3    H130866   2.769   2.314   3.145  1.0656 -1.3182  1.0186
 3125TIP3    H230867   2.765   2.307   2.994  0.1258 -2.8012  1.0950
 3126TIP3   OH230868   2.670   3.382  12.639 -0.2756  0.4510  0.3846
 3126TIP3    H130869   2.630   3.346  12.559 -0.7937  0.4771  0.6287
 3126TIP3    H230870   2.703   3.468  12.612 -1.2621  0.8554  0.4088
 3127TIP3   OH230871   5.270   3.464  11.359  0.1249  0.6242 -0.0573
 3127TIP3    H130872   5.352   3.500  11.392 -0.3364  1.4977  0.1587
 3127TIP3    H230873   5.202   3.515  11.403 -0.5176  0.7696 -1.1874
 3128TIP3   OH230874   5.916   6.714   3.919 -0.0021 -0.6309  0.7421
 3128TIP3    H130875   5.960   6.654   3.979 -0.0949 -0.1792  1.2750
 3128TIP3    H230876   5.962   6.797   3.931 -1.0600 -0.1113  1.4138
 3129TIP3   OH230877   2.482   1.780   2.029  0.2840 -0.5410 -0.4150
 3129TIP3    H130878   2.557   1.730   1.999  1.0850  0.6349 -0.4641
 3129TIP3    H230879   2.498   1.869   1.997 -0.8309 -0.1334  0.0880
 3130TIP3   OH230880   1.982   6.687   6.498  0.0180 -0.6307  0.5048
 3130TIP3    H130881   2.064   6.735   6.488  0.7854 -1.9612  0.1416
 3130TIP3    H230882   2.003   6.597   6.472 -1.6244 -0.9516  0.1413
 3131TIP3   OH230883   6.243   6.730   2.554  0.2081  0.2871  0.4747
 3131TIP3    H130884   6.155   6.757   2.530 -0.6053 -0.2584  2.6242
 3131TIP3    H230885   6.298   6.762   2.482 -1.7602  0.2505 -1.1302
 3132TIP3   OH230886   5.110   1.486   4.399  0.0451 -0.4144 -0.3827
 3132TIP3    H130887   5.197   1.447   4.403  1.0657  1.7761  0.5046
 3132TIP3    H230888   5.123   1.570   4.355 -1.0034  1.3184  2.3547
 3133TIP3   OH230889   1.196   3.830  13.834  0.0073  0.1643  0.0696
 3133TIP3    H130890   1.187   3.811  13.927 -0.4632  1.9735  0.4458
 3133TIP3    H230891   1.110   3.809  13.797  0.2745 -0.8039 -0.0250
 3134TIP3   OH230892   6.407   6.292  14.441 -0.3015  0.4782 -0.4785
 3134TIP3    H130893   6.384   6.262  14.529 -1.9723  2.4169 -0.1904
 3134TIP3    H230894   6.376   6.223  14.383  0.4947 -0.6586  0.4117
 3135TIP3   OH230895   5.094   1.105   5.956 -0.0778  0.1975  0.1575
 3135TIP3    H130896   5.105   1.065   6.042  0.5345  0.1978  0.0826
 3135TIP3    H230897   5.073   1.032   5.898 -1.2727  0.2938  0.4389
 3136TIP3   OH230898   0.379   3.447   0.889  0.4136  0.3959  0.5587
 3136TIP3    H130899   0.379   3.359   0.851  2.1797  0.6361 -0.1022
 3136TIP3    H230900   0.290   3.478   0.877  0.1528 -0.7149 -0.6567
 3137TIP3   OH230901   1.581   0.466  13.375  0.3283  0.3606  0.5510
 3137TIP3    H130902   1.490   0.467  13.404 -0.5210 -0.3204 -1.8443
 3137TIP3    H230903   1.630   0.509  13.446 -1.6001 -0.6150  2.5756
 3138TIP3   OH230904   5.082   1.277  11.562  0.1912  0.3773  0.0475
 3138TIP3    H130905   5.144   1.349  11.575  1.0045 -0.5065  1.2681
 3138TIP3    H230906   5.133   1.211  11.515  0.0546 -0.1818  0.6756
 3139TIP3   OH230907   5.430   1.700   1.737  0.4792  0.2385  0.0875
 3139TIP3    H130908   5.417   1.745   1.821  2.4644  0.0771  0.5529
 3139TIP3    H230909   5.419   1.608   1.757  0.6684  0.2205  0.1093
 3140TIP3   OH230910   2.555   1.974  13.467 -0.1448  0.2446 -0.0456
 3140TIP3    H130911   2.634   2.007  13.511 -0.3206 -0.9075  1.2185
 3140TIP3    H230912   2.483   2.020  13.511 -0.2104  1.1719 -1.0871
 3141TIP3   OH230913   2.441   5.902   1.808  0.2206 -0.0794  0.2478
 3141TIP3    H130914   2.514   5.840   1.813  1.3036  0.8088 -2.3918
 3141TIP3    H230915   2.482   5.988   1.818 -0.1325  0.5207 -2.5030
 3142TIP3   OH230916   0.683   6.729  17.053 -0.3570  0.2668  0.0465
 3142TIP3    H130917   0.647   6.668  17.118 -1.9797  1.4693  0.3251
 3142TIP3    H230918   0.640   6.704  16.971  1.2970 -0.9073 -0.5274
 3143TIP3   OH230919   2.723   5.864   2.339  0.5741  0.3102 -0.2479
 3143TIP3    H130920   2.748   5.772   2.345  2.5721  0.8498  0.5805
 3143TIP3    H230921   2.692   5.887   2.426  1.1562  0.6698 -0.1231
 3144TIP3   OH230922   5.958   0.736   1.541  0.2354  0.2693 -0.2918
 3144TIP3    H130923   6.047   0.764   1.562  0.2897  0.4651 -0.7691
 3144TIP3    H230924   5.964   0.705   1.450  0.2612 -1.6567  0.3337
 3145TIP3   OH230925   5.172   5.531  15.661 -0.0932  0.0331 -0.6401
 3145TIP3    H130926   5.130   5.503  15.743  1.2539 -4.1698 -1.1537
 3145TIP3    H230927   5.264   5.541  15.684  0.0795  0.1049 -1.3599
 3146TIP3   OH230928   5.082   0.326  17.037  0.0517  0.8888  0.7608
 3146TIP3    H130929   5.031   0.245  17.048  0.6573  0.2749 -0.6846
 3146TIP3    H230930   5.171   0.296  17.016  0.1001  1.9022 -0.6355
 3147TIP3   OH230931   2.757   2.392   3.347 -0.0541  0.3088  0.1737
 3147TIP3    H130932   2.674   2.422   3.382 -0.6824 -0.3152 -0.7406
 3147TIP3    H230933   2.808   2.472   3.333 -0.2795  0.6487  1.2514
 3148TIP3   OH230934   3.961   0.500   1.807 -0.5462 -0.0440  0.1452
 3148TIP3    H130935   3.871   0.468   1.804 -0.1324 -1.2523 -2.6663
 3148TIP3    H230936   3.977   0.534   1.719  1.6190  0.5596  0.7114
 3149TIP3   OH230937   3.270   5.758  14.649  0.4136  0.3179 -0.6691
 3149TIP3    H130938   3.190   5.729  14.606 -0.0100  0.1234  0.2239
 3149TIP3    H230939   3.292   5.840  14.606 -0.7671  0.8333 -0.3185
 3150TIP3   OH230940   5.926   1.923   6.523 -0.1922  0.0882 -0.7047
 3150TIP3    H130941   5.950   2.011   6.554 -1.1640  0.3579 -0.7005
 3150TIP3    H230942   6.009   1.875   6.522 -0.1230 -0.1022  2.8035
 3151TIP3   OH230943   0.168   2.388   4.707  0.4976 -0.2994 -0.0479
 3151TIP3    H130944   0.075   2.382   4.686  0.4392 -1.1246  0.4507
 3151TIP3    H230945   0.212   2.341   4.636  0.3060 -3.0002  1.5219
 3152TIP3   OH230946   3.216   5.988  13.968  0.1020 -0.0168 -0.2361
 3152TIP3    H130947   3.303   6.007  13.933  0.7963 -2.4096 -0.0003
 3152TIP3    H230948   3.176   6.074  13.982  2.0000  1.1180 -1.3750
 3153TIP3   OH230949   0.020   4.548  15.171 -0.2053 -0.5731 -0.2962
 3153TIP3    H130950  -0.022   4.482  15.225 -0.2029  0.4202  0.9695
 3153TIP3    H230951  -0.047   4.615  15.158  0.3567  0.0628  0.0291
 3154TIP3   OH230952   0.554   1.155   0.614  0.1357 -0.2303 -0.0207
 3154TIP3    H130953   0.537   1.224   0.677 -0.0023  0.4603 -0.7951
 3154TIP3    H230954   0.542   1.197   0.528 -1.1020 -1.4851 -0.5029
 3155TIP3   OH230955   2.818   1.831   5.473  0.4460 -0.0747  0.2372
 3155TIP3    H130956   2.875   1.805   5.400  0.5600 -1.5803  0.8292
 3155TIP3    H230957   2.830   1.763   5.538 -4.2003 -2.2045 -0.7194
 3156TIP3   OH230958   1.955   0.923  16.866  0.2314 -0.4273  0.4392
 3156TIP3    H130959   2.040   0.914  16.909  1.0897 -1.4228 -1.4030
 3156TIP3    H230960   1.892   0.895  16.933  1.4285 -0.9086  1.4082
 3157TIP3   OH230961   2.902   1.072   1.641  0.1743  0.4201 -0.3857
 3157TIP3    H130962   2.984   1.065   1.690  0.2619  1.4114 -0.3819
 3157TIP3    H230963   2.886   1.166   1.633 -0.7371  0.2455 -0.7680
 3158TIP3   OH230964   0.498   1.739  14.908  0.1909  0.2579 -0.0910
 3158TIP3    H130965   0.563   1.804  14.936  0.6922 -0.4324  0.3642
 3158TIP3    H230966   0.491   1.753  14.813  1.6436 -0.2161 -0.2955
 3159TIP3   OH230967   1.367   1.264   5.420  0.5146  0.2646 -0.0644
 3159TIP3    H130968   1.406   1.181   5.391  0.7683  0.7310 -1.0674
 3159TIP3    H230969   1.317   1.240   5.498 -1.0934 -1.2229 -1.4826
 3160TIP3   OH230970   6.590   2.119   4.472  0.7052  0.1822  0.2566
 3160TIP3    H130971   6.535   2.042   4.486  1.6742 -0.4912  0.3951
 3160TIP3    H230972   6.596   2.126   4.376  1.6803 -0.7021  0.2358
 3161TIP3   OH230973   1.011   0.466  15.455 -0.6156 -0.4091 -0.9760
 3161TIP3    H130974   0.936   0.512  15.417  1.5954  2.8821 -1.7650
 3161TIP3    H230975   0.999   0.475  15.550 -2.6832 -2.6870 -0.9233
 3162TIP3   OH230976   2.161   0.746  13.605 -0.9500 -0.1573  0.0961
 3162TIP3    H130977   2.147   0.837  13.631  2.0995  0.9535 -1.6847
 3162TIP3    H230978   2.143   0.695  13.684  0.8497  2.3462  2.2841
 3163TIP3   OH230979   2.774   4.819   1.586  0.4274 -0.1147  0.0071
 3163TIP3    H130980   2.863   4.837   1.556  0.1092  0.6605 -0.5158
 3163TIP3    H230981   2.730   4.784   1.509  0.1804 -0.1318  0.1551
 3164TIP3   OH230982   4.412   0.449   4.934  0.2670 -0.0561  0.3817
 3164TIP3    H130983   4.390   0.356   4.938 -0.8758  0.2326  1.4408
 3164TIP3    H230984   4.400   0.481   5.023 -0.4641  1.3265 -0.1777
 3165TIP3   OH230985   1.680   0.096  14.171 -0.7070 -0.1772 -0.1547
 3165TIP3    H130986   1.674   0.068  14.262 -2.5928  2.4661  0.6612
 3165TIP3    H230987   1.773   0.114  14.158 -0.3536 -0.9491  1.1148
 3166TIP3   OH230988   4.973   2.191   3.040 -0.0161  0.0335  0.0823
 3166TIP3    H130989   4.883   2.177   3.070 -0.1643 -1.9778 -1.0920
 3166TIP3    H230990   4.966   2.197   2.945  0.9657  1.3363  0.0609
 3167TIP3   OH230991   0.335   1.589   3.139 -0.4636  0.1733  0.1416
 3167TIP3    H130992   0.303   1.654   3.077  0.7414 -0.3623 -1.0788
 3167TIP3    H230993   0.398   1.536   3.090  1.1221  0.2022  1.9883
 3168TIP3   OH230994   2.628   6.638   2.769  0.1034  0.1202  0.3205
 3168TIP3    H130995   2.533   6.633   2.754  0.0503 -0.5854  0.8693
 3168TIP3    H230996   2.636   6.646   2.864  0.5954  0.3367  0.2611
 3169TIP3   OH230997   1.946   3.860  11.098  0.9686  0.2888 -0.0376
 3169TIP3    H130998   1.887   3.791  11.066  0.1764  1.1293 -0.4182
 3169TIP3    H230999   1.939   3.854  11.194  0.1066  0.4873 -0.0714
 3170TIP3   OH231000   5.246   4.708   2.356 -0.3357 -0.8551  0.8638
 3170TIP3    H131001   5.166   4.684   2.309 -0.6663  0.5153  0.6718
 3170TIP3    H231002   5.286   4.625   2.380 -1.5591 -1.5662  0.5151
 3171TIP3   OH231003   3.347   6.167   3.599 -0.0316  0.0433 -1.1191
 3171TIP3    H131004   3.396   6.240   3.563  0.8938  0.3504  0.6196
 3171TIP3    H231005   3.413   6.114   3.644 -1.0350 -0.4702 -0.1936
 3172TIP3   OH231006   5.870   1.316  17.106 -0.5366  0.7722 -0.1332
 3172TIP3    H131007   5.948   1.272  17.073 -0.3750  0.9243  0.0422
 3172TIP3    H231008   5.882   1.408  17.079  0.0864  1.1129  1.1968
 3173TIP3   OH231009   0.015   2.809  13.072 -0.2271  0.1991 -0.1955
 3173TIP3    H131010  -0.001   2.845  12.985  1.4079  0.4401 -0.4224
 3173TIP3    H231011   0.105   2.779  13.070  0.1524  1.0305  1.6934
 3174TIP3   OH231012   2.006   5.420   4.043  0.0267 -0.0109 -0.4990
 3174TIP3    H131013   1.955   5.375   3.976 -1.9680  0.3566  0.6701
 3174TIP3    H231014   1.991   5.369   4.123 -0.7318  1.6045  0.4401
 3175TIP3   OH231015   4.888   3.256   5.493 -0.0176  0.5121 -0.0533
 3175TIP3    H131016   4.972   3.226   5.457  0.1357  0.2070  0.5346
 3175TIP3    H231017   4.822   3.216   5.436  0.2118 -0.1773  0.1510
 3176TIP3   OH231018   0.349   3.120   5.571  0.2936  0.4550  0.2174
 3176TIP3    H131019   0.264   3.099   5.533  0.6330 -1.7034  0.5334
 3176TIP3    H231020   0.328   3.167   5.652 -0.5313  1.2366 -0.4312
 3177TIP3   OH231021   0.367   1.779  10.656 -0.3951 -0.4714 -0.3454
 3177TIP3    H131022   0.326   1.761  10.741  2.9510 -1.9334  1.1447
 3177TIP3    H231023   0.441   1.837  10.677  1.2219 -1.7937 -2.0056
 3178TIP3   OH231024   5.401   1.401  11.321  0.6862 -0.4048 -0.0973
 3178TIP3    H131025   5.318   1.431  11.284  0.6919  0.0211  0.2279
 3178TIP3    H231026   5.461   1.399  11.246  0.3708 -0.7726 -0.3435
 3179TIP3   OH231027   4.689   2.820  11.390  0.4731  0.0928 -0.2280
 3179TIP3    H131028   4.776   2.826  11.350  0.7287 -1.0544  0.1209
 3179TIP3    H231029   4.647   2.904  11.370  1.6897  0.6922 -0.3189
 3180TIP3   OH231030   0.602   4.355   4.754 -0.1703 -0.4285 -0.3952
 3180TIP3    H131031   0.529   4.293   4.760 -0.3670 -0.2555 -0.9615
 3180TIP3    H231032   0.582   4.422   4.820 -0.2504 -0.6669 -0.1800
 3181TIP3   OH231033   1.820   0.684  15.852 -0.0497  0.6181  0.1113
 3181TIP3    H131034   1.737   0.687  15.899 -0.2895 -0.5313 -0.1962
 3181TIP3    H231035   1.810   0.610  15.792  1.7661 -0.5479  1.1538
 3182TIP3   OH231036   6.199   2.614  13.609  0.7963  0.7047 -0.5024
 3182TIP3    H131037   6.192   2.524  13.641 -1.0248  1.6616  2.1828
 3182TIP3    H231038   6.266   2.655  13.664 -2.2177  2.3144  2.3847
 3183TIP3   OH231039   4.333   0.668   0.600  0.1778 -0.1874 -0.9721
 3183TIP3    H131040   4.402   0.733   0.583  0.1275 -0.2851 -1.5649
 3183TIP3    H231041   4.304   0.641   0.513 -0.0416 -0.7555 -0.7237
 3184TIP3   OH231042   2.467   2.418  15.532  0.7484 -0.0211 -0.2566
 3184TIP3    H131043   2.470   2.349  15.465  0.7526 -0.2312 -0.0394
 3184TIP3    H231044   2.460   2.499  15.482 -0.9640 -0.2814 -0.4839
 3185TIP3   OH231045   0.051   5.026   3.002  0.8079  0.2311 -0.4343
 3185TIP3    H131046   0.088   5.112   3.020  0.2279  0.6623 -1.2248
 3185TIP3    H231047   0.104   4.991   2.931  0.4651  0.3432 -0.7522
 3186TIP3   OH231048   0.575   2.301   4.165  0.7798  0.5424 -0.0988
 3186TIP3    H131049   0.483   2.327   4.168  0.6103 -0.1110  1.8109
 3186TIP3    H231050   0.623   2.384   4.170  0.2864  0.8276 -0.0356
 3187TIP3   OH231051   0.438   4.983  12.849  0.0115  0.2197  0.4430
 3187TIP3    H131052   0.504   5.039  12.807 -0.3478  0.5822  0.3558
 3187TIP3    H231053   0.355   5.028  12.834 -0.3806 -0.7047 -0.2562
 3188TIP3   OH231054   5.644   3.872  14.706  0.2196 -0.2428  0.0500
 3188TIP3    H131055   5.650   3.787  14.752 -0.2454  0.4126  1.3831
 3188TIP3    H231056   5.641   3.936  14.777 -0.8928  0.8023 -0.9193
 3189TIP3   OH231057   0.490   1.093   6.541 -0.0753  0.4290  0.2597
 3189TIP3    H131058   0.459   1.146   6.467 -0.4559 -0.7633 -0.4681
 3189TIP3    H231059   0.519   1.012   6.501  2.1247  0.7187  1.1647
 3190TIP3   OH231060   0.492   5.324  11.472  0.5524 -0.1802  0.6182
 3190TIP3    H131061   0.485   5.409  11.514  1.3708  0.0340  0.3341
 3190TIP3    H231062   0.547   5.339  11.395  1.5974 -1.1646  1.1389
 3191TIP3   OH231063   6.427   5.452  11.824 -0.4370 -0.2589 -0.4351
 3191TIP3    H131064   6.335   5.469  11.804 -0.3957 -0.4575 -0.8004
 3191TIP3    H231065   6.443   5.364  11.792 -0.4717 -0.7612  0.8651
 3192TIP3   OH231066   0.316   2.102   0.575  0.1606 -0.4392 -0.2386
 3192TIP3    H131067   0.247   2.104   0.508  0.0991  1.4124 -0.1844
 3192TIP3    H231068   0.311   2.015   0.613 -1.7379 -0.5612 -0.6811
 3193TIP3   OH231069   0.628   0.004  14.883 -0.3652  0.3194 -0.1093
 3193TIP3    H131070   0.597   0.009  14.973  2.5455 -0.9542  1.1192
 3193TIP3    H231071   0.621  -0.088  14.860 -0.1971  0.4798 -0.8425
 3194TIP3   OH231072   3.906   6.536  15.688 -0.1126 -0.5605 -0.3427
 3194TIP3    H131073   3.925   6.540  15.595  0.0745  0.6995 -0.2727
 3194TIP3    H231074   3.915   6.627  15.718 -0.8562 -0.8320  0.7600
 3195TIP3   OH231075   6.609   1.099   3.582 -0.4991 -0.2362  0.3837
 3195TIP3    H131076   6.649   1.019   3.550 -0.6304  0.1303 -0.7738
 3195TIP3    H231077   6.655   1.169   3.535 -1.6564  0.2501 -0.0635
 3196TIP3   OH231078   4.783   1.015  14.271  0.1560  0.4321 -0.0935
 3196TIP3    H131079   4.820   1.029  14.184 -0.5741  1.1379 -0.3110
 3196TIP3    H231080   4.796   1.099  14.316  1.0891 -0.1259  0.7016
 3197TIP3   OH231081   3.771   6.287  15.235 -0.4491 -0.1056  0.7493
 3197TIP3    H131082   3.784   6.344  15.159 -1.6619  0.3927  0.9010
 3197TIP3    H231083   3.734   6.207  15.198  0.9296 -0.6947  0.5799
 3198TIP3   OH231084   3.969   1.636   1.602  0.1541 -0.2911  0.1401
 3198TIP3    H131085   3.909   1.703   1.570 -0.6256 -1.1098 -0.1481
 3198TIP3    H231086   3.926   1.553   1.580  0.5525 -0.8834  1.5084
 3199TIP3   OH231087   1.181   4.635   5.517 -0.2359 -0.3278  0.0288
 3199TIP3    H131088   1.145   4.570   5.579 -1.3804 -0.1183 -0.3908
 3199TIP3    H231089   1.130   4.714   5.534  1.2992  0.5529  0.6792
 3200TIP3   OH231090   6.791   4.842   1.643  0.1296 -0.0150 -0.4196
 3200TIP3    H131091   6.716   4.785   1.629  0.5903 -0.1563 -2.8423
 3200TIP3    H231092   6.759   4.930   1.620 -0.1541  0.5021  1.7833
 3201TIP3   OH231093   0.571   1.627   0.999 -0.0520  0.1995 -0.4448
 3201TIP3    H131094   0.571   1.558   1.067  1.5070  1.0921  0.5078
 3201TIP3    H231095   0.622   1.590   0.928  0.1304  0.0783 -0.2530
 3202TIP3   OH231096   6.180   4.108   0.139 -0.0288 -0.3772 -0.0064
 3202TIP3    H131097   6.108   4.059   0.098  0.1765 -1.0274  0.3970
 3202TIP3    H231098   6.137   4.180   0.185 -0.1800  1.2619 -2.5011
 3203TIP3   OH231099   3.145   6.475   0.253 -0.3110  0.4282  0.2961
 3203TIP3    H131100   3.095   6.529   0.314 -1.1061  2.6614 -2.1361
 3203TIP3    H231101   3.105   6.389   0.259  0.0151  0.3726  3.2355
 3204TIP3   OH231102   2.148   1.986  16.092 -0.3880 -0.5168 -0.7718
 3204TIP3    H131103   2.230   2.022  16.060 -0.6070  0.2545 -0.4980
 3204TIP3    H231104   2.141   1.900  16.051  1.6729 -1.6030  0.9716
 3205TIP3   OH231105   3.139   2.006   1.795  0.3813 -0.7075 -0.1257
 3205TIP3    H131106   3.219   1.983   1.747  0.9633  0.9191 -0.0210
 3205TIP3    H231107   3.161   1.989   1.887  1.1521  1.0442  0.0517
 3206TIP3   OH231108   3.246   1.145  11.845 -0.0548  0.0921  0.2377
 3206TIP3    H131109   3.228   1.236  11.868 -0.3680  0.1786 -0.3217
 3206TIP3    H231110   3.308   1.115  11.911 -0.4551  0.5118  0.8139
 3207TIP3   OH231111   0.003   6.079   0.328 -0.3945  0.1492  0.7699
 3207TIP3    H131112  -0.084   6.055   0.296 -0.0830 -0.9510  0.6845
 3207TIP3    H231113  -0.010   6.095   0.421 -0.4537 -1.4879  1.0766
 3208TIP3   OH231114   1.115   2.558   4.567 -0.2642  0.3911 -0.4903
 3208TIP3    H131115   1.186   2.495   4.556 -0.8834 -0.1061 -1.9777
 3208TIP3    H231116   1.061   2.523   4.637  0.6999  0.5401  0.3417
 3209TIP3   OH231117   5.384   3.065   0.575 -0.3400 -0.3874 -0.1775
 3209TIP3    H131118   5.339   2.994   0.620  0.4889 -0.0117  1.3350
 3209TIP3    H231119   5.430   3.112   0.645  1.1859  0.1109 -1.4497
 3210TIP3   OH231120   6.224   4.974  12.368 -0.2167 -0.0622  0.6602
 3210TIP3    H131121   6.221   5.067  12.347  1.5783 -0.0815  0.2101
 3210TIP3    H231122   6.276   4.968  12.448 -1.5379 -0.5798  1.5248
 3211TIP3   OH231123   1.233   0.996   4.314 -0.3248  0.0452 -0.1632
 3211TIP3    H131124   1.297   0.977   4.383  0.2143 -2.4589 -1.2467
 3211TIP3    H231125   1.149   0.996   4.359 -0.0496 -2.2100  0.4860
 3212TIP3   OH231126   3.227   6.575  12.366 -0.1106  0.3693 -0.1236
 3212TIP3    H131127   3.179   6.655  12.346 -0.0910  0.9286  1.7932
 3212TIP3    H231128   3.316   6.605  12.387 -0.2517 -0.0372  1.1994
 3213TIP3   OH231129   6.343   3.477   3.975 -0.2271 -0.1915 -0.4586
 3213TIP3    H131130   6.276   3.415   3.947  0.1367 -1.3149  1.0530
 3213TIP3    H231131   6.332   3.483   4.070  2.4968 -1.2407 -0.0052
 3214TIP3   OH231132   5.533   2.089   1.005  0.5000  0.3456 -0.3827
 3214TIP3    H131133   5.506   1.999   1.026  1.5240 -0.0440 -0.6845
 3214TIP3    H231134   5.566   2.083   0.915  2.1725  0.6695  0.1852
 3215TIP3   OH231135   5.729   6.406  11.455  0.1747  0.4435 -0.3709
 3215TIP3    H131136   5.728   6.501  11.465  1.1493  0.5924 -1.4533
 3215TIP3    H231137   5.750   6.392  11.362  2.7080 -0.8214  0.3103
 3216TIP3   OH231138   1.036   1.049   4.497  0.5864 -0.5874 -0.2029
 3216TIP3    H131139   0.968   1.100   4.452 -0.8938 -2.0598  0.2936
 3216TIP3    H231140   1.006   1.044   4.588  1.3038 -1.3523  0.0011
 3217TIP3   OH231141   0.923   0.627   3.770  0.2157 -0.1841 -0.5716
 3217TIP3    H131142   1.001   0.678   3.794  0.7373 -1.0173 -0.4534
 3217TIP3    H231143   0.944   0.592   3.684 -0.5638  0.6156 -1.1088
 3218TIP3   OH231144   5.683   3.068   5.342 -0.2283  0.7634 -0.5109
 3218TIP3    H131145   5.745   3.021   5.285 -3.0298 -0.7155 -2.5783
 3218TIP3    H231146   5.680   3.017   5.422  0.6629  0.4338 -0.6771
 3219TIP3   OH231147   4.353   3.278   3.744 -0.8374 -0.0632  0.1636
 3219TIP3    H131148   4.386   3.219   3.812 -1.7563 -1.4751 -0.5688
 3219TIP3    H231149   4.276   3.318   3.782  0.4165  1.6181  1.0881
 3220TIP3   OH231150   3.358   2.246  14.217 -0.2928 -0.2090 -0.2532
 3220TIP3    H131151   3.342   2.296  14.297 -0.0157 -0.7599  0.1581
 3220TIP3    H231152   3.403   2.308  14.159  1.3237 -0.3571  0.7696
 3221TIP3   OH231153   2.876   6.580  12.491 -0.3407 -0.0128  0.3360
 3221TIP3    H131154   2.927   6.608  12.415  0.1191  0.3776  0.7865
 3221TIP3    H231155   2.904   6.638  12.562 -1.6984  0.4693  0.4942
 3222TIP3   OH231156   5.432   6.723   4.060 -0.3393 -0.1878 -0.0677
 3222TIP3    H131157   5.488   6.654   4.096  0.0472  1.3259  2.4371
 3222TIP3    H231158   5.493   6.784   4.018 -0.3135  0.2735  0.6186
 3223TIP3   OH231159   2.491   0.094  16.606 -0.4275  0.0428 -0.4874
 3223TIP3    H131160   2.424   0.033  16.575  0.2305 -1.2538  0.5469
 3223TIP3    H231161   2.539   0.119  16.527  0.4883 -2.2820 -0.7482
 3224TIP3   OH231162   0.558   2.023   0.396  0.4116 -0.2290 -0.6967
 3224TIP3    H131163   0.628   2.060   0.450  0.1890 -0.6697 -0.0936
 3224TIP3    H231164   0.479   2.036   0.448 -0.3535  2.3527 -2.3485
 3225TIP3   OH231165   4.920   1.484   5.771 -0.0680 -0.4778  0.1808
 3225TIP3    H131166   4.897   1.428   5.697 -0.7777 -1.3545  1.0253
 3225TIP3    H231167   4.852   1.551   5.773  0.2953 -0.0880 -0.3150
 3226TIP3   OH231168   0.003   2.566   4.413 -0.2871 -0.2616  0.7540
 3226TIP3    H131169   0.088   2.589   4.375 -1.2767 -2.0305 -3.0551
 3226TIP3    H231170   0.024   2.505   4.484  1.6218  0.5145  0.9172
 3227TIP3   OH231171   5.609   0.686  16.426 -0.9166 -0.1924  0.0300
 3227TIP3    H131172   5.638   0.740  16.353 -0.6258 -0.3566  0.0208
 3227TIP3    H231173   5.582   0.749  16.493 -1.6823 -0.0389 -0.4058
 3228TIP3   OH231174   5.339   5.765   0.554 -0.4751  0.7014 -0.3408
 3228TIP3    H131175   5.332   5.810   0.470 -2.3637  0.3244 -0.4294
 3228TIP3    H231176   5.419   5.799   0.593  0.6333  0.6537 -2.4161
 3229TIP3   OH231177   2.115   0.151  16.196 -0.6132  0.2259  0.4274
 3229TIP3    H131178   2.151   0.224  16.146 -2.7043  0.6037 -0.6515
 3229TIP3    H231179   2.187   0.122  16.252  0.8282  1.8999 -0.4611
 3230TIP3   OH231180   1.621   1.171   1.063 -0.1615  0.1839  0.2686
 3230TIP3    H131181   1.552   1.108   1.085 -0.2832  0.6285  1.2141
 3230TIP3    H231182   1.681   1.168   1.137 -0.1087  1.0947  0.2689
 3231TIP3   OH231183   2.777   4.565   0.699  0.2523  0.0021  0.2608
 3231TIP3    H131184   2.694   4.560   0.650  0.8322  0.0308 -0.7585
 3231TIP3    H231185   2.804   4.656   0.692  1.1250 -0.3115 -0.7307
 3232TIP3   OH231186   1.309   3.127   5.277 -0.2032  0.1112  0.1552
 3232TIP3    H131187   1.375   3.094   5.338 -0.3075 -3.2597 -1.3462
 3232TIP3    H231188   1.356   3.188   5.221  0.7782  0.3826  1.2347
 3233TIP3   OH231189   4.052   0.410  12.944 -0.7583  0.3880 -0.3377
 3233TIP3    H131190   4.091   0.439  13.026  0.8495  1.6441 -1.4657
 3233TIP3    H231191   4.007   0.488  12.910  0.6244  0.6299 -1.7444
 3234TIP3   OH231192   2.329   0.243   0.910 -0.9916  0.1161  0.0933
 3234TIP3    H131193   2.249   0.296   0.910 -0.8782  0.2867  0.0306
 3234TIP3    H231194   2.359   0.244   0.819  0.0350  1.4985  0.4083
 3235TIP3   OH231195   5.200   3.301   3.311  0.7527  0.5570  0.3779
 3235TIP3    H131196   5.226   3.256   3.230 -0.0024 -0.8378  0.8653
 3235TIP3    H231197   5.275   3.354   3.334  1.4536  0.0238 -0.5918
 3236TIP3   OH231198   5.219   2.733   0.480 -0.5840 -0.3087  0.3542
 3236TIP3    H131199   5.171   2.780   0.411 -0.8719 -0.1751  0.6446
 3236TIP3    H231200   5.190   2.774   0.561  0.1932 -0.0814  0.5197
 3237TIP3   OH231201   2.293   3.921   2.834 -1.1063  0.2809 -0.0854
 3237TIP3    H131202   2.276   3.997   2.778 -0.4388  2.0445  1.9545
 3237TIP3    H231203   2.384   3.898   2.815 -0.8784  0.8791  0.2544
 3238TIP3   OH231204   0.249   1.414  15.224  0.3192  0.2085  0.1421
 3238TIP3    H131205   0.236   1.365  15.143 -0.3619 -0.7291  0.7899
 3238TIP3    H231206   0.307   1.485  15.200 -1.3477  1.0711 -1.6127
 3239TIP3   OH231207   3.350   6.223  16.223 -0.0329 -0.2572  0.1759
 3239TIP3    H131208   3.299   6.142  16.227  0.6274 -0.7323 -0.6368
 3239TIP3    H231209   3.441   6.193  16.221  0.2300  0.5291  0.3383
 3240TIP3   OH231210   4.493   6.012   3.248 -0.3250  0.0626 -0.0161
 3240TIP3    H131211   4.526   5.947   3.186 -0.0859  0.1224  0.0488
 3240TIP3    H231212   4.463   5.960   3.323  0.9857  0.0872  0.5608
 3241TIP3   OH231213   5.690   2.367  16.008 -0.6191  0.1554 -0.2736
 3241TIP3    H131214   5.756   2.334  16.069 -1.1220  1.5894  1.1159
 3241TIP3    H231215   5.606   2.341  16.046 -0.9625  1.5587 -0.0165
 3242TIP3   OH231216   0.693   5.889   1.406  0.7125 -0.1837 -0.3091
 3242TIP3    H131217   0.710   5.826   1.477  1.7045 -0.5034 -0.8068
 3242TIP3    H231218   0.769   5.947   1.407  1.3253 -0.8996 -1.8382
 3243TIP3   OH231219   4.157   1.764  12.468  1.0879 -0.1478  0.6322
 3243TIP3    H131220   4.142   1.840  12.412 -1.0537 -0.2835  0.9476
 3243TIP3    H231221   4.181   1.694  12.408  1.1428  0.2848  0.1453
 3244TIP3   OH231222   6.268   6.148   1.651 -0.5299  1.1129 -0.1382
 3244TIP3    H131223   6.340   6.148   1.588 -1.1081  0.1715 -0.8127
 3244TIP3    H231224   6.211   6.219   1.622 -0.1231  1.5573  0.1264
 3245TIP3   OH231225   3.701   5.106  11.172 -0.4181 -0.2566 -0.2039
 3245TIP3    H131226   3.693   5.087  11.266 -1.3134  1.1863  0.0343
 3245TIP3    H231227   3.634   5.053  11.131 -0.0784 -0.8318 -0.0335
 3246TIP3   OH231228   5.115   1.493  15.320 -0.1216 -0.3409  0.0997
 3246TIP3    H131229   5.079   1.411  15.353 -0.1166 -0.1992  0.4610
 3246TIP3    H231230   5.139   1.543  15.399 -0.1980  0.0389 -0.1121
 3247TIP3   OH231231   5.855   0.517   1.645 -0.1196 -0.6932 -0.6712
 3247TIP3    H131232   5.882   0.605   1.617  1.3775 -1.5082 -1.9930
 3247TIP3    H231233   5.833   0.527   1.738  1.5627  0.7998 -0.3651
 3248TIP3   OH231234   3.069   0.868  11.010  0.0383  0.6051  0.2538
 3248TIP3    H131235   3.028   0.905  10.932 -1.6988  2.5501  1.9598
 3248TIP3    H231236   3.030   0.781  11.019 -0.5719  0.7989 -0.4607
 3249TIP3   OH231237   1.134   1.748   3.739 -0.5688  0.1193 -0.1638
 3249TIP3    H131238   1.077   1.711   3.671  0.7034 -0.5615 -0.8994
 3249TIP3    H231239   1.188   1.674   3.767  0.9088  1.0312 -0.4954
 3250TIP3   OH231240   1.601   6.760  17.152  0.1748  0.1358  0.1574
 3250TIP3    H131241   1.602   6.805  17.236 -0.1169 -0.4232  0.4646
 3250TIP3    H231242   1.527   6.799  17.105  0.1190  0.1961  0.2956
 3251TIP3   OH231243   6.197   1.542   0.878 -0.1253 -0.0599  0.6814
 3251TIP3    H131244   6.130   1.551   0.810  0.0408 -1.0636  0.3696
 3251TIP3    H231245   6.250   1.622   0.870 -0.5018  0.1365  0.0654
 3252TIP3   OH231246   0.155   0.845   2.188 -0.6616 -0.4926  0.5306
 3252TIP3    H131247   0.173   0.860   2.281 -0.4501  2.3903  0.0927
 3252TIP3    H231248   0.241   0.846   2.146 -0.8574 -0.4039  0.1249
 3253TIP3   OH231249   4.694   2.786   2.295 -0.2441  0.4971  0.0016
 3253TIP3    H131250   4.741   2.740   2.226 -0.1311 -0.3501  0.6339
 3253TIP3    H231251   4.754   2.784   2.370 -0.1597  1.8229  0.0096
 3254TIP3   OH231252   3.919   0.251  10.947 -0.1674 -0.6801 -0.6125
 3254TIP3    H131253   3.927   0.278  10.855  0.0526 -2.0425 -1.0223
 3254TIP3    H231254   3.843   0.192  10.948 -2.8659  2.5046  0.8998
 3255TIP3   OH231255   5.763   3.967  12.111  0.5725 -0.2991  0.1437
 3255TIP3    H131256   5.691   4.018  12.074  1.6049  1.1825  0.0645
 3255TIP3    H231257   5.835   4.030  12.119  1.7002 -1.6040  0.6973
 3256TIP3   OH231258   1.114   0.646   6.513 -0.3285 -0.0038 -0.1083
 3256TIP3    H131259   1.096   0.554   6.534  1.9043 -0.7825 -1.3196
 3256TIP3    H231260   1.072   0.695   6.584  0.9888 -2.0888  2.2882
 3257TIP3   OH231261   4.445   1.643   1.855  0.0069 -0.3513  0.2151
 3257TIP3    H131262   4.419   1.584   1.784 -1.2516 -1.6551  1.6809
 3257TIP3    H231263   4.514   1.697   1.817 -2.7764  1.2952 -3.0487
 3258TIP3   OH231264   5.074   4.016   3.633 -0.0890  0.2311  0.5537
 3258TIP3    H131265   5.115   3.936   3.665  0.5617  0.5894  0.6571
 3258TIP3    H231266   5.001   3.987   3.579  2.4278 -0.6377 -2.7148
 3259TIP3   OH231267   1.002   0.435  14.346 -0.3993 -0.0685 -0.2560
 3259TIP3    H131268   0.992   0.493  14.271  0.3288 -0.7019 -0.8585
 3259TIP3    H231269   0.999   0.347  14.309  0.3252 -0.3850  0.4029
 3260TIP3   OH231270   4.079   4.028  14.383 -0.1538 -0.3533 -0.2548
 3260TIP3    H131271   4.123   4.097  14.333  1.1980 -0.0055  1.3385
 3260TIP3    H231272   4.012   4.075  14.435 -0.7293 -0.5537 -0.8013
 3261TIP3   OH231273   3.582   0.442  13.291 -0.0456  0.3010 -0.1604
 3261TIP3    H131274   3.578   0.487  13.207 -0.1313  1.9343  0.6853
 3261TIP3    H231275   3.671   0.405  13.294  0.1741  0.7650 -0.7091
 3262TIP3   OH231276   2.250   6.463   5.650  0.0697 -0.0115 -0.7544
 3262TIP3    H131277   2.189   6.422   5.711 -0.1524  0.5373 -0.6022
 3262TIP3    H231278   2.311   6.393   5.626 -1.4086 -0.9532 -1.9678
 3263TIP3   OH231279   0.146   6.608   3.630  0.6537  0.4376 -0.3103
 3263TIP3    H131280   0.071   6.557   3.659  1.0259 -0.4805 -0.9185
 3263TIP3    H231281   0.126   6.633   3.540  1.2742 -0.2442 -0.6522
 3264TIP3   OH231282   0.487   4.665   4.011  0.3759  0.0070 -0.0219
 3264TIP3    H131283   0.398   4.654   4.045  0.8266  0.8248  1.5161
 3264TIP3    H231284   0.516   4.749   4.045  1.9241 -0.4741 -0.0683
 3265TIP3   OH231285   2.916   4.209  12.873 -0.3913  0.3121  0.1792
 3265TIP3    H131286   2.953   4.125  12.899  0.7214  0.4731 -0.8298
 3265TIP3    H231287   2.922   4.263  12.952  1.2993  0.2371  0.1365
 3266TIP3   OH231288   0.929   5.343  12.360 -0.2705  0.0284 -0.1962
 3266TIP3    H131289   1.019   5.334  12.392 -0.6321 -1.0032  0.6075
 3266TIP3    H231290   0.900   5.428  12.394  0.2598  0.1840 -0.1132
 3267TIP3   OH231291   3.047   4.949  16.488 -0.0875 -0.2969  0.1383
 3267TIP3    H131292   2.997   5.000  16.424 -1.1374 -0.9112  0.4383
 3267TIP3    H231293   3.058   5.008  16.562  1.2418  0.4607 -0.6345
 3268TIP3   OH231294   1.659   3.905  13.793 -0.1942 -0.2591 -0.4809
 3268TIP3    H131295   1.709   3.825  13.809  0.5075  0.3804  0.7292
 3268TIP3    H231296   1.568   3.877  13.789 -0.0752 -0.9868  1.1388
 3269TIP3   OH231297   5.071   6.136  15.382  0.2844 -0.4230  0.5688
 3269TIP3    H131298   4.987   6.090  15.375  0.5423 -0.6252 -2.1171
 3269TIP3    H231299   5.075   6.165  15.474 -1.9128 -1.8730  1.1954
 3270TIP3   OH231300   6.032   0.944   0.696  0.4257 -0.3894  0.3957
 3270TIP3    H131301   6.038   0.868   0.755 -0.8551 -0.6810  0.1823
 3270TIP3    H231302   5.986   1.010   0.746  0.8287 -0.0295  0.2982
 3271TIP3   OH231303   4.059   1.049   2.311  0.8702 -0.0055 -0.7111
 3271TIP3    H131304   4.014   0.973   2.347 -0.9142  0.5535 -1.6281
 3271TIP3    H231305   4.151   1.036   2.334  0.4461 -1.8679  0.0993
 3272TIP3   OH231306   5.056   3.230  11.422 -0.4027  0.2212  0.5029
 3272TIP3    H131307   5.026   3.154  11.471 -1.0022 -0.0743 -0.3134
 3272TIP3    H231308   5.116   3.195  11.357 -0.4468  0.4845  0.3178
 3273TIP3   OH231309   1.541   3.483   1.703 -0.5502  0.4201  0.4369
 3273TIP3    H131310   1.520   3.390   1.700 -2.4274  0.8021 -1.5950
 3273TIP3    H231311   1.591   3.499   1.623  0.7728  0.9973  1.3391
 3274TIP3   OH231312   6.183   2.281  12.684 -0.3718  0.2478 -0.0732
 3274TIP3    H131313   6.209   2.224  12.612 -0.7555  0.2412 -0.2059
 3274TIP3    H231314   6.127   2.347  12.644 -0.1324  0.5744  0.1221
 3275TIP3   OH231315   0.103   0.476   3.128 -0.2523  0.0955 -0.0640
 3275TIP3    H131316   0.163   0.415   3.170 -0.2371  0.8425  1.0568
 3275TIP3    H231317   0.102   0.552   3.186 -2.7370 -0.1226  0.3222
 3276TIP3   OH231318   2.684   6.520   1.558  0.0211  0.7386 -0.3595
 3276TIP3    H131319   2.630   6.532   1.636 -0.1368  1.5455 -0.5815
 3276TIP3    H231320   2.667   6.598   1.504  0.1789  0.2332 -1.1686
 3277TIP3   OH231321   6.590   6.627  11.348 -0.3953 -0.6916  0.1785
 3277TIP3    H131322   6.623   6.550  11.394  0.9092  1.6299  3.6396
 3277TIP3    H231323   6.668   6.666  11.308 -0.4211  0.3293  1.0551
 3278TIP3   OH231324   5.083   4.494   0.800  0.1540  0.1576  0.7729
 3278TIP3    H131325   5.039   4.574   0.831  0.0471  0.4456 -0.1012
 3278TIP3    H231326   5.176   4.512   0.811  0.0984 -0.6629  3.1506
 3279TIP3   OH231327   3.911   1.312  16.002  0.1667 -0.6717 -0.2796
 3279TIP3    H131328   3.881   1.374  15.936  1.7200  0.2122 -0.1998
 3279TIP3    H231329   3.952   1.241  15.952 -0.8299 -1.2239 -0.3367
 3280TIP3   OH231330   5.670   0.410  16.987 -0.0535  0.2155 -0.0869
 3280TIP3    H131331   5.587   0.446  16.955 -0.2896 -1.5544 -1.5895
 3280TIP3    H231332   5.658   0.406  17.082 -0.8009  2.0644 -0.0616
 3281TIP3   OH231333   5.517   6.298   1.658  0.4539  0.2034 -0.9528
 3281TIP3    H131334   5.540   6.358   1.729 -0.4422 -0.3822 -0.1353
 3281TIP3    H231335   5.585   6.311   1.593  0.5986  1.6861 -0.5489
 3282TIP3   OH231336   0.498   5.195   6.431  0.0604  0.1661 -0.2604
 3282TIP3    H131337   0.564   5.127   6.448 -0.8318 -0.9979 -1.3297
 3282TIP3    H231338   0.546   5.278   6.444  1.2903 -0.6414  0.6067
 3283TIP3   OH231339   4.070   0.804  11.895  0.4783 -0.0460  0.1446
 3283TIP3    H131340   4.148   0.822  11.947  1.6271  1.4687 -1.9645
 3283TIP3    H231341   4.080   0.713  11.868  0.6006 -0.3962  1.3069
 3284TIP3   OH231342   1.669   0.986  11.338  0.3521  0.0801 -0.5399
 3284TIP3    H131343   1.592   0.953  11.384  0.1112  1.1218 -0.1663
 3284TIP3    H231344   1.645   0.984  11.246 -0.4983  1.2680 -0.3721
 3285TIP3   OH231345   6.536   1.126   4.418  0.3983 -0.0028 -0.3990
 3285TIP3    H131346   6.508   1.217   4.426 -0.3692 -0.2216 -0.5065
 3285TIP3    H231347   6.610   1.118   4.478 -0.3489  0.3626  0.5909
 3286TIP3   OH231348   1.018   5.768  15.759 -1.0838  0.0306  0.8324
 3286TIP3    H131349   0.995   5.847  15.807 -2.7955  2.2999 -3.1448
 3286TIP3    H231350   1.100   5.790  15.714  0.1251 -1.7527  2.0329
 3287TIP3   OH231351   6.099   6.250  11.795  0.0512 -0.0569  0.3877
 3287TIP3    H131352   6.151   6.179  11.832  1.6096  0.0886 -1.3565
 3287TIP3    H231353   6.054   6.210  11.720  1.0003  0.7631 -0.6561
 3288TIP3   OH231354   3.064   5.329  17.154 -0.3617 -0.5314  0.0731
 3288TIP3    H131355   3.112   5.311  17.235  1.2977 -1.3914 -1.0391
 3288TIP3    H231356   2.984   5.277  17.161 -1.1034  0.7494  1.8715
 3289TIP3   OH231357   2.114   6.435  11.193  0.5702  0.0574 -0.8915
 3289TIP3    H131358   2.204   6.449  11.161  0.3928 -0.6533 -1.7626
 3289TIP3    H231359   2.108   6.340  11.205 -0.2470  0.0277 -1.4417
 3290TIP3   OH231360   5.013   4.769  15.178 -0.5743  0.2946  0.9846
 3290TIP3    H131361   5.004   4.855  15.135  1.2197 -0.2877 -0.7299
 3290TIP3    H231362   4.998   4.706  15.107 -0.4031 -0.7795  1.8858
 3291TIP3   OH231363   3.599   6.075  14.800  0.1825  0.0071  0.3115
 3291TIP3    H131364   3.554   5.992  14.812 -0.0956  0.2072  0.6904
 3291TIP3    H231365   3.530   6.141  14.808  0.7655  0.4293  2.6986
 3292TIP3   OH231366   3.299   6.531   1.603 -0.2229 -0.3107  0.1059
 3292TIP3    H131367   3.231   6.530   1.535  0.2761 -0.3282 -0.4051
 3292TIP3    H231368   3.334   6.442   1.603 -0.0556 -0.2452  0.2166
 3293TIP3   OH231369   5.345   1.284   2.156 -0.5332  0.2320  0.5007
 3293TIP3    H131370   5.427   1.282   2.106 -1.1962  1.7796 -0.7292
 3293TIP3    H231371   5.370   1.313   2.243  0.3506 -0.3094  0.4422
 3294TIP3   OH231372   0.542   2.397   6.390 -0.3603 -0.1024  0.1580
 3294TIP3    H131373   0.492   2.445   6.324 -0.1811 -1.3167 -0.9019
 3294TIP3    H231374   0.612   2.354   6.341  2.1086  1.9064  1.6441
 3295TIP3   OH231375   4.353   2.011   0.613 -0.2562  0.6136  0.0217
 3295TIP3    H131376   4.280   1.955   0.637 -0.3678  0.9692  0.5550
 3295TIP3    H231377   4.407   2.015   0.693 -0.0276  0.9134 -0.1441
 3296TIP3   OH231378   1.560   4.633   3.979 -0.2259  0.2030 -0.3642
 3296TIP3    H131379   1.588   4.598   3.894  3.4914 -2.2181  1.6107
 3296TIP3    H231380   1.484   4.581   4.002 -1.2629  0.8559 -2.0679
 3297TIP3   OH231381   3.134   6.669  12.986  0.4510 -0.0955  0.0484
 3297TIP3    H131382   3.223   6.646  12.959  0.4626  1.0720 -0.9805
 3297TIP3    H231383   3.085   6.587  12.978  1.4033 -0.7330  0.5544
 3298TIP3   OH231384   1.285   0.910   1.801 -0.4249  0.4574 -0.2537
 3298TIP3    H131385   1.326   0.980   1.750  0.1146 -0.0033 -0.4580
 3298TIP3    H231386   1.198   0.945   1.823 -0.6075  0.7296 -1.3483
 3299TIP3   OH231387   3.299   5.476  14.269 -1.0886  0.6429  0.0868
 3299TIP3    H131388   3.222   5.428  14.241 -1.6438  0.2663  2.0931
 3299TIP3    H231389   3.266   5.564  14.291 -1.7207 -0.3822  3.9999
 3300TIP3   OH231390   3.580   2.919   4.273  0.1332  0.1924 -0.1564
 3300TIP3    H131391   3.557   2.954   4.188 -0.0299  2.2925  0.7075
 3300TIP3    H231392   3.508   2.858   4.294 -1.4644  1.9696 -0.2097
 3301TIP3   OH231393   2.713   4.001   3.092  0.3433 -0.6744 -0.1992
 3301TIP3    H131394   2.729   4.042   3.177  0.3651 -0.8188 -0.1331
 3301TIP3    H231395   2.627   3.959   3.102 -0.7724  1.2823 -0.9988
 3302TIP3   OH231396   0.345   4.555  15.149 -0.1063 -0.0277  0.0296
 3302TIP3    H131397   0.331   4.587  15.060 -1.1823  0.7650  0.4637
 3302TIP3    H231398   0.258   4.558  15.189  0.4124 -0.1100  1.1940
 3303TIP3   OH231399   3.192   3.540   3.282 -0.1539 -0.2198 -0.4014
 3303TIP3    H131400   3.278   3.582   3.283 -0.5491  0.6208 -0.7828
 3303TIP3    H231401   3.190   3.485   3.360  0.3503  0.5264  0.1428
 3304TIP3   OH231402   1.195   3.076  13.612 -0.0297  0.0198 -0.5382
 3304TIP3    H131403   1.186   3.037  13.699  1.6648 -0.2968 -0.4670
 3304TIP3    H231404   1.113   3.056  13.567  0.1197 -2.2075  0.0700
 3305TIP3   OH231405   1.080   6.449   4.823  0.6547  0.1555 -0.5857
 3305TIP3    H131406   1.029   6.371   4.848  0.7075  0.2434 -0.1863
 3305TIP3    H231407   1.021   6.522   4.841  0.4079  0.1775 -1.4814
 3306TIP3   OH231408   0.849   4.201  11.542  0.0425  0.5168  0.1865
 3306TIP3    H131409   0.765   4.174  11.579 -0.4854  2.1336  0.2708
 3306TIP3    H231410   0.914   4.176  11.607 -0.3508 -0.8458  0.0793
 3307TIP3   OH231411   0.728   0.798   3.873 -0.3243  0.1075  0.2381
 3307TIP3    H131412   0.803   0.777   3.816  0.3617  1.5615  0.5571
 3307TIP3    H231413   0.683   0.714   3.885 -0.1027 -0.3756 -1.8806
 3308TIP3   OH231414   3.093   5.212   5.870  0.1800 -0.0937 -0.4078
 3308TIP3    H131415   3.080   5.304   5.895 -0.5371 -0.5484  1.0579
 3308TIP3    H231416   3.013   5.168   5.899  0.8868 -1.3379 -0.2555
 3309TIP3   OH231417   0.860   1.439   2.457 -0.4401 -0.2810 -0.0809
 3309TIP3    H131418   0.930   1.376   2.474 -1.8193 -1.2206  2.8273
 3309TIP3    H231419   0.784   1.385   2.433 -0.6284  0.6040 -1.5935
 3310TIP3   OH231420   1.968   2.034   0.208 -0.1059  0.5425  0.0440
 3310TIP3    H131421   2.032   1.976   0.166  0.0469  1.8628 -1.7057
 3310TIP3    H231422   1.990   2.032   0.301  1.9967  0.3244 -0.4083
 3311TIP3   OH231423   3.917   3.593   1.124 -0.5644 -0.1264  0.8424
 3311TIP3    H131424   3.903   3.686   1.141 -1.7274  0.3202 -2.0497
 3311TIP3    H231425   3.880   3.578   1.037  1.0660 -2.9543  0.4991
 3312TIP3   OH231426   5.180   6.756  15.458 -0.6794  0.1693 -0.3562
 3312TIP3    H131427   5.145   6.723  15.375  1.2514 -1.0166 -0.7726
 3312TIP3    H231428   5.208   6.677  15.505  1.0548  0.9914  0.0648
 3313TIP3   OH231429   2.736   1.902   3.133  0.5606  0.2732 -0.4560
 3313TIP3    H131430   2.799   1.883   3.203 -0.1750  2.7805  1.0150
 3313TIP3    H231431   2.661   1.846   3.152  1.3988 -1.0723 -0.9124
 3314TIP3   OH231432   5.877   5.135  10.655  0.5580  0.5958 -0.1175
 3314TIP3    H131433   5.862   5.061  10.713 -2.8045  0.2020 -1.3023
 3314TIP3    H231434   5.921   5.200  10.710  2.0562 -1.5784  1.4103
 3315TIP3   OH231435   1.478   3.768   1.443  0.5807  0.2853 -0.2425
 3315TIP3    H131436   1.526   3.847   1.465  1.4889 -0.4361  0.4348
 3315TIP3    H231437   1.514   3.700   1.500  1.8625 -1.3092 -2.7511
 3316TIP3   OH231438   5.702   5.839   4.690  0.3649 -0.6351 -0.1385
 3316TIP3    H131439   5.698   5.935   4.696 -0.9203 -0.7496  1.3220
 3316TIP3    H231440   5.627   5.808   4.741  1.3667 -2.4615  0.3204
 3317TIP3   OH231441   4.088   6.606   3.288  0.6507 -0.1852 -0.1463
 3317TIP3    H131442   4.008   6.659   3.283  0.3413 -0.7427 -1.5390
 3317TIP3    H231443   4.157   6.668   3.312  0.3957  0.9708 -2.2173
 3318TIP3   OH231444   4.923   5.687  13.575  0.2851 -0.6641  0.4668
 3318TIP3    H131445   4.900   5.763  13.522  0.8687  0.6494  2.0224
 3318TIP3    H231446   4.921   5.614  13.513 -0.2548  0.5973 -1.0882
 3319TIP3   OH231447   6.236   1.708  16.970 -0.5841  0.1856  0.1972
 3319TIP3    H131448   6.234   1.723  16.876  0.0465  1.0620  0.3095
 3319TIP3    H231449   6.182   1.778  17.007  0.3871  0.7614  0.5741
 3320TIP3   OH231450   5.560   0.451   1.576 -0.3449  0.2293  0.4724
 3320TIP3    H131451   5.627   0.495   1.627  1.4556 -0.5454 -1.1005
 3320TIP3    H231452   5.544   0.511   1.502 -0.6304 -0.0596  0.2998
 3321TIP3   OH231453   4.456   0.378   2.506  0.0463 -0.2540 -0.3492
 3321TIP3    H131454   4.496   0.460   2.536 -0.4500 -0.4722  1.0004
 3321TIP3    H231455   4.528   0.315   2.507 -0.0759 -0.4236  1.1642
 3322TIP3   OH231456   5.357   2.376   1.962 -0.2993 -0.3940  0.6005
 3322TIP3    H131457   5.307   2.378   1.880 -1.2749 -2.2606  1.0880
 3322TIP3    H231458   5.303   2.424   2.024 -0.1600 -0.0460  0.4518
 3323TIP3   OH231459   2.660   2.521   2.885  0.1581  0.0318 -0.0210
 3323TIP3    H131460   2.636   2.537   2.976  1.1534  2.6091 -0.1151
 3323TIP3    H231461   2.596   2.573   2.835 -0.2743 -1.2267 -0.8217
 3324TIP3   OH231462   1.567   5.378   5.058 -0.1463  0.2394  0.7208
 3324TIP3    H131463   1.623   5.377   4.980 -0.2270  0.4927  0.6597
 3324TIP3    H231464   1.628   5.368   5.131  0.3151  3.0703  0.8483
 3325TIP3   OH231465   1.575   0.022   2.635 -0.4234  0.2356 -0.2027
 3325TIP3    H131466   1.625  -0.016   2.563 -1.6824  0.0017 -0.9723
 3325TIP3    H231467   1.593   0.116   2.630 -1.0150  0.3075 -1.2463
 3326TIP3   OH231468   1.782   5.493   0.782  0.4201 -0.1826  0.1736
 3326TIP3    H131469   1.781   5.519   0.874  0.3882  2.4949 -0.5016
 3326TIP3    H231470   1.824   5.407   0.782 -0.3237 -0.6276  2.7461
 3327TIP3   OH231471   6.156   1.259   4.215  0.5242  0.2335  1.0913
 3327TIP3    H131472   6.145   1.225   4.303  0.5846  1.5755  1.6397
 3327TIP3    H231473   6.228   1.208   4.178  1.2872  0.4550  2.2465
 3328TIP3   OH231474   1.217   0.746  12.120 -0.4271  0.2099  0.1131
 3328TIP3    H131475   1.186   0.814  12.180  2.0923  2.3545 -0.8212
 3328TIP3    H231476   1.243   0.794  12.041  0.4081 -2.0094 -1.0489
 3329TIP3   OH231477   5.024   3.940   6.361 -0.0679 -0.0562  0.2545
 3329TIP3    H131478   4.976   3.968   6.440  0.2138  0.2959  0.3018
 3329TIP3    H231479   5.044   3.848   6.378 -0.0624 -0.0001  0.5695
 3330TIP3   OH231480   5.958   4.223  17.042 -0.5614 -0.4679 -0.2338
 3330TIP3    H131481   5.969   4.294  16.978 -1.4351 -0.7637 -0.7283
 3330TIP3    H231482   5.998   4.257  17.122  0.3634 -0.0075 -0.8693
 3331TIP3   OH231483   3.142   1.861  16.655  0.0869  0.0389  0.0182
 3331TIP3    H131484   3.165   1.894  16.568  0.7294 -0.5625 -0.0558
 3331TIP3    H231485   3.226   1.831  16.692 -0.4986 -1.9389 -0.1183
 3332TIP3   OH231486   0.386   6.801   5.145 -0.3982  0.0200 -0.4132
 3332TIP3    H131487   0.426   6.761   5.067 -1.4199 -0.6780 -0.6005
 3332TIP3    H231488   0.444   6.774   5.216  0.1983  0.1373 -0.8356
 3333TIP3   OH231489   3.467   1.140  12.026 -0.1413  0.0726  0.2345
 3333TIP3    H131490   3.442   1.227  12.058  1.2477  0.6459 -0.1488
 3333TIP3    H231491   3.496   1.093  12.104  0.4111  0.4458  0.2650
 3334TIP3   OH231492   5.928   6.839   5.667  0.1791 -0.0799 -0.0414
 3334TIP3    H131493   5.982   6.775   5.620 -0.1748  0.8623 -1.7776
 3334TIP3    H231494   5.840   6.826   5.632 -0.2119  0.2517  0.8028
 3335TIP3   OH231495   3.428   3.586   3.400  0.2799  0.1533  0.7425
 3335TIP3    H131496   3.479   3.652   3.447  1.1761 -0.3522  0.4846
 3335TIP3    H231497   3.491   3.518   3.377 -0.2340  0.1524 -0.7720
 3336TIP3   OH231498   1.938   1.329  15.725  0.3092 -0.0642  0.2096
 3336TIP3    H131499   1.885   1.306  15.649  0.0618 -0.5401  0.5204
 3336TIP3    H231500   1.899   1.409  15.759 -0.1475 -0.3510  0.3697
 3337TIP3   OH231501   4.189   0.997  13.216 -0.0687  0.1564 -0.5403
 3337TIP3    H131502   4.137   0.928  13.176  1.3846 -0.6565 -1.1299
 3337TIP3    H231503   4.196   1.065  13.149 -0.8219  0.5247 -0.2540
 3338TIP3   OH231504   2.183   6.450  16.797  0.6496  0.2042 -0.0111
 3338TIP3    H131505   2.128   6.526  16.816 -0.0046 -0.1935 -0.2915
 3338TIP3    H231506   2.224   6.428  16.881  2.9080  2.4331 -0.4034
 3339TIP3   OH231507   3.605   1.669   3.014 -0.4501 -0.9742  0.3883
 3339TIP3    H131508   3.635   1.694   3.101  0.9604 -1.4053  0.0583
 3339TIP3    H231509   3.588   1.752   2.969  2.3693 -0.5614 -0.0869
 3340TIP3   OH231510   3.318   1.917  12.076 -0.1712  0.5882 -0.4601
 3340TIP3    H131511   3.273   1.985  12.126 -1.3448 -0.8627  0.5481
 3340TIP3    H231512   3.292   1.933  11.985  1.0295  2.5374 -0.5220
 3341TIP3   OH231513   1.099   6.431   2.939 -0.3073 -0.3632  0.3835
 3341TIP3    H131514   1.154   6.352   2.939 -1.9394 -1.5631 -0.9173
 3341TIP3    H231515   1.086   6.451   2.846  1.8921  2.8615  0.5893
 3342TIP3   OH231516   3.740   1.885  14.604 -0.0045  0.1091  0.7018
 3342TIP3    H131517   3.694   1.836  14.536 -0.1667  0.7550  0.3279
 3342TIP3    H231518   3.757   1.971  14.563 -0.4186  0.6266  1.5943
 3343TIP3   OH231519   3.565   5.026  15.907 -0.5636  0.1439  0.4522
 3343TIP3    H131520   3.517   4.980  15.975  0.3078  0.7018  1.4735
 3343TIP3    H231521   3.656   4.998  15.919 -0.6972 -1.7161 -2.1064
 3344TIP3   OH231522   1.849   4.892   3.163  0.0475 -0.1492 -0.7778
 3344TIP3    H131523   1.845   4.963   3.099  2.6840  0.1884 -0.6809
 3344TIP3    H231524   1.913   4.831   3.127 -0.8331 -1.6037  0.0287
 3345TIP3   OH231525   6.379   4.017   5.937 -0.2903 -0.6745 -0.2938
 3345TIP3    H131526   6.460   3.991   5.895  1.0744  2.5652  0.0038
 3345TIP3    H231527   6.364   4.107   5.907 -1.9617  0.0086  2.2248
 3346TIP3   OH231528   4.598   4.569   5.632 -0.2804 -0.3161  0.2492
 3346TIP3    H131529   4.535   4.524   5.688 -0.3715 -0.2412  0.2076
 3346TIP3    H231530   4.683   4.534   5.658 -0.2369  0.3302  1.0210
 3347TIP3   OH231531   3.332   4.663  11.277 -0.0425  0.0133 -0.2914
 3347TIP3    H131532   3.376   4.599  11.333 -1.6451 -0.6022  0.3222
 3347TIP3    H231533   3.311   4.736  11.334 -0.9741 -0.2705 -0.2578
 3348TIP3   OH231534   1.464   4.091  14.441 -0.0895 -0.1842 -0.2605
 3348TIP3    H131535   1.475   4.076  14.535 -2.7483 -0.3889  0.1149
 3348TIP3    H231536   1.550   4.119  14.411  0.7724  0.2464  2.3002
 3349TIP3   OH231537   4.505   3.542  15.462 -0.2669 -0.1861  0.1845
 3349TIP3    H131538   4.417   3.511  15.482 -0.0505  0.0093  1.5550
 3349TIP3    H231539   4.543   3.563  15.548  0.0972  2.4489 -0.5180
 3350TIP3   OH231540   3.642   6.320   0.415 -0.6545 -0.3213 -0.1800
 3350TIP3    H131541   3.561   6.366   0.390 -1.2293 -1.9823 -1.5968
 3350TIP3    H231542   3.695   6.387   0.457 -2.6503  0.9055  0.5700
 3351TIP3   OH231543   1.918   1.066  14.347 -0.3400 -0.3868  0.3640
 3351TIP3    H131544   1.834   1.020  14.346 -0.0822 -0.8555 -0.1681
 3351TIP3    H231545   1.898   1.150  14.389 -1.0785 -0.4831  0.2313
 3352TIP3   OH231546   0.606   2.587  12.651  0.0162  0.2265 -0.6721
 3352TIP3    H131547   0.573   2.570  12.563 -0.8832 -0.1876 -0.2566
 3352TIP3    H231548   0.600   2.682  12.661 -0.2489  0.2354 -0.9124
 3353TIP3   OH231549   6.711   0.253   5.209 -0.1728  0.4129 -0.3860
 3353TIP3    H131550   6.734   0.324   5.269 -1.5332  0.4185  0.1663
 3353TIP3    H231551   6.710   0.175   5.264 -1.0565  0.3575 -0.4699
 3354TIP3   OH231552   0.258   1.487   4.957 -0.2983  0.2076 -0.5266
 3354TIP3    H131553   0.248   1.567   5.009 -0.8192 -0.4888  0.4781
 3354TIP3    H231554   0.208   1.503   4.877 -0.6108  0.7826 -0.2189
 3355TIP3   OH231555   1.572   6.809   1.506  0.0702  0.2169 -0.0147
 3355TIP3    H131556   1.626   6.846   1.437  1.7282 -0.6700  0.7505
 3355TIP3    H231557   1.492   6.862   1.506  1.0413  1.7324 -1.0098
 3356TIP3   OH231558   1.834   2.602   1.682 -0.0546  0.4660 -0.0604
 3356TIP3    H131559   1.751   2.614   1.636  0.2688 -0.8958 -1.0691
 3356TIP3    H231560   1.901   2.610   1.614  0.6367  1.2999  0.6994
 3357TIP3   OH231561   0.025   1.125  12.028 -0.0426 -0.1829 -0.6226
 3357TIP3    H131562  -0.047   1.181  11.999 -0.2699 -0.0132  0.2485
 3357TIP3    H231563   0.054   1.081  11.948 -0.6450  0.2776 -1.1082
 3358TIP3   OH231564   5.415   6.176   2.866  0.4457 -0.2781  0.2880
 3358TIP3    H131565   5.471   6.248   2.895 -0.6338 -0.0244  1.8502
 3358TIP3    H231566   5.473   6.100   2.863  1.0551  0.1473  1.0321
 3359TIP3   OH231567   2.336   1.929   2.221 -0.5358  0.0451  0.0403
 3359TIP3    H131568   2.399   1.881   2.169  0.3017  0.2448  0.8466
 3359TIP3    H231569   2.267   1.954   2.159  0.6243  0.6446 -1.0445
 3360TIP3   OH231570   0.081   3.712  11.013  0.0083  0.1534 -0.4615
 3360TIP3    H131571  -0.002   3.757  11.026  1.3115  2.9171 -1.0418
 3360TIP3    H231572   0.057   3.623  10.986 -2.7260  0.7829 -0.2877
 3361TIP3   OH231573   1.218   6.137  16.061  0.9810  0.1177  0.1853
 3361TIP3    H131574   1.245   6.226  16.038  0.4591 -0.1819 -1.6890
 3361TIP3    H231575   1.124   6.145  16.080  0.3055 -0.3980 -2.5146
 3362TIP3   OH231576   5.978   5.265   3.581 -0.2640  0.0482  0.2438
 3362TIP3    H131577   5.979   5.286   3.487  2.3080  0.0185  0.1975
 3362TIP3    H231578   6.065   5.288   3.612 -1.3717  1.0751  2.9235
 3363TIP3   OH231579   2.163   2.723  12.379  0.3763 -0.2632 -0.2648
 3363TIP3    H131580   2.214   2.726  12.298  1.4591  0.9450  0.4270
 3363TIP3    H231581   2.189   2.802  12.427 -0.5399 -0.7419  1.0845
 3364TIP3   OH231582   1.955   2.316  13.867 -1.1829  0.1697  0.1742
 3364TIP3    H131583   2.004   2.397  13.849 -1.7217  0.6940  1.0025
 3364TIP3    H231584   1.873   2.327  13.819 -1.4789  0.3593  0.7144
 3365TIP3   OH231585   2.633   3.916  16.622 -0.0754  0.3035  0.2959
 3365TIP3    H131586   2.563   3.906  16.558 -0.6393  0.2148  0.9118
 3365TIP3    H231587   2.702   3.963  16.575 -0.4391  0.1648 -0.3944
 3366TIP3   OH231588   6.319   0.325   4.589  0.4346  0.7097 -0.1279
 3366TIP3    H131589   6.237   0.366   4.616  0.1991 -0.1186  0.4568
 3366TIP3    H231590   6.369   0.315   4.670 -0.3153 -1.8912  0.1045
 3367TIP3   OH231591   5.746   3.092  16.264 -0.9482  0.1933  0.3707
 3367TIP3    H131592   5.733   3.067  16.355 -1.4434  1.2696  0.6090
 3367TIP3    H231593   5.836   3.122  16.260  0.0146 -2.4526 -0.1465
 3368TIP3   OH231594   2.576   4.626   4.766 -0.4410  0.8529 -0.1237
 3368TIP3    H131595   2.527   4.560   4.716  1.3718  1.2186 -2.5740
 3368TIP3    H231596   2.548   4.710   4.729  1.9078  1.0659 -1.6222
 3369TIP3   OH231597   5.672   6.389  16.496  0.9205  0.4435  0.1115
 3369TIP3    H131598   5.707   6.337  16.424  0.9880  2.2657 -1.2498
 3369TIP3    H231599   5.616   6.455  16.454 -2.2014 -0.7642  2.0210
 3370TIP3   OH231600   6.315   1.484   5.691 -0.9237 -0.4454  0.0475
 3370TIP3    H131601   6.356   1.399   5.677  0.9266  0.4638 -0.2926
 3370TIP3    H231602   6.268   1.474   5.774  0.3290 -1.4288  0.6799
 3371TIP3   OH231603   2.430   2.788   1.758 -0.1296  0.5334  0.0474
 3371TIP3    H131604   2.513   2.776   1.805 -0.0357  3.5160  0.8893
 3371TIP3    H231605   2.363   2.780   1.825 -0.4450 -0.4978 -0.3743
 3372TIP3   OH231606   3.592   2.527  16.092  0.0591  0.8069  0.0622
 3372TIP3    H131607   3.538   2.589  16.141 -1.4466 -0.7920  0.5464
 3372TIP3    H231608   3.618   2.461  16.157 -0.5692 -0.4430 -0.8995
 3373TIP3   OH231609   4.026   5.902  12.419  0.2512  0.3143 -0.2039
 3373TIP3    H131610   4.027   5.828  12.479  1.6306 -0.9650 -1.6887
 3373TIP3    H231611   4.061   5.976  12.469  2.4767 -0.9966  0.2909
 3374TIP3   OH231612   3.813   4.610  12.730  0.6908 -0.0033  0.3766
 3374TIP3    H131613   3.881   4.611  12.663  0.8708  2.8210  0.4598
 3374TIP3    H231614   3.731   4.613  12.681  0.8265  2.6755  0.1256
 3375TIP3   OH231615   3.277   1.495   0.526  0.0445 -0.1284  0.6688
 3375TIP3    H131616   3.225   1.417   0.508  0.5241 -0.9574  2.6033
 3375TIP3    H231617   3.247   1.525   0.612 -1.4585  2.9979 -0.8132
 3376TIP3   OH231618   3.567   0.922  12.662  0.4928 -0.2719 -0.4472
 3376TIP3    H131619   3.486   0.945  12.707  0.6295 -0.6084 -0.0214
 3376TIP3    H231620   3.612   1.006  12.649  0.6067 -0.2023  0.3512
 3377TIP3   OH231621   3.998   5.629   3.007 -0.3809  0.0278 -0.3634
 3377TIP3    H131622   4.061   5.616   3.078 -0.8955  0.7711  0.2452
 3377TIP3    H231623   4.028   5.571   2.937  0.9022  0.2914 -0.0435
 3378TIP3   OH231624   6.091   0.926  13.113 -0.5068  0.2558  0.3529
 3378TIP3    H131625   6.152   0.930  13.040 -0.2163  0.6356  0.6126
 3378TIP3    H231626   6.007   0.900  13.074 -0.2917  0.1965 -0.0713
 3379TIP3   OH231627   3.975   4.108   2.266 -0.0655  0.0124 -0.1352
 3379TIP3    H131628   3.913   4.049   2.309 -1.2708  3.0513  2.7042
 3379TIP3    H231629   3.927   4.144   2.191  0.4274 -1.8894 -1.4402
 3380TIP3   OH231630   1.297   4.203   0.921 -0.6499 -0.0337  0.4404
 3380TIP3    H131631   1.290   4.232   0.830 -1.5862 -0.1612  0.4609
 3380TIP3    H231632   1.214   4.230   0.961 -0.0354  0.5058  1.4004
 3381TIP3   OH231633   2.913   3.435   4.898 -0.0855  0.3081 -0.1639
 3381TIP3    H131634   2.968   3.502   4.938 -1.3362  0.7506  0.8976
 3381TIP3    H231635   2.833   3.436   4.950 -1.7948  0.8194 -2.6438
 3382TIP3   OH231636   3.647   3.034  16.991 -0.2100 -0.3720  0.1880
 3382TIP3    H131637   3.696   2.965  16.946  0.4294 -1.0736  1.8725
 3382TIP3    H231638   3.705   3.062  17.061 -1.4611  0.1221  1.0615
 3383TIP3   OH231639   4.676   0.448   5.748 -0.0939 -0.0305  0.4196
 3383TIP3    H131640   4.657   0.477   5.659 -1.7416  0.1768  0.8009
 3383TIP3    H231641   4.731   0.517   5.786 -2.3138  1.7128  0.6765
 3384TIP3   OH231642   3.211   4.372   1.344  0.5367  0.4357  0.1285
 3384TIP3    H131643   3.248   4.287   1.366 -0.5572  0.1083  0.7739
 3384TIP3    H231644   3.280   4.416   1.295  1.2360 -0.6921  0.0656
 3385TIP3   OH231645   1.488   0.509   5.097  0.2152 -0.6607  0.3169
 3385TIP3    H131646   1.553   0.580   5.102  1.1973 -1.5737  0.9488
 3385TIP3    H231647   1.509   0.452   5.171 -0.2261 -1.8898 -0.4661
 3386TIP3   OH231648   4.049   0.206  13.900 -0.0617  1.0040 -0.0698
 3386TIP3    H131649   3.975   0.204  13.839 -0.7672  0.4542  0.7748
 3386TIP3    H231650   4.057   0.116  13.931  0.1962  1.2886  0.7373
 3387TIP3   OH231651   0.175   4.028   4.540 -0.3574  0.5946 -0.4010
 3387TIP3    H131652   0.236   3.982   4.482  0.7193  0.7854  0.5219
 3387TIP3    H231653   0.192   4.121   4.524 -0.5433  0.6493 -0.2830
 3388TIP3   OH231654   1.672   4.481  15.365 -0.4137  0.0819  0.0995
 3388TIP3    H131655   1.744   4.490  15.427 -0.6171  1.8607  0.1281
 3388TIP3    H231656   1.624   4.564  15.371 -0.7849  0.0823 -1.9860
 3389TIP3   OH231657   1.659   1.190   4.853 -0.3351  0.2303 -0.6424
 3389TIP3    H131658   1.715   1.256   4.893 -0.1424 -1.7915  2.7688
 3389TIP3    H231659   1.719   1.134   4.803 -0.0242  0.6651 -0.7636
 3390TIP3   OH231660   4.133   1.907   3.598  0.3885  0.3888  0.3316
 3390TIP3    H131661   4.192   1.831   3.601  1.1152  0.9078 -0.4417
 3390TIP3    H231662   4.069   1.890   3.667  0.5897 -0.8866  0.2237
 3391TIP3   OH231663   5.356   0.140  15.335  0.2069  0.5167  0.9681
 3391TIP3    H131664   5.377   0.068  15.395  2.1360 -0.0753 -0.3144
 3391TIP3    H231665   5.284   0.107  15.282 -0.3572  0.3786  1.8039
 3392TIP3   OH231666   6.544   2.831  15.807  0.6458 -0.3516  0.0031
 3392TIP3    H131667   6.614   2.777  15.770 -0.6831 -1.2114 -1.3504
 3392TIP3    H231668   6.532   2.798  15.896  2.6075  0.4941  0.6499
 3393TIP3   OH231669   3.469   0.227  12.933  0.0340 -0.0325  0.0385
 3393TIP3    H131670   3.411   0.258  13.002  2.3239  0.7703  1.7555
 3393TIP3    H231671   3.481   0.134  12.952 -1.3889 -0.4457 -0.9259
 3394TIP3   OH231672   0.775   2.833   1.648  0.2659 -0.2269 -0.1681
 3394TIP3    H131673   0.820   2.850   1.565  1.3725 -2.6019 -0.1591
 3394TIP3    H231674   0.692   2.793   1.622 -0.9173  2.0498 -0.1298
 3395TIP3   OH231675   5.332   1.866   2.043 -0.4410 -0.0976  0.0564
 3395TIP3    H131676   5.274   1.890   1.970 -1.7920  1.6235  1.6003
 3395TIP3    H231677   5.362   1.950   2.077 -0.8152 -0.7900  2.2245
 3396TIP3   OH231678   4.742   1.092   0.119  0.3252  0.7605 -0.5162
 3396TIP3    H131679   4.741   1.102   0.215 -0.1282  2.1308 -0.6491
 3396TIP3    H231680   4.653   1.065   0.097 -0.1752  2.4880 -0.7275
 3397TIP3   OH231681   6.522   4.220   0.324  0.0698  0.0181 -0.3539
 3397TIP3    H131682   6.506   4.313   0.307  1.0054 -0.0379 -1.7186
 3397TIP3    H231683   6.502   4.177   0.242  0.8964 -0.8213 -0.1282
 3398TIP3   OH231684   3.474   2.483   5.151 -0.4793  0.2758  0.3006
 3398TIP3    H131685   3.546   2.535   5.116 -0.0065 -1.1284 -0.9424
 3398TIP3    H231686   3.510   2.441   5.229 -0.4066  0.6780  0.4846
 3399TIP3   OH231687   4.811   5.172  14.269  0.4218 -0.3412  0.3901
 3399TIP3    H131688   4.882   5.226  14.233  0.8815 -0.9414  0.3849
 3399TIP3    H231689   4.852   5.121  14.338 -0.4006  0.6002  1.6294
 3400TIP3   OH231690   4.328   0.440   5.543  0.4396 -0.0117 -0.0678
 3400TIP3    H131691   4.360   0.448   5.453  1.0338  0.5570  0.1855
 3400TIP3    H231692   4.330   0.529   5.578  0.9498 -0.3207  0.7470
 3401TIP3   OH231693   2.971   4.491  12.252 -0.1220  0.5513 -0.3889
 3401TIP3    H131694   2.882   4.511  12.221 -0.8258 -0.6688  0.7370
 3401TIP3    H231695   2.959   4.461  12.342  1.6009  1.6691  0.2754
 3402TIP3   OH231696   3.022   5.599  15.896 -0.3059 -0.5800 -0.0596
 3402TIP3    H131697   3.077   5.581  15.820 -0.5375 -1.7638  0.0351
 3402TIP3    H231698   3.081   5.639  15.960  0.1087 -0.5040 -0.4902
 3403TIP3   OH231699   3.054   3.673   0.085 -0.2363  0.2868 -0.0037
 3403TIP3    H131700   2.989   3.728   0.043  0.2430  0.7734 -0.1284
 3403TIP3    H231701   3.007   3.628   0.155 -0.8125  0.2413 -0.4137
 3404TIP3   OH231702   4.227   1.398  17.065 -0.2334 -0.1340  0.9609
 3404TIP3    H131703   4.241   1.491  17.049  0.4068 -0.1666  1.3130
 3404TIP3    H231704   4.231   1.357  16.979 -1.4292  0.2719  0.6923
 3405TIP3   OH231705   5.206   4.966   1.164 -0.5100 -0.4403 -0.4132
 3405TIP3    H131706   5.285   5.019   1.158 -1.0216  0.4384  0.3426
 3405TIP3    H231707   5.163   4.978   1.079  0.3031 -1.1981 -0.9610
 3406TIP3   OH231708   0.046   4.491  12.871 -0.1677  0.2226  0.2923
 3406TIP3    H131709  -0.047   4.471  12.885 -0.5008  1.6573  0.2738
 3406TIP3    H231710   0.050   4.587  12.866  1.3418  0.1979  0.4575
 3407TIP3   OH231711   0.656   6.160  14.065 -0.0138 -0.5520  0.1975
 3407TIP3    H131712   0.599   6.084  14.060 -0.0832 -0.4518 -3.5957
 3407TIP3    H231713   0.596   6.234  14.077 -0.4967 -0.6672 -1.3487
 3408TIP3   OH231714   1.887   0.966   0.233 -0.1308 -0.5115  0.0824
 3408TIP3    H131715   1.885   0.871   0.222  0.0605 -0.8545  2.5095
 3408TIP3    H231716   1.978   0.986   0.254 -0.5077 -0.0538  1.3517
 3409TIP3   OH231717   6.469   5.093  10.572 -0.1268 -0.6099 -0.3969
 3409TIP3    H131718   6.564   5.085  10.579 -0.2616 -2.4976 -0.0054
 3409TIP3    H231719   6.452   5.187  10.574  1.6887 -0.2510  0.0546
 3410TIP3   OH231720   4.068   1.963   1.652  0.0715 -0.5573  0.2954
 3410TIP3    H131721   4.017   1.956   1.733 -0.8912 -1.5372 -0.3692
 3410TIP3    H231722   4.003   1.954   1.582  0.6598  1.7853 -0.6389
 3411TIP3   OH231723   0.345   3.713  11.853 -0.1584  0.5070 -0.0852
 3411TIP3    H131724   0.266   3.733  11.903 -0.0993  1.0838 -0.2182
 3411TIP3    H231725   0.313   3.664  11.777 -0.2675 -0.1968  0.3998
 3412TIP3   OH231726   4.167   4.600   2.572  0.2276  0.0436 -0.1141
 3412TIP3    H131727   4.099   4.574   2.634  0.7024  1.9458  1.2808
 3412TIP3    H231728   4.224   4.523   2.566 -0.5931 -0.6504  0.7310
 3413TIP3   OH231729   2.988   2.684   6.295  0.6310 -0.0022  0.4649
 3413TIP3    H131730   2.909   2.629   6.291  1.3474 -1.0214 -0.3646
 3413TIP3    H231731   2.955   2.774   6.295 -0.5344 -0.3820 -0.9468
 3414TIP3   OH231732   2.422   3.888  12.141 -0.1816 -0.2532 -0.1646
 3414TIP3    H131733   2.453   3.821  12.080  0.5636 -0.4083  0.3728
 3414TIP3    H231734   2.476   3.877  12.219 -1.2744 -0.2154  0.6267
 3415TIP3   OH231735   6.682   1.101   3.107  0.5298  0.1133 -0.2001
 3415TIP3    H131736   6.738   1.140   3.174  1.0595  1.0205 -1.1488
 3415TIP3    H231737   6.728   1.021   3.081  0.6423  0.0899  0.0710
 3416TIP3   OH231738   3.038   4.524   4.305 -0.0863  0.2718 -0.0609
 3416TIP3    H131739   3.068   4.610   4.335  0.9195  0.0132 -0.2972
 3416TIP3    H231740   3.093   4.461   4.353 -1.6190 -0.3142  1.0380
 3417TIP3   OH231741   3.392   5.232  11.605  0.3750 -0.1618  0.3914
 3417TIP3    H131742   3.369   5.148  11.644 -1.4734  0.3129  0.3811
 3417TIP3    H231743   3.475   5.256  11.647  0.6861 -1.7460  0.7315
 3418TIP3   OH231744   2.492   1.880   3.675 -0.1373 -0.4508  0.7313
 3418TIP3    H131745   2.473   1.973   3.666 -1.6094 -0.7868 -0.1797
 3418TIP3    H231746   2.553   1.874   3.748  0.4735  1.2723  0.3996
 3419TIP3   OH231747   3.158   6.359  10.548  0.0457  0.4298 -0.1156
 3419TIP3    H131748   3.239   6.334  10.593 -0.3605 -1.0639 -0.1421
 3419TIP3    H231749   3.177   6.347  10.455 -1.2709 -3.9277 -0.0653
 3420TIP3   OH231750   6.047   1.547   1.465  0.0266  0.0724  0.4177
 3420TIP3    H131751   5.961   1.566   1.503 -0.6224  0.7376 -1.2509
 3420TIP3    H231752   6.043   1.455   1.440  0.7196 -0.5672  2.5100
 3421TIP3   OH231753   5.303   0.339  11.957 -0.1322 -0.3742  0.7572
 3421TIP3    H131754   5.275   0.301  11.874 -0.0398  1.3581 -0.1192
 3421TIP3    H231755   5.384   0.293  11.979  0.5599  0.0442 -0.8135
 3422TIP3   OH231756   2.135   1.474  12.969  0.0544 -0.7873  0.2804
 3422TIP3    H131757   2.192   1.549  12.954  1.5049 -1.7521  0.8540
 3422TIP3    H231758   2.166   1.407  12.907  0.2781 -1.6925  1.3477
 3423TIP3   OH231759   0.848   3.849   4.250 -0.5933 -0.1195 -0.0664
 3423TIP3    H131760   0.863   3.755   4.236  1.4823  0.4006 -1.9272
 3423TIP3    H231761   0.779   3.872   4.188 -1.0140 -0.3840  0.3006
 3424TIP3   OH231762   3.324   0.920   2.002  0.6864  0.5153 -0.1133
 3424TIP3    H131763   3.389   0.977   1.962 -0.3672  1.6292 -0.3093
 3424TIP3    H231764   3.254   0.979   2.029 -0.3371 -0.6621 -0.0946
 3425TIP3   OH231765   5.054   0.528  15.386  0.3215 -0.0475  0.1795
 3425TIP3    H131766   5.105   0.455  15.422  0.8320  0.5104  0.5958
 3425TIP3    H231767   5.119   0.588  15.351 -0.1683 -0.9746 -2.5696
 3426TIP3   OH231768   4.030   0.197   1.671 -0.2538  0.4240 -0.2003
 3426TIP3    H131769   3.939   0.199   1.699 -0.1715 -0.9101  0.2130
 3426TIP3    H231770   4.027   0.171   1.579 -0.3743  2.3247 -0.7804
 3427TIP3   OH231771   4.215   0.842  10.893 -0.1040 -0.4373  0.9666
 3427TIP3    H131772   4.245   0.927  10.862 -0.3211 -0.8395 -0.4273
 3427TIP3    H231773   4.153   0.862  10.963 -0.1366  0.5400  0.6690
 3428TIP3   OH231774   3.446   2.172   2.734  0.1053  0.0188 -0.6188
 3428TIP3    H131775   3.528   2.220   2.725 -0.4774  0.6959 -2.8455
 3428TIP3    H231776   3.448   2.107   2.664 -0.4774 -1.1693  0.4411
 3429TIP3   OH231777   5.389   4.360  11.614  0.1206  0.4116 -0.0319
 3429TIP3    H131778   5.426   4.273  11.631 -0.5877 -0.0834 -0.8986
 3429TIP3    H231779   5.426   4.386  11.530 -0.5539  0.4280 -0.3348
 3430TIP3   OH231780   2.543   4.650  13.443 -0.3814 -0.2560 -0.0797
 3430TIP3    H131781   2.634   4.626  13.426 -0.2284 -0.3040  0.7916
 3430TIP3    H231782   2.530   4.730  13.392  1.8326  3.0192  3.8528
 3431TIP3   OH231783   2.848   2.282  10.994 -0.9611 -0.0450  0.1531
 3431TIP3    H131784   2.898   2.270  11.074  1.6450  1.6931 -1.1021
 3431TIP3    H231785   2.867   2.371  10.966 -1.2393 -0.7877 -2.7469
 3432TIP3   OH231786   0.093   2.634   5.177  0.1977 -0.7014  0.4510
 3432TIP3    H131787   0.110   2.588   5.095 -1.3666  1.6940 -1.3744
 3432TIP3    H231788   0.163   2.700   5.181  0.4449 -1.0023  1.2344
 3433TIP3   OH231789   2.896   0.055  11.940  0.0435  0.3239 -0.2511
 3433TIP3    H131790   2.825   0.000  11.973  0.7310 -0.0686  0.6334
 3433TIP3    H231791   2.865   0.088  11.856 -1.0839 -0.0217  0.0200
 3434TIP3   OH231792   3.513   1.618  12.784 -0.3650  0.1779 -0.1267
 3434TIP3    H131793   3.486   1.623  12.692 -0.6105  0.4915 -0.0379
 3434TIP3    H231794   3.432   1.605  12.832 -0.1456 -0.9143 -0.0205
 3435TIP3   OH231795   3.039   0.344   0.150 -0.3796  0.1862  0.4906
 3435TIP3    H131796   3.024   0.388   0.066 -0.6755 -2.4073 -0.9222
 3435TIP3    H231797   2.989   0.263   0.144 -0.6049 -0.0026  3.3147
 3436TIP3   OH231798   5.038   3.602  16.170 -0.6063  0.5278  0.1911
 3436TIP3    H131799   5.050   3.689  16.132  1.0697  0.0591 -0.4591
 3436TIP3    H231800   5.095   3.545  16.118 -0.4284 -0.6603  1.6167
 3437TIP3   OH231801   4.481   4.177  12.538 -0.1282  0.4685 -0.2474
 3437TIP3    H131802   4.400   4.219  12.567 -1.0887  0.3906 -2.6073
 3437TIP3    H231803   4.476   4.089  12.574 -1.7276  0.0631 -1.3630
 3438TIP3   OH231804   6.610   0.070  15.099  0.3475 -0.2985  0.2230
 3438TIP3    H131805   6.660  -0.012  15.093  1.2879  0.3280 -0.5928
 3438TIP3    H231806   6.519   0.042  15.086  0.6517 -1.2181 -0.0630
 3439TIP3   OH231807   0.435   2.474   3.855 -0.1049  0.4259  0.1454
 3439TIP3    H131808   0.497   2.515   3.794  0.0547  0.4303  0.3102
 3439TIP3    H231809   0.371   2.543   3.873  1.1945  1.2442  1.8922
 3440TIP3   OH231810   5.094   0.266   1.800 -0.4660 -0.4563  0.1246
 3440TIP3    H131811   5.056   0.215   1.872  1.1825 -1.7787  0.0926
 3440TIP3    H231812   5.123   0.347   1.841 -0.7945 -0.6113  0.6743
 3441TIP3   OH231813   0.508   5.957  12.455  0.4522 -0.1622  0.1706
 3441TIP3    H131814   0.517   5.997  12.542 -1.4099  0.4380  0.1436
 3441TIP3    H231815   0.545   5.869  12.465  2.5063  0.7410  0.8729
 3442TIP3   OH231816   1.074   4.819  13.600  0.5647  0.1211 -0.2488
 3442TIP3    H131817   1.067   4.837  13.694  0.4702  0.2203 -0.2739
 3442TIP3    H231818   1.054   4.903  13.559 -0.2164 -0.1220 -0.3787
 3443TIP3   OH231819   6.228   0.881  13.349  0.3434 -0.3346  0.1478
 3443TIP3    H131820   6.244   0.790  13.323  3.5628  0.2234 -0.2347
 3443TIP3    H231821   6.190   0.922  13.272  0.2584 -0.9973 -0.1704
 3444TIP3   OH231822   6.599   6.399  11.094 -0.0689 -0.2039 -0.7530
 3444TIP3    H131823   6.608   6.385  11.000  0.3764  0.3683 -0.8040
 3444TIP3    H231824   6.656   6.474  11.113  0.6118 -0.9047  0.1266
 3445TIP3   OH231825   1.869   4.728   5.747  0.4516  0.3819 -0.2893
 3445TIP3    H131826   1.779   4.712   5.716  0.0180  0.8496  0.7042
 3445TIP3    H231827   1.920   4.737   5.666 -0.6966  1.8039 -0.8981
 3446TIP3   OH231828   5.284   2.689   2.497 -0.5651 -0.6910 -0.1741
 3446TIP3    H131829   5.307   2.627   2.428 -0.0940 -1.6612  0.8192
 3446TIP3    H231830   5.208   2.650   2.539 -0.4112 -0.4799  0.3056
 3447TIP3   OH231831   3.717   5.627  12.571  0.5896 -0.2890  0.5884
 3447TIP3    H131832   3.631   5.595  12.544  0.4832  0.7687 -0.4082
 3447TIP3    H231833   3.776   5.596  12.501  0.8695 -0.2524  0.8079
 3448TIP3   OH231834   6.014   4.860  13.185  0.0424  0.0407  0.6384
 3448TIP3    H131835   6.094   4.829  13.141  0.7566  0.5411  1.5334
 3448TIP3    H231836   6.029   4.954  13.196 -1.0029  0.2698  0.1682
 3449TIP3   OH231837   0.169   6.002  13.749  0.0360 -0.5156  0.1213
 3449TIP3    H131838   0.251   6.051  13.753  0.4731 -1.2586  0.9309
 3449TIP3    H231839   0.112   6.045  13.813 -0.3243  0.1999 -0.6780
 3450TIP3   OH231840   3.651   0.276  14.059 -0.0122  0.1128  0.3712
 3450TIP3    H131841   3.641   0.183  14.041  2.0325  0.0771 -0.8891
 3450TIP3    H231842   3.569   0.315  14.029  0.2522 -0.9576 -2.0005
 3451TIP3   OH231843   2.382   1.973  12.056 -0.0762  0.1991  0.0657
 3451TIP3    H131844   2.374   1.947  12.148  0.3008  1.8901  0.6170
 3451TIP3    H231845   2.370   2.068  12.057 -1.7931  0.0726 -1.8639
 3452TIP3   OH231846   6.049   0.961   3.639 -0.4147  0.1394  0.1606
 3452TIP3    H131847   6.143   0.967   3.623 -0.3838 -0.6499  0.0282
 3452TIP3    H231848   6.009   0.997   3.559 -0.2281 -0.2359 -0.1060
 3453TIP3   OH231849   2.658   5.711  12.333 -0.2077 -0.3514  0.0527
 3453TIP3    H131850   2.567   5.702  12.306 -0.7461 -1.6896  2.1166
 3453TIP3    H231851   2.661   5.790  12.386  0.1055  0.3184 -0.9332
 3454TIP3   OH231852   3.398   5.256   4.849  0.0492  0.0379  0.4673
 3454TIP3    H131853   3.474   5.265   4.907 -0.8386  1.5280  1.4538
 3454TIP3    H231854   3.391   5.341   4.806 -0.4726 -0.4209 -0.3663
 3455TIP3   OH231855   3.240   6.662   3.886 -0.1420  0.6179  0.0808
 3455TIP3    H131856   3.166   6.679   3.827  1.2761  0.9859 -1.6952
 3455TIP3    H231857   3.237   6.568   3.902  0.2655  0.2314 -1.8315
 3456TIP3   OH231858   6.563   3.190   0.670 -0.3699 -0.0652  0.0797
 3456TIP3    H131859   6.528   3.101   0.681  1.6769 -0.7419  2.0115
 3456TIP3    H231860   6.602   3.189   0.582 -1.8374 -0.5021 -0.5865
 3457TIP3   OH231861   0.758   6.838  16.566 -0.0371  0.1885 -0.3451
 3457TIP3    H131862   0.670   6.816  16.596 -0.1656 -0.5432 -1.2092
 3457TIP3    H231863   0.800   6.879  16.641 -1.2780  1.0012 -0.0767
 3458TIP3   OH231864   2.335   3.808  13.413  0.1608 -0.4543  0.3760
 3458TIP3    H131865   2.371   3.829  13.327  0.3495 -0.7873  0.3715
 3458TIP3    H231866   2.396   3.743  13.449 -0.4852 -1.1031  0.3324
 3459TIP3   OH231867   5.148   1.026  13.714  0.5113  0.2115 -0.4732
 3459TIP3    H131868   5.178   1.075  13.637 -0.6755 -1.2140 -1.9088
 3459TIP3    H231869   5.228   0.989  13.751  0.9339 -0.7824 -2.2702
 3460TIP3   OH231870   0.973   3.992  12.418 -0.5858  0.1711 -0.3888
 3460TIP3    H131871   0.996   3.988  12.325  0.8242  2.4021 -0.2045
 3460TIP3    H231872   0.979   4.084  12.440  1.2594 -0.5051  2.4358
 3461TIP3   OH231873   5.088   5.240  10.564  0.0410 -0.6611 -0.1967
 3461TIP3    H131874   5.164   5.214  10.512  0.4235 -0.2217  0.1282
 3461TIP3    H231875   5.083   5.174  10.632 -0.0499 -0.8612 -0.3972
 3462TIP3   OH231876   2.649   4.118   5.782  0.3519 -0.2636  0.5559
 3462TIP3    H131877   2.636   4.172   5.704 -0.0162 -0.0571  0.7632
 3462TIP3    H231878   2.700   4.173   5.841 -0.0468 -0.1370  0.7784
 3463TIP3   OH231879   6.360   2.012  13.752  0.6135  0.2359 -0.0662
 3463TIP3    H131880   6.366   1.918  13.738  1.5934  0.2570  0.0865
 3463TIP3    H231881   6.415   2.050  13.683  1.1044  0.6256  0.5247
 3464TIP3   OH231882   5.029   5.924  13.215  0.1982 -0.3342 -0.2579
 3464TIP3    H131883   5.117   5.924  13.253 -0.7466  0.7825  2.1176
 3464TIP3    H231884   5.019   6.012  13.179 -0.6724  0.3287  1.4770
 3465TIP3   OH231885   1.258   4.492  17.079  0.1418  0.0595  0.2185
 3465TIP3    H131886   1.335   4.542  17.107 -0.2591  0.9542 -0.2352
 3465TIP3    H231887   1.185   4.530  17.129  0.2630 -2.2600  2.3751
 3466TIP3   OH231888   5.150   1.831   5.690 -0.1407  0.3080  0.3158
 3466TIP3    H131889   5.201   1.908   5.715  1.2614  0.0941 -1.6157
 3466TIP3    H231890   5.127   1.789   5.773 -1.0049  2.7789  1.4381
 3467TIP3   OH231891   1.577   2.505   3.350 -0.6815 -0.1327 -0.4483
 3467TIP3    H131892   1.551   2.586   3.394 -0.9615 -0.2058 -0.4767
 3467TIP3    H231893   1.549   2.435   3.410  2.9310 -0.1580  1.4362
 3468TIP3   OH231894   0.079   0.937  16.925 -0.1940 -0.4015 -0.5449
 3468TIP3    H131895   0.064   0.869  16.991 -0.3646 -0.0864 -0.2527
 3468TIP3    H231896   0.034   1.014  16.960  0.8486  0.1518 -0.3761
 3469TIP3   OH231897   2.899   4.940  12.509 -0.1421 -0.5955 -0.9387
 3469TIP3    H131898   2.988   4.970  12.490 -0.6078  0.6989 -1.1570
 3469TIP3    H231899   2.868   4.902  12.426 -0.5651  0.9810 -1.5421
 3470TIP3   OH231900   6.079   0.392   0.557 -0.0304 -0.0714 -0.8119
 3470TIP3    H131901   6.133   0.427   0.627  0.0271 -0.6050 -0.5821
 3470TIP3    H231902   6.018   0.462   0.536  0.0406  0.1410 -0.3252
 3471TIP3   OH231903   3.225   5.663   1.012 -0.4265 -0.4651  0.4441
 3471TIP3    H131904   3.241   5.687   1.103  0.4125 -1.5312  0.5894
 3471TIP3    H231905   3.162   5.592   1.017 -0.6329 -0.3019  0.1705
 3472TIP3   OH231906   0.584   0.706  10.590 -0.3688 -0.2314 -0.2712
 3472TIP3    H131907   0.542   0.748  10.665 -0.0554  0.3575 -0.4135
 3472TIP3    H231908   0.578   0.612  10.608 -5.7082 -0.6295 -2.3234
 3473TIP3   OH231909   5.982   3.997   4.808  0.0145  0.1559 -0.2687
 3473TIP3    H131910   5.926   4.072   4.787 -1.2331 -0.1556  1.6854
 3473TIP3    H231911   6.060   4.010   4.754 -0.0184  3.0323  0.2250
 3474TIP3   OH231912   5.677   4.085  11.029 -0.3164 -0.0355  0.3547
 3474TIP3    H131913   5.701   3.996  11.004  2.3725  0.8032 -0.3354
 3474TIP3    H231914   5.585   4.093  11.003  0.0154 -1.8888 -1.6615
 3475TIP3   OH231915   1.184   0.461  15.078 -0.2802 -0.1397 -0.9075
 3475TIP3    H131916   1.090   0.465  15.062 -0.2504 -0.6807 -1.2589
 3475TIP3    H231917   1.216   0.549  15.059 -1.1156  0.9190  2.0126
 3476TIP3   OH231918   1.082   6.440   2.145  0.3502  0.3949 -0.5074
 3476TIP3    H131919   1.103   6.527   2.112 -0.8265  1.0615  0.3885
 3476TIP3    H231920   1.113   6.380   2.078  0.8168  1.5312 -1.3339
 3477TIP3   OH231921   5.982   3.069  16.816 -0.2705 -1.0971  0.0756
 3477TIP3    H131922   5.915   3.097  16.878  0.7934  0.7701  0.4667
 3477TIP3    H231923   6.058   3.047  16.869  0.3896 -0.2661 -0.4887
 3478TIP3   OH231924   0.201   6.717  17.053 -0.0278 -0.4848 -0.3271
 3478TIP3    H131925   0.229   6.651  16.990 -0.7831 -0.1903 -0.9924
 3478TIP3    H231926   0.106   6.716  17.047 -0.3414 -2.4172  2.8424
 3479TIP3   OH231927   4.978   1.923  11.830 -0.2582 -0.6723  0.4030
 3479TIP3    H131928   4.918   1.879  11.769 -0.2644 -0.3329  0.1651
 3479TIP3    H231929   5.063   1.882  11.813 -0.3436 -0.8816  0.4709
 3480TIP3   OH231930   1.286   4.445   0.632 -0.3407 -0.6195  0.2468
 3480TIP3    H131931   1.313   4.529   0.593 -0.3346 -1.0479 -0.6904
 3480TIP3    H231932   1.297   4.381   0.562 -0.6836 -1.3554  0.8504
 3481TIP3   OH231933   4.731   5.508  15.934 -0.2372 -0.3313  0.3448
 3481TIP3    H131934   4.675   5.480  16.007  0.8444 -1.1369  0.8832
 3481TIP3    H231935   4.672   5.507  15.858 -0.8866 -1.4655  0.8357
 3482TIP3   OH231936   1.359   6.572   2.773  0.4111 -0.2720 -0.1632
 3482TIP3    H131937   1.394   6.587   2.685  0.6606  0.4859  0.0636
 3482TIP3    H231938   1.269   6.541   2.758  0.4378 -0.1090 -0.6789
 3483TIP3   OH231939   0.882   5.740  14.335  0.4058  0.1529  0.0983
 3483TIP3    H131940   0.868   5.656  14.291 -0.0061 -0.7767  1.8942
 3483TIP3    H231941   0.900   5.717  14.426  0.8341  2.0049  0.5301
 3484TIP3   OH231942   4.728   6.605  12.835 -0.4356  0.1074  0.0654
 3484TIP3    H131943   4.803   6.658  12.860  0.0429 -0.4674 -0.1085
 3484TIP3    H231944   4.652   6.660  12.852  0.0195  0.6503  0.3665
 3485TIP3   OH231945   6.032   5.432  13.542  0.8461 -0.6546  0.0544
 3485TIP3    H131946   6.071   5.354  13.583 -0.3572 -0.6297  1.3143
 3485TIP3    H231947   6.102   5.465  13.485  2.1736 -1.4046  1.1581
 3486TIP3   OH231948   6.461   2.394   0.546  0.2113  0.0543  0.7176
 3486TIP3    H131949   6.528   2.389   0.478 -0.0340  0.7818  0.4121
 3486TIP3    H231950   6.404   2.319   0.528  1.5002 -1.2065  1.6249
 3487TIP3   OH231951   1.011   0.612   1.576  0.2616  0.3690 -0.4901
 3487TIP3    H131952   0.942   0.615   1.643  0.7574 -1.5079  0.1731
 3487TIP3    H231953   1.058   0.531   1.594  3.1058  1.9052 -0.4837
 3488TIP3   OH231954   6.398   1.899   4.498 -0.1282  0.1651  0.1459
 3488TIP3    H131955   6.353   1.868   4.577  0.4614 -0.3044  0.3088
 3488TIP3    H231956   6.328   1.919   4.436 -0.5618 -1.8489 -0.0863
 3489TIP3   OH231957   4.308   3.586   2.721  0.9145  0.3363 -0.1217
 3489TIP3    H131958   4.259   3.504   2.713 -1.1437  1.5721 -1.1057
 3489TIP3    H231959   4.296   3.613   2.812  1.1901 -0.1997  0.0757
 3490TIP3   OH231960   6.586   0.099   5.583  0.2809 -0.4863 -0.1821
 3490TIP3    H131961   6.510   0.065   5.536 -0.0641 -0.7716  0.5690
 3490TIP3    H231962   6.558   0.102   5.675  0.7447  0.5882 -0.0549
 3491TIP3   OH231963   3.743   5.010  15.373 -0.0091 -0.0754 -0.1425
 3491TIP3    H131964   3.678   4.957  15.328 -0.3327  0.4494 -0.3091
 3491TIP3    H231965   3.731   5.098  15.337  0.6869  0.0585 -0.0599
 3492TIP3   OH231966   2.584   2.926   2.797  0.3927  0.7192  0.1549
 3492TIP3    H131967   2.572   3.003   2.741 -2.2136  1.3620  1.4628
 3492TIP3    H231968   2.647   2.956   2.863 -0.3699  1.6503  0.4840
 3493TIP3   OH231969   1.610   1.005   2.343  0.9032  0.3288 -0.4946
 3493TIP3    H131970   1.650   0.944   2.281 -1.6748 -1.4952 -0.5525
 3493TIP3    H231971   1.543   1.050   2.292 -0.0501  0.1118  0.5319
 3494TIP3   OH231972   1.393   1.916   4.734  0.0395 -0.1466 -0.1092
 3494TIP3    H131973   1.317   1.928   4.791 -0.8710 -1.9385 -0.8661
 3494TIP3    H231974   1.364   1.947   4.648  0.0551 -1.0997 -0.4640
 3495TIP3   OH231975   5.276   5.543   1.478 -0.8092 -0.0470 -0.3544
 3495TIP3    H131976   5.342   5.478   1.504 -0.1917 -0.1546 -2.0804
 3495TIP3    H231977   5.317   5.627   1.500 -0.0025 -0.1046 -1.5483
 3496TIP3   OH231978   4.161   6.346  16.832  0.8614 -0.3541  0.1476
 3496TIP3    H131979   4.085   6.396  16.861 -1.2071 -2.1508 -1.7902
 3496TIP3    H231980   4.228   6.412  16.817 -0.9451  1.5712  0.0321
 3497TIP3   OH231981   2.956   2.069  15.735  0.2563  0.0799 -0.0620
 3497TIP3    H131982   3.023   2.013  15.696  0.6930 -0.4800  1.4261
 3497TIP3    H231983   2.873   2.031  15.705  0.5504  0.9504 -2.1447
 3498TIP3   OH231984   0.641   5.015   5.452  0.0251  0.9265 -0.0806
 3498TIP3    H131985   0.703   5.056   5.513 -0.1241  0.9975  0.0240
 3498TIP3    H231986   0.595   5.089   5.413 -0.7089  0.8409  0.5952
 3499TIP3   OH231987   1.096   4.488   2.015 -0.1067  0.6611 -0.6896
 3499TIP3    H131988   1.057   4.458   1.933 -1.4795  3.0370 -1.0085
 3499TIP3    H231989   1.186   4.511   1.992  0.3008 -1.0391 -0.9066
 3500TIP3   OH231990   6.232   2.388   1.700  0.2928  0.0373 -0.0859
 3500TIP3    H131991   6.140   2.366   1.687  0.6636 -2.0042  0.4752
 3500TIP3    H231992   6.239   2.479   1.668 -1.6060 -0.2013 -1.3900
 3501TIP3   OH231993   6.578   3.540  11.806 -0.1366  0.3275  0.1924
 3501TIP3    H131994   6.500   3.595  11.806 -2.5762 -2.8547  0.5592
 3501TIP3    H231995   6.598   3.528  11.713 -0.9777  0.0134  0.0430
 3502TIP3   OH231996   4.210   0.209  11.781 -0.1793  0.3711 -0.0149
 3502TIP3    H131997   4.136   0.159  11.746  0.3417 -0.0072 -0.6019
 3502TIP3    H231998   4.287   0.169  11.740  0.5078 -0.4121  1.9131
 3503TIP3   OH231999   5.091   4.099  11.419 -0.1038 -0.0835 -0.3157
 3503TIP3    H132000   4.997   4.093  11.398  0.4297 -1.2680 -2.7961
 3503TIP3    H232001   5.097   4.167  11.485 -2.6774  0.3628 -0.4463
 3504TIP3   OH232002   3.883   2.329   2.115 -0.3720  0.2105 -0.1317
 3504TIP3    H132003   3.816   2.262   2.099 -0.2211 -0.1778  0.7942
 3504TIP3    H232004   3.904   2.320   2.208 -0.3333  1.5355  0.0036
 3505TIP3   OH232005   0.251   6.740  15.239  0.0523 -0.1150  0.6672
 3505TIP3    H132006   0.276   6.655  15.202  0.9357 -0.4739  2.0285
 3505TIP3    H232007   0.158   6.732  15.257  0.5080 -1.6278  2.7635
 3506TIP3   OH232008   3.634   4.890   0.942 -0.0433 -0.0397  0.6508
 3506TIP3    H132009   3.727   4.868   0.932  0.2420  1.6588 -1.2750
 3506TIP3    H232010   3.590   4.806   0.950  1.4115 -1.0970 -1.3974
 3507TIP3   OH232011   0.281   0.181   1.471  0.0585 -0.6619 -1.1176
 3507TIP3    H132012   0.328   0.216   1.547  0.7636 -0.3742 -1.6733
 3507TIP3    H232013   0.270   0.256   1.413 -0.4000 -0.8979 -1.3398
 3508TIP3   OH232014   1.959   5.197   1.952  0.8575 -0.2782 -0.2656
 3508TIP3    H132015   2.030   5.144   1.988  0.4287  0.0798  1.1682
 3508TIP3    H232016   1.907   5.136   1.899  2.4483 -0.4475 -1.7055
 3509TIP3   OH232017   3.846   3.146  10.385 -0.2019 -0.7458 -0.0111
 3509TIP3    H132018   3.927   3.122  10.341  0.0698  0.6044 -0.2918
 3509TIP3    H232019   3.781   3.083  10.352  0.2668 -0.5390 -1.3927
 3510TIP3   OH232020   4.614   3.302   4.738 -0.5035 -0.5016 -0.3382
 3510TIP3    H132021   4.704   3.332   4.729 -0.4598 -0.3791  0.4544
 3510TIP3    H232022   4.605   3.278   4.830 -1.0660 -1.2167 -0.5607
 3511TIP3   OH232023   6.411   6.675  16.982 -0.1380  0.5794 -0.4873
 3511TIP3    H132024   6.396   6.635  16.896 -1.7665  0.7645 -0.3215
 3511TIP3    H232025   6.506   6.680  16.990  0.1238 -2.0036 -1.1016
 3512TIP3   OH232026   2.539   1.119  15.110  0.3294 -0.3507  0.2867
 3512TIP3    H132027   2.473   1.188  15.119  0.5362  0.6696 -3.8192
 3512TIP3    H232028   2.623   1.166  15.109  0.6092 -0.8397 -0.6665
 3513TIP3   OH232029   3.913   4.301  16.814  0.7027  0.4041  0.1032
 3513TIP3    H132030   3.829   4.344  16.830  0.8972  1.3639 -1.2320
 3513TIP3    H232031   3.895   4.241  16.741  1.2043  0.6932 -0.2583
 3514TIP3   OH232032   1.144   2.324  16.740  0.3058 -0.1263 -0.0907
 3514TIP3    H132033   1.082   2.269  16.692 -0.9689  0.7827  0.4503
 3514TIP3    H232034   1.105   2.411  16.740  0.5659  0.0548  2.0060
 3515TIP3   OH232035   4.526   0.036   1.219 -0.4284  0.7080  0.0394
 3515TIP3    H132036   4.601   0.096   1.221  0.0401  0.2043 -1.4817
 3515TIP3    H232037   4.462   0.080   1.163 -0.9374  0.7236  0.6171
 3516TIP3   OH232038   6.539   4.814  13.801  0.2227  0.5518 -0.4969
 3516TIP3    H132039   6.560   4.903  13.771  0.1678  0.3226 -1.2252
 3516TIP3    H232040   6.624   4.773  13.816  0.2607  0.4491 -0.9896
 3517TIP3   OH232041   6.474   2.380  16.047  0.6505 -0.4683  0.2537
 3517TIP3    H132042   6.439   2.370  16.135  2.3083 -1.7421  0.8245
 3517TIP3    H232043   6.458   2.472  16.025  2.1147  0.4935  2.7749
 3518TIP3   OH232044   0.480   2.681   5.682  0.3071  0.0472  0.3174
 3518TIP3    H132045   0.394   2.683   5.723  0.6572 -1.0564  1.1502
 3518TIP3    H232046   0.541   2.670   5.754  1.1111  0.2666 -0.3123
 3519TIP3   OH232047   2.824   4.223   2.721  0.5045 -0.6591  0.0811
 3519TIP3    H132048   2.837   4.271   2.802  0.8248  1.6596 -1.2469
 3519TIP3    H232049   2.908   4.229   2.676 -0.1506 -0.3629 -1.1594
 3520TIP3   OH232050   0.629   4.440  13.292 -0.2461 -0.2403 -0.6632
 3520TIP3    H132051   0.653   4.511  13.352  0.0114 -0.6264 -0.3067
 3520TIP3    H232052   0.707   4.427  13.238  1.0658 -2.5782  1.5367
 3521TIP3   OH232053   3.650   1.810   1.637  0.3563 -0.2282  0.0194
 3521TIP3    H132054   3.667   1.886   1.692  0.3220 -0.4831  0.3874
 3521TIP3    H232055   3.705   1.823   1.560 -0.2692  0.5762 -0.3039
 3522TIP3   OH232056   3.340   4.872  16.906  0.2491 -0.0966 -0.8038
 3522TIP3    H132057   3.395   4.872  16.985 -2.2530 -1.0966  1.0670
 3522TIP3    H232058   3.367   4.794  16.858  1.4352  0.2212 -0.6865
 3523TIP3   OH232059   4.580   6.126  16.725  0.6886  0.4455  0.4745
 3523TIP3    H132060   4.543   6.203  16.681  0.0425  0.0954  0.3895
 3523TIP3    H232061   4.564   6.054  16.664  3.1205  0.5356 -0.4042
 3524TIP3   OH232062   2.162   4.862  16.674  0.2680 -0.5185  0.2149
 3524TIP3    H132063   2.172   4.879  16.581 -0.0173  1.5683  0.5181
 3524TIP3    H232064   2.103   4.787  16.679 -0.7522  0.1437 -1.2763
 3525TIP3   OH232065   3.455   1.597   2.643  0.7130 -1.0635 -0.1873
 3525TIP3    H132066   3.402   1.625   2.718 -0.1845 -1.1041 -0.7975
 3525TIP3    H232067   3.400   1.614   2.567  1.2630 -1.8559 -0.7787
 3526TIP3   OH232068   1.982   5.229  14.860 -0.3741  0.2207 -0.1753
 3526TIP3    H132069   2.030   5.175  14.922 -0.5410 -1.9908 -1.8410
 3526TIP3    H232070   1.905   5.259  14.907  1.4648  2.0762  1.8889
 3527TIP3   OH232071   3.044   4.280  16.047 -0.2028 -0.2640 -0.2678
 3527TIP3    H132072   3.047   4.327  16.131  0.1699 -1.2960  0.3216
 3527TIP3    H232073   3.104   4.207  16.060 -0.4026 -0.6216 -1.3345
 3528TIP3   OH232074   2.731   5.140   1.781  0.5418  0.0664  0.2783
 3528TIP3    H132075   2.727   5.208   1.848  0.3485 -0.1446  0.4819
 3528TIP3    H232076   2.719   5.187   1.699  0.3399  0.2701  0.4225
 3529TIP3   OH232077   0.438   6.624   0.955 -0.1089  0.6263 -0.3660
 3529TIP3    H132078   0.348   6.608   0.929 -0.3431  0.6842  0.3822
 3529TIP3    H232079   0.438   6.714   0.989  0.0960  0.4140  0.2053
 3530TIP3   OH232080   1.576   5.278  12.573  0.1241  0.2204  0.2865
 3530TIP3    H132081   1.601   5.317  12.489 -1.8001  2.8820  0.8477
 3530TIP3    H232082   1.508   5.214  12.550 -0.9844  1.5199 -0.1686
 3531TIP3   OH232083   4.781   0.276  15.765  0.2027 -0.5463  0.0059
 3531TIP3    H132084   4.838   0.348  15.791  0.3147 -0.7213  0.2448
 3531TIP3    H232085   4.711   0.275  15.831  0.8304 -1.3959  0.6830
 3532TIP3   OH232086   1.201   6.591  11.600  0.3806  0.0309 -0.4187
 3532TIP3    H132087   1.234   6.525  11.661  0.8196  0.9915  0.4265
 3532TIP3    H232088   1.160   6.657  11.657 -0.9557  0.0026 -1.3028
 3533TIP3   OH232089   3.501   6.275  15.257  0.8279  0.0918  0.1657
 3533TIP3    H132090   3.594   6.294  15.267  0.7283 -0.1274  1.6481
 3533TIP3    H232091   3.491   6.187  15.294  0.0986 -0.0723 -0.3968
 3534TIP3   OH232092   0.617   5.721  11.915 -0.4689 -0.2267 -0.1927
 3534TIP3    H132093   0.704   5.737  11.950 -0.8837  1.7075  0.0677
 3534TIP3    H232094   0.627   5.729  11.820 -0.2461 -0.7467 -0.2178
 3535TIP3   OH232095   1.609   6.184   5.626  0.4683 -0.0901 -0.3111
 3535TIP3    H132096   1.658   6.211   5.548 -0.9367  2.1401 -0.5261
 3535TIP3    H232097   1.519   6.212   5.608 -0.4933 -2.1569  0.9372
 3536TIP3   OH232098   0.896   3.195   2.699 -0.5234  0.1439 -0.2057
 3536TIP3    H132099   0.825   3.241   2.743  0.3767  1.4373 -0.0465
 3536TIP3    H232100   0.861   3.108   2.680 -1.4968  0.1052  1.5903
 3537TIP3   OH232101   2.410   1.228  13.957 -0.1793 -0.1156  0.1050
 3537TIP3    H132102   2.445   1.241  13.869 -2.0992 -2.1697 -1.0873
 3537TIP3    H232103   2.472   1.168  13.999  1.1422  1.4495  0.4993
 3538TIP3   OH232104   1.134   5.293   3.831  0.1030  0.0651 -0.7487
 3538TIP3    H132105   1.191   5.305   3.755 -0.6733  1.4938 -1.1342
 3538TIP3    H232106   1.141   5.376   3.879 -1.3786  0.1263 -0.6137
 3539TIP3   OH232107   4.257   0.290  13.665  0.0585 -0.1250  0.4782
 3539TIP3    H132108   4.271   0.214  13.722  0.3622 -0.3908  0.0577
 3539TIP3    H232109   4.162   0.297  13.657 -0.2818  2.2353  4.0940
 3540TIP3   OH232110   6.581   4.525  14.087  0.1799 -0.4746  0.3040
 3540TIP3    H132111   6.569   4.545  14.180  0.7706 -0.2583  0.3375
 3540TIP3    H232112   6.514   4.577  14.043  1.4168  1.2793  0.4239
 3541TIP3   OH232113   4.781   5.659   5.029 -0.6666  0.1780  0.0709
 3541TIP3    H132114   4.833   5.616   5.097 -0.0364 -1.0990 -1.1874
 3541TIP3    H232115   4.703   5.690   5.075 -0.1230 -0.4056  1.4344
 3542TIP3   OH232116   1.391   5.471   0.009  0.2570  0.3315  1.0864
 3542TIP3    H132117   1.296   5.466   0.017  0.2475 -1.2074  0.2770
 3542TIP3    H232118   1.414   5.554   0.052 -1.5305  1.2042  0.4468
 3543TIP3   OH232119   3.028   5.263  13.617  0.0751  0.7997  0.0406
 3543TIP3    H132120   3.065   5.178  13.590 -0.9137  0.7933 -1.4388
 3543TIP3    H232121   3.095   5.301  13.674 -0.0199 -1.5320  1.8581
 3544TIP3   OH232122   3.854   3.314  15.905 -0.5946  0.4415 -0.6578
 3544TIP3    H132123   3.814   3.266  15.833 -0.9472 -1.3204  0.6539
 3544TIP3    H232124   3.838   3.406  15.884 -1.7239 -0.0651 -2.2091
 3545TIP3   OH232125   3.308   3.717   0.123 -0.0902  0.0870 -0.1458
 3545TIP3    H132126   3.351   3.632   0.129  2.6319  1.3716  0.0179
 3545TIP3    H232127   3.220   3.697   0.092  0.7177 -2.7136 -0.9120
 3546TIP3   OH232128   2.323   0.367   3.082 -0.1598  0.4565 -0.3572
 3546TIP3    H132129   2.261   0.393   3.150  0.2208  1.0335 -0.2202
 3546TIP3    H232130   2.284   0.290   3.041 -0.7625  0.5679  0.0024
 3547TIP3   OH232131   2.494   6.034  13.782 -0.1369 -0.5310 -0.1074
 3547TIP3    H132132   2.556   5.970  13.817 -2.2680 -2.5080  0.3221
 3547TIP3    H232133   2.519   6.117  13.821  1.9531 -1.3230  0.3497
 3548TIP3   OH232134   0.968   4.040   1.577 -0.3185 -0.3230  0.1110
 3548TIP3    H132135   0.899   4.049   1.643 -1.3484 -1.6017 -0.7360
 3548TIP3    H232136   0.932   4.081   1.498  0.7270  0.8069  0.1867
 3549TIP3   OH232137   2.381   5.792  12.017 -0.8050  0.6382 -0.1966
 3549TIP3    H132138   2.396   5.699  12.002 -2.4578  0.3436 -0.2444
 3549TIP3    H232139   2.461   5.835  11.987 -0.1556 -0.7390 -0.4903
 3550TIP3   OH232140   2.161   3.694  13.765  0.0332  0.2882  0.7148
 3550TIP3    H132141   2.251   3.713  13.738 -0.0263 -0.3407  0.0616
 3550TIP3    H232142   2.161   3.601  13.787 -0.0566  0.6500  2.3690
 3551TIP3   OH232143   2.281   4.323   5.875 -0.2549 -0.1074 -0.3675
 3551TIP3    H132144   2.192   4.343   5.846 -0.0770 -0.6704 -1.3557
 3551TIP3    H232145   2.270   4.258   5.944 -0.6597  0.8483  0.5008
 3552TIP3   OH232146   6.314   4.244   5.785  0.8263  0.1601 -0.2683
 3552TIP3    H132147   6.256   4.200   5.723 -0.5220 -0.0611  1.0979
 3552TIP3    H232148   6.366   4.304   5.731  0.5294 -0.8709 -1.7439
 3553TIP3   OH232149   2.300   5.196  13.080  0.5707  0.3289 -0.7160
 3553TIP3    H132150   2.227   5.148  13.040 -0.3077  1.2692 -0.3060
 3553TIP3    H232151   2.378   5.144  13.059 -0.1085 -0.2650 -1.8803
 3554TIP3   OH232152   3.245   5.172  11.370  0.3747  0.4548  0.2591
 3554TIP3    H132153   3.278   5.217  11.448  0.9164  0.0409  0.2761
 3554TIP3    H232154   3.216   5.243  11.312  0.2929  0.7809  0.6940
 3555TIP3   OH232155   1.324   0.713  11.279  0.1299 -0.0214 -0.0306
 3555TIP3    H132156   1.312   0.773  11.352  0.6871  0.8089 -0.6145
 3555TIP3    H232157   1.236   0.696  11.247  0.0481  1.5761 -0.7227
 3556TIP3   OH232158   0.279   1.443   3.821  0.0133 -0.3380 -0.2503
 3556TIP3    H132159   0.239   1.465   3.737  0.6974  1.2299 -0.2158
 3556TIP3    H232160   0.214   1.470   3.886 -0.0244 -0.4126 -0.2574
 3557TIP3   OH232161   0.255   0.518   2.587  0.3274 -0.6698  0.3315
 3557TIP3    H132162   0.318   0.589   2.594 -0.4027 -0.1061  1.6000
 3557TIP3    H232163   0.216   0.512   2.674 -0.7467 -1.5749 -0.1838
 3558TIP3   OH232164   4.661   2.130   4.752 -0.1598  0.4001 -0.3921
 3558TIP3    H132165   4.652   2.073   4.675  0.3222 -0.2422  0.0213
 3558TIP3    H232166   4.667   2.070   4.826 -0.4159  1.0127  0.1342
 3559TIP3   OH232167   0.997   0.078   4.685  0.4330  0.7648 -0.2043
 3559TIP3    H132168   0.903   0.094   4.696 -0.1569 -2.0143 -0.3706
 3559TIP3    H232169   1.022   0.131   4.610 -1.6080 -0.1860 -1.6592
 3560TIP3   OH232170   6.480   4.557  17.021  0.0738 -0.0568 -0.2433
 3560TIP3    H132171   6.547   4.606  17.069 -0.2386 -0.2165  0.3609
 3560TIP3    H232172   6.436   4.504  17.088  0.0692 -0.7799 -0.8094
 3561TIP3   OH232173   6.466   6.412   3.504  0.1031 -0.4106  0.6908
 3561TIP3    H132174   6.534   6.475   3.477  0.0243 -1.3683 -2.0413
 3561TIP3    H232175   6.392   6.467   3.529  1.6148  0.6510  3.3408
 3562TIP3   OH232176   0.329   2.521   0.060  0.1479 -0.1834 -0.2893
 3562TIP3    H132177   0.341   2.605   0.015 -1.8409  0.2220 -0.1630
 3562TIP3    H232178   0.411   2.508   0.109  0.4258  1.7873 -0.1470
 3563TIP3   OH232179   6.712   3.306  16.437  0.3290 -0.0895 -0.4331
 3563TIP3    H132180   6.766   3.278  16.511  0.4702 -1.6277 -1.0712
 3563TIP3    H232181   6.640   3.355  16.477  1.8210  1.4523  0.4692
 3564TIP3   OH232182   3.326   2.065   3.304 -0.3270 -0.1579 -0.2190
 3564TIP3    H132183   3.351   2.001   3.370 -1.8196 -2.3175 -1.6011
 3564TIP3    H232184   3.392   2.056   3.235 -0.2156  0.2377 -0.1691
 3565TIP3   OH232185   2.235   1.850   2.984  0.0207  0.6516 -0.4141
 3565TIP3    H132186   2.221   1.758   2.962  0.0973  0.8771 -1.4632
 3565TIP3    H232187   2.167   1.897   2.936  0.1072  1.1673 -0.0434
 3566TIP3   OH232188   4.307   2.803   0.838 -0.3648  0.9715  0.5328
 3566TIP3    H132189   4.268   2.761   0.914 -1.4408 -0.6918 -0.8711
 3566TIP3    H232190   4.396   2.768   0.833  0.3151  2.3590  1.9124
 3567TIP3   OH232191   6.136   5.398   0.828  0.8362  0.2885 -0.1457
 3567TIP3    H132192   6.127   5.424   0.920 -1.5572 -0.2886 -0.1287
 3567TIP3    H232193   6.105   5.474   0.779  1.7687  0.4649 -0.4768
 3568TIP3   OH232194   6.385   5.084   4.048  0.2105  0.3158 -0.2161
 3568TIP3    H132195   6.404   5.178   4.051  0.2597  0.4460 -2.5835
 3568TIP3    H232196   6.419   5.055   3.963  0.1919 -1.8608  0.4518
 3569TIP3   OH232197   4.616   4.095  13.859 -0.1394  0.2297  0.1681
 3569TIP3    H132198   4.651   4.166  13.805 -1.8329  0.3402 -0.8608
 3569TIP3    H232199   4.675   4.089  13.933  0.5449  2.1249 -0.1880
 3570TIP3   OH232200   5.408   1.169  11.832 -0.3203 -0.3473  0.3393
 3570TIP3    H132201   5.484   1.216  11.799 -0.5044  0.9530  1.6767
 3570TIP3    H232202   5.347   1.238  11.859 -1.5554 -1.3621  0.2416
 3571TIP3   OH232203   3.203   0.709   0.028  0.0203 -0.3181  0.1200
 3571TIP3    H132204   3.276   0.768   0.045 -0.6089  0.0855  1.6085
 3571TIP3    H232205   3.150   0.713   0.108 -1.0078 -1.4953 -0.4671
 3572TIP3   OH232206   0.210   3.698  15.555  0.3592  0.7430  0.3122
 3572TIP3    H132207   0.127   3.743  15.570 -0.5544 -0.1993 -1.5331
 3572TIP3    H232208   0.204   3.620  15.611  1.7774  2.5472  3.2060
 3573TIP3   OH232209   1.829   0.468  15.681 -0.3422  0.2308  0.0530
 3573TIP3    H132210   1.899   0.493  15.621 -0.2322 -2.6358 -1.1679
 3573TIP3    H232211   1.758   0.439  15.624 -0.6035 -1.6477  1.2386
 3574TIP3   OH232212   5.992   6.830  17.102  0.1501  0.3538 -0.7647
 3574TIP3    H132213   6.052   6.791  17.166  0.4636  0.4157 -1.0193
 3574TIP3    H232214   6.049   6.876  17.040 -0.1541  0.3508 -1.0523
 3575TIP3   OH232215   3.763   1.988   4.767 -0.6277  0.4612  0.3948
 3575TIP3    H132216   3.808   1.904   4.760 -1.4104  0.1557 -1.3919
 3575TIP3    H232217   3.834   2.052   4.770 -0.0365 -0.2097  1.2398
 3576TIP3   OH232218   3.703   0.106   3.675 -0.1653 -0.1603 -0.1704
 3576TIP3    H132219   3.742   0.190   3.700 -0.1743 -0.2021 -0.0102
 3576TIP3    H232220   3.720   0.098   3.581  1.7642 -0.9634  0.1932
 3577TIP3   OH232221   1.092   1.620  15.332  0.4796  0.1077 -0.0351
 3577TIP3    H132222   1.029   1.682  15.294  1.5645  1.9674  1.0765
 3577TIP3    H232223   1.040   1.568  15.393 -0.5686 -0.5620 -1.4167
 3578TIP3   OH232224   4.266   2.563   5.074 -0.2047  0.4221  0.4647
 3578TIP3    H132225   4.319   2.575   4.995  0.4581  0.8193  0.9590
 3578TIP3    H232226   4.178   2.544   5.042  0.0170  0.7837 -0.3646
 3579TIP3   OH232227   3.195   5.424  15.085  0.7985  0.2902  0.0855
 3579TIP3    H132228   3.178   5.517  15.102  2.0902  0.5413  0.1753
 3579TIP3    H232229   3.127   5.377  15.132  0.0781  1.2001 -0.0311
 3580TIP3   OH232230   6.834   4.320  10.914 -0.4437  0.1931 -0.1621
 3580TIP3    H132231   6.806   4.327  10.823  1.7533  1.0024 -0.8426
 3580TIP3    H232232   6.784   4.387  10.961 -1.6724 -0.3077 -0.7235
 3581TIP3   OH232233   5.084   0.972  15.798  0.5840 -0.1458 -0.2823
 3581TIP3    H132234   5.177   0.991  15.781  0.5668 -0.4028 -0.6750
 3581TIP3    H232235   5.037   1.019  15.729  0.4526 -0.4252 -0.3827
 3582TIP3   OH232236   5.121   2.984  15.319 -0.3094  0.1566 -0.0542
 3582TIP3    H132237   5.125   2.920  15.391 -3.4254 -0.1592 -0.0316
 3582TIP3    H232238   5.097   2.931  15.242 -0.6263  0.9849 -0.5308
 3583TIP3   OH232239   5.600   5.402  15.145 -0.0939 -0.2073 -0.1241
 3583TIP3    H132240   5.633   5.452  15.220  1.1641  1.7694 -1.9101
 3583TIP3    H232241   5.551   5.465  15.093 -2.4624 -1.9505 -0.1813
 3584TIP3   OH232242   2.962   2.217  17.201  0.8299 -0.3911 -0.3963
 3584TIP3    H132243   2.901   2.268  17.147  1.4026 -0.1380 -0.8041
 3584TIP3    H232244   3.032   2.191  17.142  1.2484 -0.4773  0.1251
 3585TIP3   OH232245   0.568   3.604   3.802  0.4440  0.4047  0.1949
 3585TIP3    H132246   0.659   3.577   3.816  0.5762  0.1961 -0.9553
 3585TIP3    H232247   0.526   3.593   3.888  0.8835 -1.9873  0.1856
 3586TIP3   OH232248   0.388   2.191  12.411 -0.3263  0.6825 -0.0835
 3586TIP3    H132249   0.457   2.231  12.358 -0.0038 -1.5561 -1.5128
 3586TIP3    H232250   0.417   2.100  12.423 -2.3636  0.0452  0.4816
 3587TIP3   OH232251   6.108   0.968  15.046  0.5683 -0.1350 -0.5332
 3587TIP3    H132252   6.109   0.954  15.140 -1.1588 -1.6501 -0.6924
 3587TIP3    H232253   6.201   0.974  15.022  1.2188 -2.9594  0.8505
 3588TIP3   OH232254   3.127   0.742  15.630  0.5654 -0.1581 -0.6216
 3588TIP3    H132255   3.212   0.707  15.654 -0.2537 -1.7356  0.0558
 3588TIP3    H232256   3.063   0.678  15.661 -0.8707  0.8030 -1.4261
 3589TIP3   OH232257   1.267   4.458  15.405 -0.1659  0.0626 -0.3821
 3589TIP3    H132258   1.303   4.410  15.330 -0.1007 -0.6515  0.0889
 3589TIP3    H232259   1.333   4.524  15.425 -0.6982  0.9963 -1.6407
 3590TIP3   OH232260   1.060   2.225   3.080  0.0411  0.0413  0.4534
 3590TIP3    H132261   1.021   2.298   3.128 -0.0061 -0.3396  1.0051
 3590TIP3    H232262   1.136   2.200   3.133 -0.0364 -0.4150  0.3520
 3591TIP3   OH232263   2.763   5.563   2.422  0.5090  0.2451 -0.3155
 3591TIP3    H132264   2.676   5.561   2.381 -0.4959  1.2293  1.6174
 3591TIP3    H232265   2.793   5.472   2.419 -0.7492 -0.1867 -0.7264
 3592TIP3   OH232266   3.205   3.863  16.733 -0.5453 -0.2873  0.2024
 3592TIP3    H132267   3.180   3.801  16.801 -0.3344 -1.2075 -0.5370
 3592TIP3    H232268   3.280   3.910  16.770 -0.8891 -0.2645  0.8833
 3593TIP3   OH232269   0.811   1.669   2.004  0.0276  0.2769  0.4249
 3593TIP3    H132270   0.854   1.717   2.074  1.4576  1.4265 -1.1700
 3593TIP3    H232271   0.788   1.735   1.939  1.9313 -1.0677 -1.7949
 3594TIP3   OH232272   5.902   2.500   5.861 -0.5409 -0.2281 -0.0443
 3594TIP3    H132273   5.872   2.586   5.830 -1.3830 -0.4108  0.2234
 3594TIP3    H232274   5.985   2.518   5.905 -0.3260  0.3305 -0.6483
 3595TIP3   OH232275   2.689   3.189   1.082 -0.0575 -0.2412 -0.1298
 3595TIP3    H132276   2.614   3.176   1.140  0.9597  0.8288  1.4689
 3595TIP3    H232277   2.653   3.238   1.008 -0.9983  0.0218  0.4755
 3596TIP3   OH232278   0.148   5.071   2.067  0.4435  0.6551  0.1442
 3596TIP3    H132279   0.065   5.035   2.098  0.6058  0.9155  0.8974
 3596TIP3    H232280   0.208   5.057   2.140  1.4135 -0.7218 -0.8723
 3597TIP3   OH232281   1.703   3.158   1.210  0.1932 -0.4934 -0.2477
 3597TIP3    H132282   1.715   3.129   1.300  0.7573 -0.2488 -0.2425
 3597TIP3    H232283   1.628   3.107   1.179  1.0084 -1.7925 -0.1660
 3598TIP3   OH232284   4.325   3.970   2.187 -0.8471  0.5430  0.3859
 3598TIP3    H132285   4.376   3.938   2.262  2.1614 -0.4895 -1.9221
 3598TIP3    H232286   4.282   3.892   2.153  0.5980  0.2810 -0.9319
 3599TIP3   OH232287   3.397   5.083  13.880  0.8820 -0.3531  0.2728
 3599TIP3    H132288   3.309   5.076  13.916  0.9011  0.6974  0.5381
 3599TIP3    H232289   3.423   4.992  13.865 -0.7624 -0.6539 -1.1116
 3600TIP3   OH232290   3.198   5.579   3.154  0.3137  0.5575 -0.6679
 3600TIP3    H132291   3.157   5.599   3.070  2.4979  0.2177 -1.8965
 3600TIP3    H232292   3.144   5.624   3.219 -1.6451  0.5423 -2.1932
 3601TIP3   OH232293   0.028   5.294   1.696  0.6300 -0.3884 -0.5755
 3601TIP3    H132294  -0.013   5.375   1.665 -0.0755 -1.1965 -1.8423
 3601TIP3    H232295   0.037   5.307   1.791 -0.1696  0.8590 -0.6377
 3602TIP3   OH232296   5.038   3.438  12.256  0.4452 -0.3391  0.5515
 3602TIP3    H132297   5.080   3.427  12.171  0.4143 -1.2326  0.6444
 3602TIP3    H232298   5.012   3.530  12.258 -1.8345 -0.8404 -1.4611
 3603TIP3   OH232299   6.379   1.101  14.237  0.1691 -0.1610  0.0733
 3603TIP3    H132300   6.309   1.058  14.187  0.2780 -2.4968  1.7330
 3603TIP3    H232301   6.418   1.163  14.176 -0.5780 -1.8784 -2.2790
 3604TIP3   OH232302   4.000   4.488   1.427 -0.0023 -0.2505  0.3019
 3604TIP3    H132303   3.932   4.424   1.407 -1.4397  1.1481  0.4979
 3604TIP3    H232304   3.968   4.570   1.387  0.0879  1.1386  2.8723
 3605TIP3   OH232305   1.320   0.059  16.561 -0.2800  0.2702  0.1532
 3605TIP3    H132306   1.290   0.150  16.552  0.9641  0.7053  0.1100
 3605TIP3    H232307   1.252   0.016  16.612 -0.8271  1.2669  0.2913
 3606TIP3   OH232308   5.408   0.428   2.875  0.1285  0.3098 -0.3095
 3606TIP3    H132309   5.435   0.451   2.964  1.4008 -1.9243 -0.0468
 3606TIP3    H232310   5.322   0.387   2.886  0.0667  0.4680 -0.1911
 3607TIP3   OH232311   2.880   3.265  13.677  0.2582 -0.3864 -0.0690
 3607TIP3    H132312   2.920   3.313  13.750 -0.5971 -1.9955  1.5394
 3607TIP3    H232313   2.913   3.176  13.686 -1.4199 -1.0837 -0.4038
 3608TIP3   OH232314   0.119   3.831  15.871  0.8261 -0.2711  0.1951
 3608TIP3    H132315   0.066   3.753  15.857  0.6143  0.0030 -0.5394
 3608TIP3    H232316   0.085   3.895  15.809  0.2602  0.7880  1.5479
 3609TIP3   OH232317   2.885   1.109   0.297 -0.1957 -0.1017  0.0017
 3609TIP3    H132318   2.885   1.025   0.252  0.4540  0.3444 -0.8529
 3609TIP3    H232319   2.827   1.096   0.372 -1.1770 -0.9061 -0.8758
 3610TIP3   OH232320   1.041   6.316  14.686 -0.2917  0.2866  0.6102
 3610TIP3    H132321   1.114   6.255  14.671  0.2801  1.0281  0.2760
 3610TIP3    H232322   1.040   6.371  14.608  2.0276  3.5283  2.6020
 3611TIP3   OH232323   6.267   5.392   2.229  0.0525 -0.2253 -0.0957
 3611TIP3    H132324   6.175   5.368   2.243  0.0756 -0.5114 -0.4427
 3611TIP3    H232325   6.265   5.487   2.217 -0.1199 -0.1421  0.5458
 3612TIP3   OH232326   1.713   4.958  11.356 -0.1349  0.5855  0.3276
 3612TIP3    H132327   1.652   5.022  11.320 -0.4538  0.9707  1.5155
 3612TIP3    H232328   1.676   4.934  11.440 -0.7301 -2.2137 -0.6203
 3613TIP3   OH232329   2.930   0.907   2.260 -0.0698 -0.1700 -0.6764
 3613TIP3    H132330   3.017   0.940   2.241  0.6085 -0.9112  0.8955
 3613TIP3    H232331   2.894   0.880   2.175  2.2961 -2.3273 -1.1001
 3614TIP3   OH232332   1.312   3.512  12.606  0.3293  0.5429 -0.5932
 3614TIP3    H132333   1.355   3.430  12.631  1.8095  1.0366 -1.3970
 3614TIP3    H232334   1.292   3.554  12.690 -1.7716 -1.2181 -0.1001
 3615TIP3   OH232335   4.411   0.228  11.256 -0.2644 -0.4365 -0.0942
 3615TIP3    H132336   4.479   0.264  11.313  1.3934  0.9382 -2.7747
 3615TIP3    H232337   4.435   0.136  11.245  2.7176  0.5016 -2.8423
 3616TIP3   OH232338   3.118   1.490  13.658 -0.1004 -0.3443  0.6666
 3616TIP3    H132339   3.206   1.483  13.621 -0.4721  0.0219 -0.3480
 3616TIP3    H232340   3.077   1.561  13.608 -0.9097 -0.3807  1.2514
 3617TIP3   OH232341   4.042   0.814  14.147  0.5618 -0.2174  0.2245
 3617TIP3    H132342   4.007   0.897  14.114  0.4869 -0.1119  0.5653
 3617TIP3    H232343   4.012   0.749  14.084 -0.9597 -0.2429  0.9286
 3618TIP3   OH232344   4.737   3.711   2.282  0.1272  0.1765  0.4010
 3618TIP3    H132345   4.819   3.684   2.324  0.0208 -1.9816 -0.6338
 3618TIP3    H232346   4.691   3.628   2.265 -1.5862  1.2492 -0.4116
 3619TIP3   OH232347   5.103   5.924   0.392 -0.9835 -0.3258 -0.3553
 3619TIP3    H132348   5.014   5.904   0.363 -1.3199  0.6396 -0.0524
 3619TIP3    H232349   5.093   5.946   0.485 -0.4165 -0.3178 -0.2960
 3620TIP3   OH232350   5.143   5.791  13.725 -0.1876  0.1050 -0.8398
 3620TIP3    H132351   5.237   5.776  13.718 -0.0692  0.3149  0.1710
 3620TIP3    H232352   5.104   5.729  13.664  0.5460 -0.7687 -0.4358
 3621TIP3   OH232353   4.073   5.538   1.132  0.3049  0.2007 -0.3029
 3621TIP3    H132354   4.095   5.555   1.040  0.2314  0.1151 -0.3367
 3621TIP3    H232355   3.988   5.494   1.129 -0.8372  2.2871 -0.0561
 3622TIP3   OH232356   1.066   3.894  16.233 -0.2185  0.3635  0.3389
 3622TIP3    H132357   1.162   3.897  16.231 -0.2354  1.3281  0.3729
 3622TIP3    H232358   1.044   3.927  16.320 -0.5601 -0.8038  0.7032
 3623TIP3   OH232359   3.630   0.950  12.168 -0.0568 -0.0663 -0.0294
 3623TIP3    H132360   3.684   0.935  12.091  1.1848  0.3519  0.7414
 3623TIP3    H232361   3.617   0.863  12.205  0.1162 -0.1594 -0.1861
 3624TIP3   OH232362   1.411   3.787   4.309  0.1013 -0.6601 -0.1184
 3624TIP3    H132363   1.358   3.795   4.388 -1.2952  1.0732 -1.1286
 3624TIP3    H232364   1.347   3.776   4.238  1.2784 -1.6950 -1.0653
 3625TIP3   OH232365   1.914   6.806  17.041  0.0617 -0.1131  0.4802
 3625TIP3    H132366   1.965   6.773  16.967  2.0777 -1.1106  2.1989
 3625TIP3    H232367   1.848   6.739  17.057 -0.4606  0.1633 -0.4434
 3626TIP3   OH232368   6.782   3.637   5.602 -0.8770 -0.2108  0.0190
 3626TIP3    H132369   6.805   3.646   5.509 -1.3739  2.4395  0.0726
 3626TIP3    H232370   6.692   3.607   5.601 -0.6713 -0.8423 -0.3332
 3627TIP3   OH232371   5.252   6.814  14.802 -0.2781  0.4340  0.3695
 3627TIP3    H132372   5.336   6.833  14.843 -0.8527  0.9366  1.3660
 3627TIP3    H232373   5.217   6.900  14.779 -1.0234  0.3172  1.0265
 3628TIP3   OH232374   0.570   0.148  11.737  0.0811  0.1809 -0.2926
 3628TIP3    H132375   0.629   0.125  11.666  2.3081  0.0570  1.4627
 3628TIP3    H232376   0.574   0.244  11.740 -1.3622  0.2959 -1.3659
 3629TIP3   OH232377   4.752   4.519  14.974 -0.5603 -0.1142 -0.5581
 3629TIP3    H132378   4.710   4.471  15.045  0.7672 -1.1231 -0.4168
 3629TIP3    H232379   4.805   4.454  14.929  1.9468  1.3153  0.1310
 3630TIP3   OH232380   4.077   2.476  15.949  0.3842  0.4232  0.0859
 3630TIP3    H132381   4.081   2.529  16.028 -2.7771  1.6483 -0.4537
 3630TIP3    H232382   4.051   2.389  15.979  0.3485  0.5731  0.4959
 3631TIP3   OH232383   0.392   1.599  15.737 -0.2797 -0.7225  0.0475
 3631TIP3    H132384   0.372   1.548  15.658  0.2705  0.1824 -0.7024
 3631TIP3    H232385   0.306   1.619  15.774 -0.5234 -1.6246 -0.0060
 3632TIP3   OH232386   0.104   1.529  10.655 -0.2670  0.8312  0.2732
 3632TIP3    H132387   0.198   1.534  10.638 -0.2739  1.3864  0.3801
 3632TIP3    H232388   0.068   1.609  10.615 -0.7839  0.3007 -0.3489
 3633TIP3   OH232389   4.103   2.931   1.205 -0.1376 -0.2165  0.0202
 3633TIP3    H132390   4.029   2.949   1.263 -0.2862 -2.0311  0.4513
 3633TIP3    H232391   4.063   2.911   1.121  0.0003  0.8302 -0.3143
 3634TIP3   OH232392   2.888   5.606  14.245 -0.2536  0.1170  0.5373
 3634TIP3    H132393   2.956   5.631  14.307  0.8722 -1.7665  0.1557
 3634TIP3    H232394   2.882   5.680  14.185  0.5665  0.8340  1.3128
 3635TIP3   OH232395   5.405   6.224   1.328  0.0033 -0.1043  0.2619
 3635TIP3    H132396   5.492   6.197   1.297 -0.5745 -0.8060 -0.7945
 3635TIP3    H232397   5.382   6.160   1.396  0.7551  0.7260  1.3393
 3636TIP3   OH232398   5.873   0.323   3.763 -0.5364  0.0621  0.1529
 3636TIP3    H132399   5.891   0.350   3.853  3.4973 -0.9581 -0.1204
 3636TIP3    H232400   5.867   0.404   3.714 -0.0142  0.6080  0.9619
 3637TIP3   OH232401   0.933   2.621  12.998 -0.0412  0.2944 -0.5233
 3637TIP3    H132402   0.989   2.586  13.067 -1.9529 -3.8583 -0.7622
 3637TIP3    H232403   0.983   2.606  12.917  0.0667  0.1732 -0.4354
 3638TIP3   OH232404   1.631   4.096   5.205  0.4799  0.1601  0.1526
 3638TIP3    H132405   1.686   4.164   5.245  1.8524 -0.6824 -0.2244
 3638TIP3    H232406   1.569   4.144   5.150  0.9965  1.1384  0.4028
 3639TIP3   OH232407   2.178   6.523   0.333 -0.4617  0.2522  0.1832
 3639TIP3    H132408   2.186   6.448   0.392 -0.1441 -0.3393 -0.5983
 3639TIP3    H232409   2.251   6.581   0.357  0.9505 -0.9558 -0.9729
 3640TIP3   OH232410   6.779   5.381  14.458  0.6490 -0.3516  0.2860
 3640TIP3    H132411   6.692   5.401  14.422  0.1018  0.9527  2.1980
 3640TIP3    H232412   6.807   5.302  14.411 -1.4447 -0.6407 -0.5718
 3641TIP3   OH232413   4.481   5.110  13.938 -0.2718  0.0261 -0.0961
 3641TIP3    H132414   4.422   5.165  13.886 -1.1812  0.0029  0.8649
 3641TIP3    H232415   4.507   5.166  14.011 -0.3987 -0.4741  0.3450
 3642TIP3   OH232416   3.981   2.387  11.611  0.6344  0.1812 -0.2345
 3642TIP3    H132417   4.076   2.397  11.608  0.8070 -0.7346  1.4573
 3642TIP3    H232418   3.967   2.293  11.624 -0.5765  0.0286 -2.1791
 3643TIP3   OH232419   4.845   0.907  16.250 -0.6735 -0.5924 -0.2448
 3643TIP3    H132420   4.758   0.880  16.279 -0.0231 -1.4619  1.0071
 3643TIP3    H232421   4.833   0.996  16.218 -1.5620  0.4058  2.5338
 3644TIP3   OH232422   2.096   5.291   3.181  0.3629 -0.0623 -0.2345
 3644TIP3    H132423   2.145   5.240   3.245 -0.2623 -0.2047  0.1281
 3644TIP3    H232424   2.053   5.359   3.232 -0.1626 -0.1937 -0.4977
 3645TIP3   OH232425   4.588   0.473   4.025  0.0510 -0.0233  0.3740
 3645TIP3    H132426   4.494   0.455   4.022  0.1672 -0.6375  0.3378
 3645TIP3    H232427   4.604   0.507   4.113 -0.4781  1.6826 -0.1482
 3646TIP3   OH232428   6.526   0.592  15.953  0.4384  0.1076 -0.5051
 3646TIP3    H132429   6.456   0.527  15.955  0.7410 -0.3727 -2.7133
 3646TIP3    H232430   6.536   0.613  15.860  0.9908  2.6353  0.0508
 3647TIP3   OH232431   1.606   2.518  13.555 -0.4213 -0.4128 -0.2684
 3647TIP3    H132432   1.519   2.540  13.523  0.3165  2.2989 -0.6597
 3647TIP3    H232433   1.658   2.597  13.540  1.7332 -1.4140  1.3256
 3648TIP3   OH232434   0.183   3.182   0.872  0.1580 -0.1771  0.4221
 3648TIP3    H132435   0.211   3.182   0.781 -1.7202  1.1193 -0.2166
 3648TIP3    H232436   0.089   3.170   0.869  0.1714 -1.1848  2.2847
 3649TIP3   OH232437   5.772   4.021  16.432 -0.4386  0.3338 -0.0468
 3649TIP3    H132438   5.782   4.091  16.496 -0.7484  0.2211  0.1270
 3649TIP3    H232439   5.816   3.946  16.472 -2.5719 -0.4005  1.0909
 3650TIP3   OH232440   0.712   6.489   1.105 -0.5924  0.0909  0.2836
 3650TIP3    H132441   0.759   6.555   1.157  2.4676 -0.3099 -1.7577
 3650TIP3    H232442   0.631   6.533   1.080 -0.9618  1.2385  3.0876
 3651TIP3   OH232443   0.382   3.096  12.237  0.7800  0.0563 -0.4927
 3651TIP3    H132444   0.314   3.062  12.179 -2.2855 -0.2626  2.9783
 3651TIP3    H232445   0.437   3.020  12.256  1.1241 -0.0903 -1.9421
 3652TIP3   OH232446   5.581   0.060  13.876 -0.4333 -0.3916  0.3154
 3652TIP3    H132447   5.589   0.116  13.953 -1.1589 -1.9121  1.5385
 3652TIP3    H232448   5.607   0.116  13.803 -1.3386  1.6159  1.4545
 3653TIP3   OH232449   1.839   6.395  12.726 -0.3718 -0.2256  0.0111
 3653TIP3    H132450   1.863   6.478  12.684 -0.2707 -0.1756  0.1656
 3653TIP3    H232451   1.769   6.418  12.787  0.7972  0.0554  1.2930
 3654TIP3   OH232452   3.280   0.554  13.142 -0.1539 -0.1404  0.0219
 3654TIP3    H132453   3.369   0.564  13.110  0.2224 -2.0333  0.3350
 3654TIP3    H232454   3.263   0.460  13.137 -1.4800 -0.0468  1.6241
 3655TIP3   OH232455   0.853   1.323  13.020 -0.5453 -0.7469 -0.2380
 3655TIP3    H132456   0.880   1.232  13.037  2.6645  0.4245  2.1211
 3655TIP3    H232457   0.803   1.347  13.098 -1.9114 -0.6300 -1.1334
 3656TIP3   OH232458   2.212   2.153   4.825  0.0960 -0.2319 -0.2719
 3656TIP3    H132459   2.228   2.122   4.736  1.1416  0.6628 -0.4090
 3656TIP3    H232460   2.211   2.248   4.819  0.8017 -0.1376  0.7709
 3657TIP3   OH232461   6.591   1.397   1.391  0.5567 -0.2594 -0.7526
 3657TIP3    H132462   6.609   1.440   1.308 -0.3677  0.2741 -0.6986
 3657TIP3    H232463   6.502   1.424   1.413  1.1734  0.5193  0.9631
 3658TIP3   OH232464   6.126   5.271  15.034 -0.1801  0.1403  0.7314
 3658TIP3    H132465   6.048   5.231  14.995 -0.8865 -0.6389  2.8267
 3658TIP3    H232466   6.091   5.336  15.096  0.8187 -0.1608  1.6380
 3659TIP3   OH232467   3.352   2.987   4.757  0.0267 -0.1083  0.5562
 3659TIP3    H132468   3.320   2.958   4.672 -0.1408 -0.2208  0.6584
 3659TIP3    H232469   3.435   3.030   4.738  1.8517 -3.2907  0.7263
 3660TIP3   OH232470   0.005   0.415  16.824  0.0564  0.3608 -0.0033
 3660TIP3    H132471   0.008   0.451  16.912  1.3142  2.8844 -0.9723
 3660TIP3    H232472  -0.079   0.442  16.789 -0.3278 -0.4080  0.3014
 3661TIP3   OH232473   2.601   4.958  10.467  0.0222  0.4356 -0.0201
 3661TIP3    H132474   2.688   4.979  10.434 -0.9312  1.7623 -1.9067
 3661TIP3    H232475   2.593   4.863  10.454  0.3517  0.6399 -2.1253
 3662TIP3   OH232476   6.220   1.981  16.252  0.5497  0.1634  0.1281
 3662TIP3    H132477   6.268   1.965  16.171  0.1301  0.1661 -0.1210
 3662TIP3    H232478   6.220   1.897  16.298 -0.1090 -0.0993 -0.3521
 3663TIP3   OH232479   3.447   5.250  15.129  0.0284 -0.2411  0.1746
 3663TIP3    H132480   3.497   5.315  15.179  0.3954  1.3126 -2.0589
 3663TIP3    H232481   3.358   5.286  15.126  0.0749 -0.1873 -0.5146
 3664TIP3   OH232482   4.328   2.099   0.050  0.4141 -0.4592  0.3803
 3664TIP3    H132483   4.289   2.178   0.013  0.4637 -0.6562 -0.1024
 3664TIP3    H232484   4.417   2.098   0.015  0.7300 -0.2084  1.1767
 3665TIP3   OH232485   4.863   0.697   4.180 -0.0882  0.0874 -0.0561
 3665TIP3    H132486   4.864   0.616   4.129 -1.1540 -0.7535  1.2101
 3665TIP3    H232487   4.844   0.765   4.116  1.0743 -0.6073 -1.1867
 3666TIP3   OH232488   3.443   6.256   0.118  0.4669 -0.5037 -0.9056
 3666TIP3    H132489   3.528   6.263   0.074 -0.2121  0.5539 -2.0965
 3666TIP3    H232490   3.388   6.321   0.075 -0.9494 -1.1457 -0.1298
 3667TIP3   OH232491   2.982   1.369   2.188 -0.4795 -0.4288 -0.4697
 3667TIP3    H132492   2.954   1.365   2.279 -2.1394  2.1180 -0.7529
 3667TIP3    H232493   3.073   1.398   2.192 -0.6466  0.0128  0.3824
 3668TIP3   OH232494   6.280   4.246  11.325  0.3823  0.0396 -0.4393
 3668TIP3    H132495   6.238   4.277  11.406  0.9555 -1.8563  0.6476
 3668TIP3    H232496   6.210   4.206  11.275  0.1178  0.7456 -0.6333
 3669TIP3   OH232497   4.312   0.689   1.052  0.0678 -0.0981  0.3380
 3669TIP3    H132498   4.389   0.669   1.105  0.6580 -1.0541 -0.8355
 3669TIP3    H232499   4.317   0.629   0.978 -0.2809  1.7102 -1.2479
 3670TIP3   OH232500   4.146   4.975  13.652 -0.2584 -0.2695  0.1755
 3670TIP3    H132501   4.096   4.908  13.604 -0.9514  0.1108  0.3567
 3670TIP3    H232502   4.173   4.931  13.733 -0.5191 -0.4038  0.1905
 3671TIP3   OH232503   2.765   4.818  17.036 -0.2564  0.3333 -0.0764
 3671TIP3    H132504   2.733   4.903  17.005 -0.1965  0.2155 -0.4640
 3671TIP3    H232505   2.694   4.757  17.018 -0.9051  0.5511  1.5584
 3672TIP3   OH232506   6.701   3.801  14.504  0.1128 -0.1469  0.0850
 3672TIP3    H132507   6.735   3.734  14.563  0.6168  0.3177  0.3269
 3672TIP3    H232508   6.739   3.883  14.536 -1.0476  0.3525  0.2208
 3673TIP3   OH232509   0.537   2.290   2.096 -0.2957 -0.5473 -0.6980
 3673TIP3    H132510   0.585   2.350   2.153  0.1395 -0.1883 -1.4317
 3673TIP3    H232511   0.596   2.216   2.084  0.3310  0.1433 -2.0507
 3674TIP3   OH232512   0.741   0.812  14.147  0.3689 -0.2250  0.1896
 3674TIP3    H132513   0.666   0.846  14.098 -0.0919 -0.8585  0.4472
 3674TIP3    H232514   0.748   0.870  14.223 -1.3611 -1.5371  1.4467
 3675TIP3   OH232515   6.577   2.216  12.342  0.0584  0.1397  0.3072
 3675TIP3    H132516   6.639   2.165  12.394  0.6800  2.8969  2.5585
 3675TIP3    H232517   6.520   2.257  12.408 -2.4470 -0.1663 -1.5504
 3676TIP3   OH232518   5.999   3.277   1.195  0.0690 -0.7301 -0.1196
 3676TIP3    H132519   5.995   3.245   1.105  1.1269 -1.4831  0.0825
 3676TIP3    H232520   6.090   3.304   1.207 -0.2317  0.0496  0.5036
 3677TIP3   OH232521   1.012   5.145   0.130  0.0782 -0.7276 -0.3723
 3677TIP3    H132522   1.032   5.096   0.209 -1.0806 -0.5792  0.0296
 3677TIP3    H232523   1.097   5.176   0.098  0.4316  0.5174  1.6470
 3678TIP3   OH232524   5.088   3.172   5.301 -0.2446  0.2485 -0.5177
 3678TIP3    H132525   5.030   3.151   5.228 -0.5146  1.3237 -0.6430
 3678TIP3    H232526   5.152   3.233   5.264  2.1457 -2.2723 -0.8429
 3679TIP3   OH232527   1.109   0.888   1.108  0.7213 -0.0959 -0.2248
 3679TIP3    H132528   1.077   0.883   1.198  2.2755  2.5406  0.5841
 3679TIP3    H232529   1.050   0.950   1.065  0.8433 -0.2364 -0.5928
 3680TIP3   OH232530   1.610   6.723   3.991  0.8576 -0.1296  0.0092
 3680TIP3    H132531   1.554   6.795   3.960  1.5196  0.1932 -0.4523
 3680TIP3    H232532   1.609   6.659   3.919 -0.8834 -1.2743  0.9800
 3681TIP3   OH232533   6.197   2.272  10.882  0.0048  0.2680 -0.1013
 3681TIP3    H132534   6.245   2.189  10.889  0.5276  0.5897  0.1729
 3681TIP3    H232535   6.105   2.245  10.878  0.0959 -0.2926  1.0071
 3682TIP3   OH232536   2.290   1.793  16.407  0.0662  0.2394  0.3403
 3682TIP3    H132537   2.332   1.839  16.334  0.6165  0.8921  1.0624
 3682TIP3    H232538   2.196   1.798  16.387  0.1554  1.1139  0.0864
 3683TIP3   OH232539   4.448   3.680  17.200  0.0235  0.1981  0.2150
 3683TIP3    H132540   4.470   3.669  17.108  0.5136 -1.1238  0.4613
 3683TIP3    H232541   4.355   3.659  17.205  0.1925 -0.6257  0.1348
 3684TIP3   OH232542   1.248   6.462   0.623  0.0160 -0.2262  0.7590
 3684TIP3    H132543   1.305   6.511   0.564  1.7009 -1.1907  1.5090
 3684TIP3    H232544   1.163   6.505   0.616  1.0920  1.9554  0.3948
 3685TIP3   OH232545   4.923   3.353   4.070  0.5337  0.1761  0.0514
 3685TIP3    H132546   4.856   3.405   4.025 -0.6430  1.0489  2.6185
 3685TIP3    H232547   4.875   3.280   4.110  0.9496  1.0324  2.2724
 3686TIP3   OH232548   3.604   5.269  15.471  0.0321  0.3863 -0.2474
 3686TIP3    H132549   3.653   5.273  15.553  2.7133  1.3221 -1.7636
 3686TIP3    H232550   3.576   5.359  15.454 -1.7562 -0.0332  0.2787
 3687TIP3   OH232551   6.340   4.132   2.469  0.8337 -0.6595  0.3974
 3687TIP3    H132552   6.340   4.158   2.377  1.3280  1.1534  0.8713
 3687TIP3    H232553   6.267   4.070   2.477  0.1499 -0.0684 -1.0042
 3688TIP3   OH232554   0.419   4.011  11.103  0.0037  0.4057 -0.0409
 3688TIP3    H132555   0.422   3.936  11.044 -0.7144  0.6907 -0.4554
 3688TIP3    H232556   0.411   3.972  11.191  2.7061 -0.0580  0.0756
 3689TIP3   OH232557   5.725   3.254  11.531  0.9618  0.0854 -0.3091
 3689TIP3    H132558   5.769   3.213  11.605  0.4177  1.6874  0.9928
 3689TIP3    H232559   5.634   3.225  11.538  1.0981 -0.5399 -0.9713
 3690TIP3   OH232560   6.558   1.291  12.316  0.1798 -0.1519  0.1785
 3690TIP3    H132561   6.597   1.366  12.272 -0.6474 -0.4304 -1.0856
 3690TIP3    H232562   6.479   1.325  12.358 -1.2245 -0.5638 -1.9192
 3691TIP3   OH232563   4.044   5.034  15.564 -0.0818 -0.4131 -0.4054
 3691TIP3    H132564   4.135   5.022  15.591  0.2654 -0.1707 -1.4118
 3691TIP3    H232565   4.050   5.074  15.477 -1.1476  1.8354  0.4780
 3692TIP3   OH232566   0.982   1.177   4.733 -0.1087  0.3142  0.1920
 3692TIP3    H132567   1.055   1.203   4.678 -1.7862  2.3192 -1.2405
 3692TIP3    H232568   0.949   1.258   4.770  0.3729 -0.8678  3.5649
 3693TIP3   OH232569   5.547   4.529  14.867  0.1644 -0.0448  0.2395
 3693TIP3    H132570   5.513   4.573  14.789  1.1181  0.8640  0.3069
 3693TIP3    H232571   5.506   4.443  14.866 -1.7051  0.7985  0.0449
 3694TIP3   OH232572   3.804   2.537  16.903  0.4478  0.3276 -0.0052
 3694TIP3    H132573   3.831   2.628  16.919 -3.5928  2.0166 -1.4991
 3694TIP3    H232574   3.722   2.527  16.952  1.1466 -2.8790  0.7465
 3695TIP3   OH232575   1.746   0.578  17.157 -0.1496  0.3254 -0.1783
 3695TIP3    H132576   1.664   0.626  17.149  0.1573  0.6738 -1.4510
 3695TIP3    H232577   1.811   0.645  17.177 -0.2269 -0.0132  1.3539
 3696TIP3   OH232578   0.542   3.516  11.252 -0.2054 -0.2412  0.7919
 3696TIP3    H132579   0.495   3.438  11.281 -0.2437 -0.0530  1.2462
 3696TIP3    H232580   0.538   3.512  11.157 -2.4477  0.5614  0.7969
 3697TIP3   OH232581   4.449   3.777  11.811  0.1628 -0.5454  0.1136
 3697TIP3    H132582   4.511   3.772  11.883 -1.7314 -1.0116  1.7827
 3697TIP3    H232583   4.419   3.687  11.797  2.0011 -0.8368 -2.7224
 3698TIP3   OH232584   1.145   4.695   6.116 -0.4261 -0.1438 -0.0212
 3698TIP3    H132585   1.180   4.783   6.126 -1.3829  0.2579 -0.0879
 3698TIP3    H232586   1.057   4.699   6.156 -0.4195 -1.1057  0.1291
 3699TIP3   OH232587   6.006   5.736  12.349  0.7157  0.8329 -0.4302
 3699TIP3    H132588   6.007   5.809  12.411  1.2032  1.8447 -1.5903
 3699TIP3    H232589   6.097   5.726  12.321  0.6828 -0.3224 -0.2033
 3700TIP3   OH232590   1.968   1.826  11.123 -0.2152  0.3335  0.1983
 3700TIP3    H132591   1.914   1.755  11.159 -0.1553  0.2784  0.1811
 3700TIP3    H232592   1.999   1.874  11.199  0.6610 -0.3303  0.2702
 3701TIP3   OH232593   4.237   5.830   2.769 -0.1043  0.3375  0.4214
 3701TIP3    H132594   4.323   5.873   2.766  0.4913 -0.7949  0.4480
 3701TIP3    H232595   4.194   5.857   2.688 -0.1480  1.7295  0.8786
 3702TIP3   OH232596   0.524   2.670  11.984 -0.2936  0.6759  0.0926
 3702TIP3    H132597   0.430   2.684  11.971 -0.7873 -0.7841  1.7769
 3702TIP3    H232598   0.563   2.693  11.899 -2.3436 -0.2800 -1.1988
 3703TIP3   OH232599   2.674   0.226   0.792  0.8467  0.5339 -0.2143
 3703TIP3    H132600   2.657   0.213   0.698 -0.3934  0.1462  0.0442
 3703TIP3    H232601   2.695   0.139   0.825  0.3115  0.4966  0.0428
 3704TIP3   OH232602   5.268   4.399   0.457  0.1761  0.5054  0.2056
 3704TIP3    H132603   5.217   4.334   0.409  0.3666  0.8610 -0.4926
 3704TIP3    H232604   5.249   4.381   0.549  0.5709 -0.8227  0.0565
 3705TIP3   OH232605   6.229   3.943   5.015  0.1820  1.0229  0.0530
 3705TIP3    H132606   6.199   3.919   4.927  0.8228  2.3860 -0.5628
 3705TIP3    H232607   6.154   3.989   5.054 -1.0359 -1.7098  1.2220
 3706TIP3   OH232608   2.633   6.315  15.477  0.1510 -0.3840 -0.4350
 3706TIP3    H132609   2.629   6.223  15.505  1.4453 -0.1375  0.7189
 3706TIP3    H232610   2.637   6.311  15.382  1.0964 -1.5937 -0.3756
 3707TIP3   OH232611   0.491   3.438  15.947  0.2922  0.2558 -0.0139
 3707TIP3    H132612   0.456   3.516  15.904  0.3479  0.3266  0.0675
 3707TIP3    H232613   0.580   3.462  15.971  0.6294 -0.1551 -0.8170
 3708TIP3   OH232614   3.397   4.621   4.277  0.4243  0.4108 -0.4797
 3708TIP3    H132615   3.370   4.688   4.214  0.0746  0.8638  0.1382
 3708TIP3    H232616   3.483   4.592   4.247  0.5512  1.0952 -0.7881
 3709TIP3   OH232617   1.188   1.324  12.487  0.2614  0.2959 -0.3672
 3709TIP3    H132618   1.234   1.240  12.480 -2.2884 -1.2166 -0.3569
 3709TIP3    H232619   1.136   1.316  12.567 -1.6615  0.9645 -1.4788
 3710TIP3   OH232620   6.461   4.117   0.071  0.3731  0.2281 -0.0900
 3710TIP3    H132621   6.459   4.070  -0.012 -0.1253 -0.1890  0.1545
 3710TIP3    H232622   6.382   4.089   0.117  0.4771  0.7004  0.3911
 3711TIP3   OH232623   3.890   4.188  14.500 -0.0279 -0.0584  0.2057
 3711TIP3    H132624   3.817   4.160  14.556 -1.5128 -1.1350 -2.1266
 3711TIP3    H232625   3.881   4.283  14.496 -2.3515 -0.2654 -1.2718
 3712TIP3   OH232626   3.314   0.251  12.706  0.6592 -0.0855  0.3139
 3712TIP3    H132627   3.239   0.206  12.744  1.1115 -0.8864  0.2672
 3712TIP3    H232628   3.369   0.275  12.781 -0.4090  1.9893  0.5186
 3713TIP3   OH232629   5.338   4.749  12.085  0.0491 -0.1207  0.4617
 3713TIP3    H132630   5.364   4.754  12.177  0.4179 -0.5633  0.3845
 3713TIP3    H232631   5.283   4.826  12.071 -0.5831 -0.4200  1.2366
 3714TIP3   OH232632   0.335   3.639   1.113 -0.0149 -0.0810  0.1861
 3714TIP3    H132633   0.379   3.588   1.044  0.2364 -2.0091  1.6707
 3714TIP3    H232634   0.242   3.633   1.092  0.0533 -0.7441  0.0400
 3715TIP3   OH232635   6.463   2.113  13.514  0.4280  0.2288  0.3187
 3715TIP3    H132636   6.381   2.138  13.472  0.0101  1.2667  1.7010
 3715TIP3    H232637   6.526   2.180  13.487  0.9664 -0.7867 -1.0686
 3716TIP3   OH232638   2.821   4.773   2.114  0.3358  0.0437 -0.3496
 3716TIP3    H132639   2.916   4.777   2.123  0.1745  1.4292  1.2155
 3716TIP3    H232640   2.790   4.856   2.150 -1.5344 -0.9056  0.3500
 3717TIP3   OH232641   5.678   0.342   0.498 -0.4982  0.2261  0.0609
 3717TIP3    H132642   5.748   0.276   0.495  0.2340  1.0063 -0.7060
 3717TIP3    H232643   5.607   0.304   0.447 -0.5603 -0.4816  0.6527
 3718TIP3   OH232644   6.468   4.277   2.038 -0.3559 -0.6954 -0.1869
 3718TIP3    H132645   6.511   4.197   2.069 -0.5280 -0.3852  0.8815
 3718TIP3    H232646   6.481   4.276   1.943 -0.8469 -2.2749 -0.2636
 3719TIP3   OH232647   5.022   5.850  14.313 -0.3600  0.3512 -0.1792
 3719TIP3    H132648   5.010   5.807  14.228  0.6302  2.3179 -1.3773
 3719TIP3    H232649   5.103   5.811  14.347 -0.1953  0.2971 -0.6240
 3720TIP3   OH232650   6.092   6.335  15.465  0.3116 -0.0318 -0.4248
 3720TIP3    H132651   6.156   6.397  15.501  1.3244 -1.5196  0.4497
 3720TIP3    H232652   6.135   6.297  15.389  1.8638 -3.2069  1.8080
 3721TIP3   OH232653   4.892   2.981   0.334 -0.4115  0.0053 -0.2631
 3721TIP3    H132654   4.915   3.003   0.244  1.3214 -0.3665  0.0573
 3721TIP3    H232655   4.823   2.915   0.326  0.3419 -0.6693 -1.3322
 3722TIP3   OH232656   5.184   0.933  16.657 -0.1124 -0.9588 -0.1074
 3722TIP3    H132657   5.180   1.018  16.701  0.4822 -1.3946  0.8213
 3722TIP3    H232658   5.132   0.945  16.577 -0.8832 -0.0287  0.5082
 3723TIP3   OH232659   1.249   5.623  16.510 -0.1010 -0.0711  0.0590
 3723TIP3    H132660   1.236   5.625  16.415 -0.4964 -0.2634  0.1086
 3723TIP3    H232661   1.231   5.712  16.539 -3.9385 -0.8135  0.4559
 3724TIP3   OH232662   2.895   5.970  11.432  0.6811  0.0356  0.1653
 3724TIP3    H132663   2.984   5.947  11.403  0.8703  2.1526 -1.2212
 3724TIP3    H232664   2.844   5.972  11.351 -0.4258 -0.2723  0.8388
 3725TIP3   OH232665   4.089   5.331  12.419  0.3248 -0.0585  0.2839
 3725TIP3    H132666   4.158   5.395  12.404 -0.4469  0.7486  0.1407
 3725TIP3    H232667   4.113   5.257  12.363  1.2617  0.0492  0.5173
 3726TIP3   OH232668   5.016   3.616   5.999 -0.1275 -0.3346 -0.3799
 3726TIP3    H132669   5.014   3.649   5.910 -1.5315 -0.2105 -0.3271
 3726TIP3    H232670   4.926   3.588   6.017 -0.6960  2.5031  2.0389
 3727TIP3   OH232671   1.589   4.752   4.683 -0.2836 -0.4044 -0.4362
 3727TIP3    H132672   1.577   4.836   4.729  1.1737 -1.7102  2.6165
 3727TIP3    H232673   1.649   4.772   4.612  0.1106  1.1644  0.2879
 3728TIP3   OH232674   4.504   2.537  14.280  0.2782 -0.3641  0.2523
 3728TIP3    H132675   4.501   2.632  14.286 -1.7439 -0.3231 -0.5814
 3728TIP3    H232676   4.556   2.509  14.355 -0.3074  1.3349  1.3432
 3729TIP3   OH232677   3.517   3.363  14.635 -0.2962  0.1198 -0.4257
 3729TIP3    H132678   3.458   3.438  14.647 -2.1665 -1.1673 -1.1199
 3729TIP3    H232679   3.472   3.307  14.571  1.0683 -1.5744  0.0214
 3730TIP3   OH232680   3.624   5.281  15.894  0.0270 -0.1521  0.0264
 3730TIP3    H132681   3.663   5.300  15.979  0.6429  2.0732 -0.6832
 3730TIP3    H232682   3.605   5.187  15.897  2.4015 -0.6890  1.6607
 3731TIP3   OH232683   1.209   4.181   3.614 -0.0315  0.0214 -0.0866
 3731TIP3    H132684   1.213   4.169   3.709  1.1465  1.3005  0.0626
 3731TIP3    H232685   1.293   4.149   3.582 -0.6040 -0.8523 -0.7826
 3732TIP3   OH232686   5.871   6.445   6.224 -0.3568  0.3457  0.2468
 3732TIP3    H132687   5.879   6.370   6.166 -4.1543  0.9759 -1.4366
 3732TIP3    H232688   5.871   6.521   6.165  0.5581  1.4547  1.6127
 3733TIP3   OH232689   1.481   0.436  16.657  0.2245 -0.2283  0.0793
 3733TIP3    H132690   1.513   0.406  16.742  1.2945 -0.8571 -0.5369
 3733TIP3    H232691   1.531   0.387  16.592  0.5655  1.3800 -0.9405
 3734TIP3   OH232692   5.613   6.514   2.565 -0.1552 -0.6011 -0.3923
 3734TIP3    H132693   5.675   6.486   2.632 -1.0897  0.1571  0.8344
 3734TIP3    H232694   5.572   6.432   2.535 -0.4535 -0.8826  0.7168
 3735TIP3   OH232695   1.685   6.669  16.463 -0.1931  0.0825  0.2148
 3735TIP3    H132696   1.631   6.643  16.388 -1.5161 -1.1035  1.5348
 3735TIP3    H232697   1.624   6.704  16.527  0.6522 -0.7310  1.5179
 3736TIP3   OH232698   1.349   5.595  15.951  0.0685 -0.1615 -0.2516
 3736TIP3    H132699   1.297   5.548  15.887 -0.2231  0.5991 -0.5855
 3736TIP3    H232700   1.325   5.687  15.939  0.2929  0.0318  0.6828
 3737TIP3   OH232701   1.909   0.686   0.196  0.2544  0.3416  0.8965
 3737TIP3    H132702   1.985   0.635   0.223 -0.8407 -0.8293  1.8689
 3737TIP3    H232703   1.834   0.636   0.227 -0.8908  3.1182  3.0748
 3738TIP3   OH232704   2.147   4.523   4.180  0.3758  0.0116  0.1132
 3738TIP3    H132705   2.065   4.511   4.132 -1.0966  0.1180  2.4279
 3738TIP3    H232706   2.143   4.614   4.211  1.4575  0.0584  0.1417
 3739TIP3   OH232707   3.661   0.801  11.128  1.0468 -0.1875  0.4698
 3739TIP3    H132708   3.653   0.895  11.139 -1.0721 -0.3319  0.6625
 3739TIP3    H232709   3.631   0.764  11.211 -1.0774 -1.0213 -0.5760
 3740TIP3   OH232710   1.637   0.302   4.085  0.5457  0.5604  0.2735
 3740TIP3    H132711   1.612   0.264   4.169 -3.3694  2.8382  0.3513
 3740TIP3    H232712   1.695   0.374   4.107  1.3219 -0.1979  0.7785
 3741TIP3   OH232713   1.186   5.277  12.526 -0.0847  0.4504  0.4544
 3741TIP3    H132714   1.244   5.339  12.571  0.1566  1.2013 -0.8099
 3741TIP3    H232715   1.117   5.258  12.589  0.2540  1.4172  1.1485
 3742TIP3   OH232716   4.120   2.134  15.813  0.5912  0.1381  0.2071
 3742TIP3    H132717   4.150   2.054  15.856  2.0364  0.7011  0.3024
 3742TIP3    H232718   4.095   2.107  15.725 -0.0047 -0.5883  0.5811
 3743TIP3   OH232719   6.747   2.922  12.795  0.1466 -0.3432  0.2138
 3743TIP3    H132720   6.719   3.014  12.793 -0.5956 -0.4719  1.9328
 3743TIP3    H232721   6.842   2.925  12.805 -0.1013  0.4333  3.9126
 3744TIP3   OH232722   1.374   4.017   4.059  0.2815 -0.4582  0.4049
 3744TIP3    H132723   1.343   4.102   4.030  2.3867 -0.1676 -1.2982
 3744TIP3    H232724   1.295   3.969   4.083 -1.1043  1.3543 -0.3208
 3745TIP3   OH232725   1.493   4.669   2.699 -0.5016 -0.2021  0.7911
 3745TIP3    H132726   1.426   4.608   2.671  0.9382  0.2314 -4.8594
 3745TIP3    H232727   1.569   4.614   2.719 -0.6486 -0.5016  0.5412
 3746TIP3   OH232728   5.310   5.220   4.152  0.6880 -0.0740 -0.5780
 3746TIP3    H132729   5.384   5.279   4.163  0.5866  0.1773 -1.1953
 3746TIP3    H232730   5.256   5.234   4.230  1.1891 -0.1155 -0.2237
 3747TIP3   OH232731   0.379   3.189  15.157  0.1997  0.2531  0.5194
 3747TIP3    H132732   0.390   3.207  15.250  0.2201  1.4250  0.3081
 3747TIP3    H232733   0.450   3.128  15.136  0.7715  0.7096  1.0770
 3748TIP3   OH232734   3.569   4.710   3.403 -0.2672 -0.2401 -0.2130
 3748TIP3    H132735   3.517   4.630   3.395 -0.5310 -0.3416  1.8981
 3748TIP3    H232736   3.509   4.780   3.376 -0.7546 -0.5616  0.0171
 3749TIP3   OH232737   6.426   0.055   2.402 -0.0167  0.1476  0.4646
 3749TIP3    H132738   6.434   0.137   2.352 -2.9769  0.6728  0.6644
 3749TIP3    H232739   6.504   0.005   2.378  0.7295  2.0633 -1.4905
 3750TIP3   OH232740   4.607   4.346  14.035  0.2305 -0.1628 -0.3018
 3750TIP3    H132741   4.636   4.339  13.944  1.3820 -1.6399  0.1497
 3750TIP3    H232742   4.561   4.264  14.052 -1.1166  0.6492  0.0882
 3751TIP3   OH232743   0.076   4.309  14.720  0.5689  0.0667 -0.1539
 3751TIP3    H132744   0.086   4.358  14.801 -1.3219  0.4842 -0.1311
 3751TIP3    H232745   0.016   4.238  14.742  0.1537  0.1001 -1.1289
 3752TIP3   OH232746   1.741   5.385  14.792 -0.1268 -0.3425  0.4192
 3752TIP3    H132747   1.817   5.361  14.739 -0.5932  2.0237 -1.5366
 3752TIP3    H232748   1.774   5.451  14.853 -0.5902  0.8155 -0.5472
 3753TIP3   OH232749   5.990   6.567   4.185 -0.5649 -0.1618  0.6324
 3753TIP3    H132750   6.049   6.606   4.249 -0.2946  0.6601 -0.0986
 3753TIP3    H232751   6.037   6.491   4.151  0.1517  0.5862 -0.0669
 3754TIP3   OH232752   2.107   3.846  13.554 -0.3527 -0.4652  0.0787
 3754TIP3    H132753   2.200   3.828  13.537  0.3933  0.2986  2.7822
 3754TIP3    H232754   2.078   3.774  13.610 -1.3640 -0.6330 -0.6482
 3755TIP3   OH232755   5.527   6.415   2.937 -0.9241 -0.0182  0.9376
 3755TIP3    H132756   5.618   6.444   2.932 -1.3447  2.8606  4.9586
 3755TIP3    H232757   5.476   6.487   2.901 -1.7389 -1.0647 -0.1076
 3756TIP3   OH232758   0.218   3.872  15.301 -0.0521  0.0450 -0.1788
 3756TIP3    H132759   0.192   3.814  15.229 -0.1948  0.1276 -0.1953
 3756TIP3    H232760   0.281   3.821  15.352  0.5942  0.2497 -0.7687
 3757TIP3   OH232761   2.346   6.614   2.470  0.1126 -0.1889  0.4408
 3757TIP3    H132762   2.321   6.635   2.560 -0.6264 -0.3722  0.2850
 3757TIP3    H232763   2.364   6.520   2.472 -0.1124 -0.2333  0.3496
 3758TIP3   OH232764   1.376   4.655   1.584  0.0507 -0.0006 -0.3869
 3758TIP3    H132765   1.427   4.586   1.541  1.3395  0.7622 -0.1491
 3758TIP3    H232766   1.290   4.652   1.541  0.1386 -1.6069 -0.5064
 3759TIP3   OH232767   1.404   1.539   5.343 -0.3516  0.2984 -0.1460
 3759TIP3    H132768   1.355   1.566   5.421  1.0674 -0.1080  0.9315
 3759TIP3    H232769   1.388   1.445   5.336  1.2087 -0.0915  0.9625
 3760TIP3   OH232770   1.138   0.823  15.976 -0.1075  0.2572  0.1763
 3760TIP3    H132771   1.044   0.836  15.972 -0.3873 -0.5399  2.5490
 3760TIP3    H232772   1.174   0.911  15.990 -0.6868  0.3475  1.2080
 3761TIP3   OH232773   3.673   0.720   3.899 -0.1333  0.5732  0.5914
 3761TIP3    H132774   3.602   0.682   3.848  0.4584  1.2957 -0.8375
 3761TIP3    H232775   3.748   0.720   3.839  1.3286 -0.9243  2.2931
 3762TIP3   OH232776   0.447   2.556   5.079 -0.3216 -0.0541  0.3822
 3762TIP3    H132777   0.404   2.641   5.091 -0.0924  0.1939 -0.4660
 3762TIP3    H232778   0.478   2.558   4.989  0.0510 -0.8803  0.4859
 3763TIP3   OH232779   5.694   5.873  17.177  0.0479  0.7155 -0.6652
 3763TIP3    H132780   5.727   5.946  17.228  0.0526 -0.0987  0.5282
 3763TIP3    H232781   5.608   5.902  17.146  1.1386  2.2624 -2.5360
 3764TIP3   OH232782   5.491   4.189   0.337 -0.7672 -0.4704  0.0489
 3764TIP3    H132783   5.419   4.248   0.357 -1.4806 -1.9756  2.2674
 3764TIP3    H232784   5.453   4.101   0.342  0.5009 -1.2261 -2.1043
 3765TIP3   OH232785   0.422   4.630   4.387 -0.2773 -0.0060  0.3449
 3765TIP3    H132786   0.477   4.708   4.378 -2.0377  1.3417  0.7524
 3765TIP3    H232787   0.362   4.634   4.312  0.2363 -1.5165 -0.1657
 3766TIP3   OH232788   4.660   1.385  11.845  0.1277  0.4921  0.1738
 3766TIP3    H132789   4.710   1.369  11.766  0.0863  0.8498  0.0714
 3766TIP3    H232790   4.717   1.356  11.916  0.7885  1.5767  0.1055
 3767TIP3   OH232791   6.666   1.474  11.411  0.1705  0.3277 -0.6626
 3767TIP3    H132792   6.698   1.542  11.471  0.9113 -1.1803  0.7145
 3767TIP3    H232793   6.683   1.509  11.324  2.1966  1.1569  0.0176
 3768TIP3   OH232794   5.803   3.901  12.765  0.0274 -0.3063  0.4811
 3768TIP3    H132795   5.825   3.827  12.708 -2.0328  0.6373 -1.7132
 3768TIP3    H232796   5.727   3.871  12.815  0.4037 -0.3325  1.0431
 3769TIP3   OH232797   1.065   3.731   1.831  0.4423 -0.3107 -0.3296
 3769TIP3    H132798   1.085   3.786   1.755  0.6495 -0.6640 -0.5360
 3769TIP3    H232799   1.089   3.643   1.803  1.5914 -0.2873  0.5416
 3770TIP3   OH232800   1.788   1.760  12.054  0.2286 -0.0700 -0.2622
 3770TIP3    H132801   1.693   1.746  12.044 -0.0229  0.1511  1.4351
 3770TIP3    H232802   1.825   1.672  12.050  0.2276 -0.0215 -2.9349
 3771TIP3   OH232803   3.512   2.724   5.832 -0.0106  0.4502  0.2002
 3771TIP3    H132804   3.435   2.667   5.841  0.4208 -0.6698 -2.3794
 3771TIP3    H232805   3.587   2.665   5.839  0.4892  0.9214 -0.9048
 3772TIP3   OH232806   6.085   4.565   4.155  0.0343 -0.2195  0.3266
 3772TIP3    H132807   6.145   4.551   4.229  0.1185 -0.6005  0.1886
 3772TIP3    H232808   6.099   4.657   4.130 -0.3570  0.0610  1.0988
 3773TIP3   OH232809   1.191   6.052  17.196  0.0616 -0.4036  0.3962
 3773TIP3    H132810   1.267   6.100  17.230  1.0313  0.0127 -2.1270
 3773TIP3    H232811   1.133   6.121  17.162  0.5939 -0.8461 -1.5427
 3774TIP3   OH232812   5.806   6.683  14.193 -0.4473 -0.2809 -0.3608
 3774TIP3    H132813   5.792   6.623  14.266  1.1176 -0.1745  0.0586
 3774TIP3    H232814   5.834   6.765  14.235 -4.2187  1.4228 -0.7742
 3775TIP3   OH232815   5.720   3.926  12.371  0.0693 -0.5341 -0.3405
 3775TIP3    H132816   5.761   3.934  12.285  1.6610  0.3699  0.4460
 3775TIP3    H232817   5.792   3.939  12.433 -0.9831 -1.4449  1.1409
 3776TIP3   OH232818   5.193   4.493   5.874  0.5186 -0.6902 -0.1018
 3776TIP3    H132819   5.138   4.569   5.890  1.1999  0.3072 -2.1225
 3776TIP3    H232820   5.251   4.488   5.950  0.3691  0.7351  0.1306
 3777TIP3   OH232821   4.052   2.143  16.237  0.1739 -0.6279 -0.3277
 3777TIP3    H132822   4.002   2.165  16.159  0.2918 -0.0391 -0.2412
 3777TIP3    H232823   4.112   2.074  16.208  0.4315 -0.1973 -0.8412
 3778TIP3   OH232824   3.676   0.407  12.899  0.4094  0.1915 -0.1149
 3778TIP3    H132825   3.616   0.337  12.925  2.2702 -0.6439  2.3955
 3778TIP3    H232826   3.727   0.369  12.827  0.3933 -0.5138  0.2314
 3779TIP3   OH232827   0.154   1.015  16.389  0.0122  0.1909 -0.0612
 3779TIP3    H132828   0.215   0.987  16.320 -1.1370 -1.0886 -0.6101
 3779TIP3    H232829   0.124   0.933  16.428 -0.4625  0.8586  1.0014
 3780TIP3   OH232830   4.220   1.541  14.983  0.0689 -0.1589 -0.3819
 3780TIP3    H132831   4.234   1.477  14.914  1.1496 -1.2894  0.8285
 3780TIP3    H232832   4.308   1.561  15.014 -0.2978  1.4678 -0.3173
 3781TIP3   OH232833   3.147   1.945  17.026 -0.0122  0.4915  0.0766
 3781TIP3    H132834   3.169   1.897  17.106 -0.1374  1.1585  0.5153
 3781TIP3    H232835   3.230   1.956  16.980  0.4575  2.1466  1.2552
 3782TIP3   OH232836   3.711   0.770   1.101 -0.1909 -0.1911  0.3641
 3782TIP3    H132837   3.768   0.758   1.025 -2.0782 -1.1139 -0.9779
 3782TIP3    H232838   3.733   0.696   1.159 -0.6097 -1.0240 -0.5282
 3783TIP3   OH232839   2.985   6.508   2.511 -0.3144  0.6014  0.0458
 3783TIP3    H132840   3.036   6.462   2.578 -0.4330  0.5479  0.0991
 3783TIP3    H232841   2.953   6.587   2.555  1.2138  1.5704 -0.4844
 3784TIP3   OH232842   2.665   1.142  12.172 -0.5501 -0.5892  0.1376
 3784TIP3    H132843   2.627   1.133  12.085 -1.3616  4.0912 -0.2707
 3784TIP3    H232844   2.757   1.166  12.156 -0.3382 -1.0125  0.6622
 3785TIP3   OH232845   0.086   3.955   5.931  0.1878 -0.5736  0.2940
 3785TIP3    H132846   0.174   3.963   5.893 -0.3515 -1.3952 -1.2015
 3785TIP3    H232847   0.060   3.865   5.911 -0.9944 -0.3404  0.7495
 3786TIP3   OH232848   2.036   1.941  11.394 -0.2380  0.6190 -0.7059
 3786TIP3    H132849   2.095   2.000  11.347  0.9842 -0.2896 -0.3634
 3786TIP3    H232850   2.031   1.976  11.482  1.9181 -0.6860  0.0204
 3787TIP3   OH232851   3.226   6.551  12.056 -0.2496 -0.1488  0.2534
 3787TIP3    H132852   3.260   6.519  11.973  2.7087  2.1825  0.3772
 3787TIP3    H232853   3.220   6.646  12.044  1.6069  0.4325  3.0525
 3788TIP3   OH232854   6.406   1.992  11.823  0.4627 -0.1835  0.1259
 3788TIP3    H132855   6.381   2.068  11.875 -1.7297  1.5400 -3.1185
 3788TIP3    H232856   6.454   2.028  11.749 -2.1668 -1.5727 -2.4747
 3789TIP3   OH232857   5.915   6.368   0.455 -0.7864  0.2504  0.0102
 3789TIP3    H132858   5.930   6.443   0.397  0.7615 -2.2142 -3.0175
 3789TIP3    H232859   6.003   6.342   0.483 -1.3212 -0.3495  1.2029
 3790TIP3   OH232860   3.663   2.557  11.848 -0.5056 -0.0413  0.6375
 3790TIP3    H132861   3.663   2.536  11.941  1.1626  0.3115  0.7442
 3790TIP3    H232862   3.725   2.496  11.809 -0.7050  0.2370 -0.1453
 3791TIP3   OH232863   1.808   1.582   0.145  0.3955 -0.1108 -0.4209
 3791TIP3    H132864   1.747   1.522   0.101 -0.6879  0.6031  0.0631
 3791TIP3    H232865   1.802   1.663   0.094 -1.0867  0.8192  1.1402
 3792TIP3   OH232866   0.225   2.000   5.419 -0.1016  0.1874  0.0556
 3792TIP3    H132867   0.279   1.921   5.410  1.4035  1.2065 -0.0782
 3792TIP3    H232868   0.233   2.024   5.511  1.8120  1.7617 -0.4463
 3793TIP3   OH232869   3.977   0.400   1.198 -0.0647  0.1615 -0.3914
 3793TIP3    H132870   4.052   0.460   1.203  1.1313 -1.2564 -0.5317
 3793TIP3    H232871   3.948   0.391   1.289 -0.1272  0.7744 -0.3457
 3794TIP3   OH232872   6.288   0.927   3.489  0.2097  0.2339 -0.3383
 3794TIP3    H132873   6.215   0.866   3.477  1.9467 -1.6958 -1.7638
 3794TIP3    H232874   6.347   0.882   3.550  0.1537  1.8604  0.9823
 3795TIP3   OH232875   3.453   3.368   0.319 -0.4020  0.5490  0.1107
 3795TIP3    H132876   3.441   3.304   0.390  0.2248  0.9430  0.5738
 3795TIP3    H232877   3.485   3.447   0.362 -1.2051  1.2047 -0.4546
 3796TIP3   OH232878   4.641   0.248  16.022 -0.9018 -0.2646  0.3289
 3796TIP3    H132879   4.702   0.308  16.065  3.1532 -2.3901 -1.8456
 3796TIP3    H232880   4.630   0.177  16.085  0.5238 -0.7442  0.0894
 3797TIP3   OH232881   0.466   1.626  13.324 -0.3947 -0.2366  0.2463
 3797TIP3    H132882   0.384   1.599  13.283 -0.5877  0.1042  0.4139
 3797TIP3    H232883   0.466   1.582  13.409 -0.7310  0.3331  0.5393
 3798TIP3   OH232884   5.466   3.607  14.076 -0.7086 -0.2081  0.1919
 3798TIP3    H132885   5.544   3.658  14.100 -1.1318  0.5406  0.0046
 3798TIP3    H232886   5.427   3.657  14.004 -1.7201 -0.2327  0.7170
 3799TIP3   OH232887   5.511   0.427  11.304  0.4027  0.0967  0.5057
 3799TIP3    H132888   5.548   0.450  11.389 -0.6014 -3.3356  2.0510
 3799TIP3    H232889   5.416   0.426  11.318  0.1946 -0.2151 -0.7400
 3800TIP3   OH232890   0.769   2.529  13.337 -0.2653 -0.3488  0.2441
 3800TIP3    H132891   0.763   2.436  13.314 -1.3146 -0.0564 -0.7256
 3800TIP3    H232892   0.862   2.549  13.331  0.1770 -1.6554  1.8309
 3801TIP3   OH232893   0.372   4.816   3.489 -0.0557 -0.2473 -0.0043
 3801TIP3    H132894   0.420   4.874   3.548  0.5363  0.3131 -1.0192
 3801TIP3    H232895   0.280   4.839   3.503  0.1950  1.7046 -1.1067
 3802TIP3   OH232896   5.036   5.673   1.371 -0.3086  0.2985 -0.2222
 3802TIP3    H132897   4.977   5.598   1.383  0.8444 -0.4284  1.2052
 3802TIP3    H232898   5.123   5.638   1.388  0.5389  1.4285 -2.0039
 3803TIP3   OH232899   1.334   6.330   0.850  0.3559  0.6738 -0.0641
 3803TIP3    H132900   1.362   6.251   0.803 -0.6028 -0.1386  0.6770
 3803TIP3    H232901   1.328   6.397   0.782  1.5124  0.2169 -0.6576
 3804TIP3   OH232902   1.106   3.995  14.319 -0.0732 -0.6705 -0.0945
 3804TIP3    H132903   1.193   3.972  14.353 -0.2899  0.6745  1.4615
 3804TIP3    H232904   1.046   3.939  14.367 -0.1331 -1.1515 -0.7191
 3805TIP3   OH232905   3.267   0.063   2.334  0.5127 -0.4756 -0.3860
 3805TIP3    H132906   3.195   0.091   2.278  0.7127 -1.2517 -1.0542
 3805TIP3    H232907   3.253   0.110   2.416  0.3588  0.9028 -1.1591
 3806TIP3   OH232908   2.989   6.259   4.821  0.2544 -0.0311  0.8768
 3806TIP3    H132909   3.055   6.217   4.877  0.1901 -0.2704  0.7761
 3806TIP3    H232910   2.955   6.330   4.874  1.4900  0.9066  0.4622
 3807TIP3   OH232911   1.647   0.266   3.530  0.2656 -0.1866 -0.7118
 3807TIP3    H132912   1.679   0.253   3.441 -0.2630  0.8205 -1.0680
 3807TIP3    H232913   1.725   0.266   3.584  0.7860  1.2316 -1.4327
 3808TIP3   OH232914   1.992   0.301   4.678  0.1015 -0.3349  0.3701
 3808TIP3    H132915   2.000   0.275   4.770 -0.9926  2.2881  1.3028
 3808TIP3    H232916   2.062   0.254   4.633  0.8504 -1.4552  2.5827
 3809TIP3   OH232917   4.769   3.763   0.779 -0.2458  0.2731 -0.2449
 3809TIP3    H132918   4.835   3.735   0.843 -0.1158  1.0828 -0.0212
 3809TIP3    H232919   4.820   3.791   0.703 -0.2912  1.4500  0.1408
 3810TIP3   OH232920   1.478   1.373  12.788 -0.0291 -0.1107 -0.1834
 3810TIP3    H132921   1.561   1.414  12.763 -1.4283  2.5880 -0.8503
 3810TIP3    H232922   1.412   1.441  12.770 -2.2616 -1.7242  1.3917
 3811TIP3   OH232923   4.715   4.221   1.429 -0.0585 -0.0649 -0.9112
 3811TIP3    H132924   4.632   4.261   1.403  0.1315 -0.0115 -1.4461
 3811TIP3    H232925   4.690   4.146   1.483 -0.4509  0.0330 -0.9583
 3812TIP3   OH232926   5.883   1.574  12.658  0.3476  0.9120  0.5949
 3812TIP3    H132927   5.972   1.575  12.693  0.4174 -1.4527  0.6677
 3812TIP3    H232928   5.828   1.605  12.730  0.8495 -0.5478  1.6638
 3813TIP3   OH232929   6.358   4.665   5.414 -0.3115  0.1396  0.0282
 3813TIP3    H132930   6.291   4.733   5.409  0.1638  0.7333  1.2987
 3813TIP3    H232931   6.351   4.631   5.503  1.4491  0.6281  0.3940
 3814TIP3   OH232932   6.186   0.822  11.988  0.7433 -0.0818 -0.1220
 3814TIP3    H132933   6.207   0.913  11.966 -0.3648  0.3275  0.4600
 3814TIP3    H232934   6.181   0.778  11.903 -0.4498  0.8000 -0.5422
 3815TIP3   OH232935   0.752   1.941  11.221 -0.5408  0.2866  0.1858
 3815TIP3    H132936   0.665   1.945  11.180 -0.9290  1.5117  1.0729
 3815TIP3    H232937   0.785   2.030  11.215  0.5856 -0.1337  0.0358
 3816TIP3   OH232938   3.142   1.130   3.382  0.3065 -0.8604 -0.0249
 3816TIP3    H132939   3.139   1.161   3.473 -0.3853  1.0684 -0.6606
 3816TIP3    H232940   3.055   1.094   3.366 -0.0744  0.1446 -0.3288
 3817TIP3   OH232941   0.877   6.642   4.833  0.1059  1.1843  0.0463
 3817TIP3    H132942   0.802   6.638   4.774 -0.5458 -0.3784  0.9273
 3817TIP3    H232943   0.935   6.707   4.794 -0.7462  0.9066 -1.7702
 3818TIP3   OH232944   4.687   5.145   0.885 -0.3514 -0.8943 -0.0674
 3818TIP3    H132945   4.650   5.190   0.809 -1.0514 -0.3502  0.5835
 3818TIP3    H232946   4.615   5.090   0.917 -1.2414  1.4117  2.2095
 3819TIP3   OH232947   2.164   6.835   4.413 -0.0051  0.0751 -0.5090
 3819TIP3    H132948   2.245   6.792   4.441 -0.1817 -0.0616 -0.2045
 3819TIP3    H232949   2.140   6.791   4.332 -2.0847 -2.9031  1.5161
 3820TIP3   OH232950   2.916   1.815  14.237  0.5404  0.6217 -0.1419
 3820TIP3    H132951   2.959   1.731  14.221  1.5527  1.4007 -1.7336
 3820TIP3    H232952   2.826   1.802  14.207  0.8032  0.2306 -0.7687
 3821TIP3   OH232953   3.074   4.777   2.194 -0.3792 -0.3144 -0.2757
 3821TIP3    H132954   3.067   4.686   2.166  0.2289 -1.1695  2.1068
 3821TIP3    H232955   3.141   4.815   2.137 -0.3215 -1.4685 -1.0049
 3822TIP3   OH232956   6.649   2.772  11.606  0.1406  0.3484  0.3426
 3822TIP3    H132957   6.640   2.867  11.609  1.1375  0.4413  0.8876
 3822TIP3    H232958   6.626   2.748  11.516 -0.1740  1.0964  0.2213
 3823TIP3   OH232959   2.416   3.474   5.501  0.1277 -0.7661  0.5500
 3823TIP3    H132960   2.350   3.448   5.566 -0.1728 -2.6641 -0.4522
 3823TIP3    H232961   2.484   3.406   5.507  0.8411 -0.1323 -0.0797
 3824TIP3   OH232962   0.696   0.829  17.019  0.9110 -0.0413 -0.0452
 3824TIP3    H132963   0.663   0.869  16.938  0.8272 -0.3135 -0.1470
 3824TIP3    H232964   0.722   0.904  17.073 -2.2196  0.3817  1.0778
 3825TIP3   OH232965   1.335   5.236  14.054 -0.0563  0.2192 -0.1443
 3825TIP3    H132966   1.279   5.236  13.977 -0.6909  0.7338  0.3062
 3825TIP3    H232967   1.414   5.283  14.027 -0.6183  1.1161 -0.2375
 3826TIP3   OH232968   0.156   4.773  12.514  0.1108  0.0083  0.2779
 3826TIP3    H132969   0.218   4.844  12.494  1.8241 -1.3186  0.6378
 3826TIP3    H232970   0.071   4.809  12.491  0.8485  2.3984  0.9937
 3827TIP3   OH232971   1.621   5.290  15.604  0.2959 -0.0849 -0.3233
 3827TIP3    H132972   1.709   5.254  15.604 -0.4276 -2.0208 -1.3151
 3827TIP3    H232973   1.581   5.256  15.684  0.0833 -0.1909 -0.4741
 3828TIP3   OH232974   4.702   4.179  11.632 -0.1584 -0.3268  0.1456
 3828TIP3    H132975   4.736   4.151  11.547  0.5538 -0.1184  0.3613
 3828TIP3    H232976   4.727   4.271  11.639 -2.1194  0.2950 -0.3722
 3829TIP3   OH232977   6.546   4.693  13.040  0.2547 -0.0470 -0.4258
 3829TIP3    H132978   6.522   4.674  12.949 -0.6620  0.8749 -0.3945
 3829TIP3    H232979   6.583   4.611  13.072  2.0287  0.0334 -2.0689
 3830TIP3   OH232980   4.581   6.781  12.211  0.3569 -0.1329 -0.0697
 3830TIP3    H132981   4.548   6.789  12.122  3.5398  0.3148 -1.3457
 3830TIP3    H232982   4.588   6.872  12.242  1.8029 -0.0754 -0.4718
 3831TIP3   OH232983   3.530   5.351   5.661  0.4054 -0.8757 -0.6025
 3831TIP3    H132984   3.473   5.306   5.722 -1.2490  2.1986  0.3642
 3831TIP3    H232985   3.619   5.327   5.688 -0.2773 -0.3721  2.4920
 3832TIP3   OH232986   3.840   6.426  16.880 -0.0026  0.1337  0.0418
 3832TIP3    H132987   3.811   6.514  16.905 -0.3406  0.2105 -0.5997
 3832TIP3    H232988   3.805   6.414  16.791  1.0143 -0.2004 -0.3241
 3833TIP3   OH232989   1.158   5.552   0.273 -0.2669  1.1512  0.1029
 3833TIP3    H132990   1.202   5.632   0.303 -0.9807  1.3345  0.6843
 3833TIP3    H232991   1.092   5.534   0.340  2.1252 -1.8973  1.8554
 3834TIP3   OH232992   3.993   2.161   3.341 -0.3519  0.1224  0.1963
 3834TIP3    H132993   4.035   2.124   3.263  0.4621 -1.4525  1.3243
 3834TIP3    H232994   3.918   2.105   3.357  1.2677 -1.6607  2.3153
 3835TIP3   OH232995   2.114   2.412   4.797 -0.2818  0.3985 -0.7700
 3835TIP3    H132996   2.113   2.508   4.796  0.5705  0.4092 -1.3185
 3835TIP3    H232997   2.081   2.387   4.710 -1.9120  0.1579 -0.1214
 3836TIP3   OH232998   6.088   0.655  12.797 -0.0807  1.2726 -0.4817
 3836TIP3    H132999   6.111   0.573  12.841 -1.3043  1.4491  0.5403
 3836TIP3    H233000   6.166   0.678  12.746 -0.0664 -1.0461 -1.6417
 3837TIP3   OH233001   2.407   2.490  17.165  0.7015 -0.4177  0.2262
 3837TIP3    H133002   2.334   2.453  17.215  0.4502 -0.9229 -0.4946
 3837TIP3    H233003   2.430   2.570  17.212 -0.6718  0.0367  0.1925
 3838TIP3   OH233004   1.801   6.397   2.748  0.0658 -0.1900  0.2804
 3838TIP3    H133005   1.829   6.310   2.774 -1.0373 -0.5092  0.4514
 3838TIP3    H233006   1.844   6.456   2.810 -0.3488 -0.7286  1.0984
 3839TIP3   OH233007   5.575   4.827  12.551  1.4363  1.0318 -0.3474
 3839TIP3    H133008   5.625   4.909  12.550  1.2450  1.2214  1.4186
 3839TIP3    H233009   5.622   4.772  12.614  0.1822  0.7399  0.3665
 3840TIP3   OH233010   1.906   0.739  10.352 -0.0971  0.1313  0.2442
 3840TIP3    H133011   1.872   0.673  10.291 -1.1330  0.7471  0.1292
 3840TIP3    H233012   1.891   0.823  10.308 -0.8748  0.5939  1.3285
 3841TIP3   OH233013   1.282   2.080  14.353 -0.2633  0.9305 -0.0802
 3841TIP3    H133014   1.341   2.022  14.304 -0.3010  0.9613 -0.1628
 3841TIP3    H233015   1.237   2.130  14.285 -2.2779 -0.8670 -0.1883
 3842TIP3   OH233016   5.481   3.095  14.298  0.8169 -0.2258 -0.0682
 3842TIP3    H133017   5.527   3.091  14.382  0.0918 -2.9548  0.2936
 3842TIP3    H233018   5.521   3.169  14.252  1.0142  1.5531  2.7598
 3843TIP3   OH233019   2.569   6.357   5.681  0.1823 -0.0663  0.3939
 3843TIP3    H133020   2.528   6.296   5.744  0.4391  1.0376  1.6857
 3843TIP3    H233021   2.637   6.306   5.639 -0.4044 -1.0191  0.5596
 3844TIP3   OH233022   5.864   1.753  12.089  0.0421  0.1810  0.3192
 3844TIP3    H133023   5.819   1.837  12.082 -0.1913  0.1574  1.4002
 3844TIP3    H233024   5.809   1.691  12.041  0.5653  0.7590 -1.0780
 3845TIP3   OH233025   4.011   3.802   2.881 -0.0344 -0.0636  0.6791
 3845TIP3    H133026   4.062   3.873   2.843 -0.4004 -0.4455 -0.5611
 3845TIP3    H233027   4.011   3.821   2.975  0.9083  0.8900  0.5102
 3846TIP3   OH233028   1.332   0.133   5.149 -0.1764  0.4538  0.3915
 3846TIP3    H133029   1.364   0.122   5.238  2.2529 -0.6427 -0.5366
 3846TIP3    H233030   1.285   0.052   5.130 -1.7005  1.1595  1.0159
 3847TIP3   OH233031   5.042   6.660  16.054  0.3483  0.2498 -0.3150
 3847TIP3    H133032   5.116   6.698  16.006  0.8975  0.0187  0.3385
 3847TIP3    H233033   5.053   6.566  16.045  0.0996  0.2141 -0.2542
 3848TIP3   OH233034   4.749   6.304  16.863  0.0429 -0.1895 -0.1279
 3848TIP3    H133035   4.676   6.257  16.822 -1.4464  0.8291  1.2319
 3848TIP3    H233036   4.743   6.393  16.829  1.6977 -0.4519 -1.2437
 3849TIP3   OH233037   5.921   6.106  17.133  0.0453 -0.0498 -0.2153
 3849TIP3    H133038   5.955   6.158  17.060  1.4326  0.1157  0.5160
 3849TIP3    H233039   5.934   6.015  17.107  1.4666  0.0091  0.2040
 3850TIP3   OH233040   6.053   6.216  16.053 -0.4334  0.1835 -0.2491
 3850TIP3    H133041   6.058   6.257  16.139  0.1675  1.1177 -0.7243
 3850TIP3    H233042   5.971   6.167  16.055 -1.4645  1.8490  0.1387
 3851TIP3   OH233043   6.124   2.736  13.934 -0.0283  0.0262  0.0662
 3851TIP3    H133044   6.178   2.772  13.864  0.0482  2.0224  1.0904
 3851TIP3    H233045   6.036   2.733  13.898 -0.0610  1.4071 -0.0164
 3852TIP3   OH233046   3.775   2.812  15.407 -0.3271 -0.7743 -0.5969
 3852TIP3    H133047   3.839   2.795  15.338 -0.5915 -2.7968 -0.4154
 3852TIP3    H233048   3.748   2.725  15.436 -0.2241  0.0057  2.0707
 3853TIP3   OH233049   1.949   3.319  15.530 -0.0160  0.9088 -0.5133
 3853TIP3    H133050   1.960   3.261  15.606 -1.8717 -0.6880 -1.3668
 3853TIP3    H233051   1.856   3.341  15.529  0.1800  1.8108 -1.6978
 3854TIP3   OH233052   0.344   1.346  10.882 -0.5456  0.2537 -0.5302
 3854TIP3    H133053   0.302   1.432  10.874 -0.4572  0.3239 -0.2564
 3854TIP3    H233054   0.435   1.361  10.858 -0.4670  0.2958 -0.2143
 3855TIP3   OH233055   6.229   0.966  14.044  0.0983  0.0006  0.1135
 3855TIP3    H133056   6.264   1.013  13.968  0.5459  1.8524  1.3903
 3855TIP3    H233057   6.135   0.962  14.029  0.2629 -0.3569 -0.8897
 3856TIP3   OH233058   4.478   5.520   5.498  0.1187  0.0083  0.5299
 3856TIP3    H133059   4.469   5.610   5.467  0.9025  0.9369  2.7941
 3856TIP3    H233060   4.410   5.471   5.451 -0.2096  1.7250 -0.8660
 3857TIP3   OH233061   1.817   4.923   3.974 -0.6450 -0.1567  0.2147
 3857TIP3    H133062   1.798   4.944   3.883  0.2891 -1.0293 -0.2052
 3857TIP3    H233063   1.905   4.884   3.972 -0.1061  0.8810  1.6434
 3858TIP3   OH233064   0.912   0.611  11.666  0.0952  0.6979  0.4603
 3858TIP3    H133065   0.817   0.628  11.666  0.3079  2.3033 -1.6054
 3858TIP3    H233066   0.926   0.558  11.588  0.7410 -0.9479  1.6533
 3859TIP3   OH233067   5.917   4.440  14.785  0.0413 -0.5444 -0.4997
 3859TIP3    H133068   6.009   4.467  14.788  0.2969 -1.4734  1.0143
 3859TIP3    H233069   5.869   4.522  14.769  0.9769  0.3906  1.1865
 3860TIP3   OH233070   3.222   1.996  14.326  0.6384  0.2458 -0.0415
 3860TIP3    H133071   3.213   1.946  14.245 -1.4938  0.9840 -0.3436
 3860TIP3    H233072   3.277   2.070  14.303  0.0530  0.4467 -0.8339
 3861TIP3   OH233073   1.610   1.695   4.394  0.8390 -0.4839  0.2825
 3861TIP3    H133074   1.604   1.779   4.350  3.2830 -0.8319 -0.8629
 3861TIP3    H233075   1.702   1.685   4.415  0.2014 -1.6332  3.0139
 3862TIP3   OH233076   6.258   4.037  14.648 -0.9064 -0.3559  0.1216
 3862TIP3    H133077   6.328   3.973  14.636  0.7321  1.3934 -0.1788
 3862TIP3    H233078   6.233   4.062  14.559 -1.2954 -0.3170  0.2379
 3863TIP3   OH233079   2.726   0.902  16.871  0.5113  0.2063 -0.3959
 3863TIP3    H133080   2.738   0.840  16.799  1.0839 -0.4291  0.2455
 3863TIP3    H233081   2.752   0.987  16.834  0.0610  0.0194 -1.1642
 3864TIP3   OH233082   0.163   6.033  11.213 -0.1095  0.0395 -0.5420
 3864TIP3    H133083   0.134   5.959  11.267  0.5898 -0.2497 -0.5526
 3864TIP3    H233084   0.082   6.070  11.178 -0.4208 -1.3045 -1.3039
 3865TIP3   OH233085   1.651   1.128   0.728 -0.0047  0.3504  0.2895
 3865TIP3    H133086   1.674   1.072   0.654 -1.8093 -1.4717  1.0075
 3865TIP3    H233087   1.714   1.104   0.796 -0.1825 -0.1351  0.2871
 3866TIP3   OH233088   5.830   0.221  15.993  0.1196  0.8200 -0.0583
 3866TIP3    H133089   5.870   0.300  16.030  0.8796  1.6162 -2.3577
 3866TIP3    H233090   5.785   0.180  16.066  0.1892  3.0838  1.3490
 3867TIP3   OH233091   6.791   2.696   5.545 -0.0118 -0.2883 -0.2403
 3867TIP3    H133092   6.809   2.781   5.585  0.2231 -1.1127  1.4701
 3867TIP3    H233093   6.707   2.669   5.582  0.7010 -1.5257  0.5325
 3868TIP3   OH233094   4.779   5.186   0.362 -0.0314  0.1275  0.0811
 3868TIP3    H133095   4.750   5.260   0.309 -1.2353  0.8018  1.5900
 3868TIP3    H233096   4.867   5.166   0.330 -0.4210  0.9828 -1.6161
 3869TIP3   OH233097   5.455   0.896  12.131 -0.5293  0.3173 -0.1718
 3869TIP3    H133098   5.496   0.824  12.082  0.5290  1.6777 -1.3485
 3869TIP3    H233099   5.490   0.887  12.220 -1.3482 -1.3086  0.0287
 3870TIP3   OH233100   0.325   1.260  14.724  0.0439  0.5430 -0.1017
 3870TIP3    H133101   0.347   1.279  14.815 -0.8789  0.0306  0.2413
 3870TIP3    H233102   0.399   1.293  14.674  1.2043 -0.4106  0.9323
 3871TIP3   OH233103   1.005   1.072  11.268 -0.9015  0.1426 -0.6322
 3871TIP3    H133104   1.048   1.064  11.182 -0.4584  1.2609 -0.5232
 3871TIP3    H233105   0.992   1.166  11.280 -1.3867 -0.0398  0.3235
 3872TIP3   OH233106   4.852   6.167  13.624  0.0612  0.1833  0.3998
 3872TIP3    H133107   4.771   6.167  13.675  0.2806 -0.7533  0.7853
 3872TIP3    H233108   4.917   6.132  13.685  0.8854  1.4577  0.2817
 3873TIP3   OH233109   5.512   2.928  16.757 -0.6687  0.2482  0.6192
 3873TIP3    H133110   5.461   2.986  16.813 -0.5212 -0.1924  1.2131
 3873TIP3    H233111   5.596   2.920  16.801 -0.6325 -0.2879  0.4530
 3874TIP3   OH233112   1.626   3.086   2.919 -0.7257  0.3980 -0.3303
 3874TIP3    H133113   1.587   3.037   2.846  0.2994  0.9398 -1.2665
 3874TIP3    H233114   1.681   3.152   2.877 -0.9021  1.3838  0.9309
 3875TIP3   OH233115   6.549   0.665  15.700 -0.4504 -0.1071  0.3704
 3875TIP3    H133116   6.491   0.659  15.625 -1.9369 -0.6160  1.5154
 3875TIP3    H233117   6.557   0.759  15.718 -0.1055  0.0129 -0.3836
 3876TIP3   OH233118   5.322   3.121   3.124  0.3358  0.0980  0.1193
 3876TIP3    H133119   5.405   3.075   3.114 -0.0062 -0.8134  1.1642
 3876TIP3    H233120   5.259   3.051   3.146 -0.4089  0.9417  0.7535
 3877TIP3   OH233121   2.749   4.985  13.557 -0.0117  0.3546 -0.3535
 3877TIP3    H133122   2.803   4.986  13.636 -2.4173  0.6059  1.3806
 3877TIP3    H233123   2.767   4.899  13.517  0.2613 -0.3399  1.1866
 3878TIP3   OH233124   6.237   2.231  12.939  0.3202 -0.2940 -0.2088
 3878TIP3    H133125   6.226   2.136  12.949  0.2383 -0.3723 -0.9512
 3878TIP3    H233126   6.218   2.247  12.846 -0.7759  0.6121  0.1530
 3879TIP3   OH233127   2.489   4.153  13.367 -0.3504 -0.6127  0.0411
 3879TIP3    H133128   2.496   4.176  13.460  0.2595  3.9768 -0.9247
 3879TIP3    H233129   2.399   4.172  13.344 -1.0315 -3.4612 -0.1159
 3880TIP3   OH233130   5.102   3.289  16.224 -0.2758 -0.2344 -0.3412
 3880TIP3    H133131   5.136   3.299  16.313 -1.1665  0.1240 -0.0364
 3880TIP3    H233132   5.008   3.281  16.234 -0.2373 -2.0319 -1.1267
 3881TIP3   OH233133   6.443   1.369  15.535  0.2431  0.2068 -0.1879
 3881TIP3    H133134   6.394   1.304  15.585  1.2295  0.7859  1.6026
 3881TIP3    H233135   6.375   1.418  15.488 -0.5587 -1.6710 -1.1129
 3882TIP3   OH233136   2.763   4.060   1.954 -0.2020  0.2480 -0.9860
 3882TIP3    H133137   2.724   3.973   1.954 -1.9931  1.0002 -0.6281
 3882TIP3    H233138   2.818   4.063   2.032  1.7603 -1.2890 -2.1993
 3883TIP3   OH233139   4.440   5.298  15.458 -0.2344 -0.2345  0.1708
 3883TIP3    H133140   4.501   5.371  15.449 -2.4463  1.5820 -1.3442
 3883TIP3    H233141   4.382   5.324  15.530  0.2374 -1.5512  1.0614
 3884TIP3   OH233142   6.751   6.752  16.931 -0.0209 -0.2708  0.4150
 3884TIP3    H133143   6.773   6.814  17.000 -0.7631 -0.6866  1.0432
 3884TIP3    H233144   6.753   6.666  16.975 -0.7105 -0.5166 -0.0150
 3885TIP3   OH233145   6.006   3.009   4.614 -0.0317  0.4206  0.0422
 3885TIP3    H133146   6.053   3.092   4.622  1.6495 -0.5811  1.3460
 3885TIP3    H233147   6.061   2.956   4.557 -0.2961 -0.3218  0.4671
 3886TIP3   OH233148   0.216   1.825  11.881  0.3541  0.0725 -0.2595
 3886TIP3    H133149   0.254   1.767  11.815  1.1703 -1.0186  1.1251
 3886TIP3    H233150   0.130   1.847  11.846  0.9171 -0.1356 -1.8802
 3887TIP3   OH233151   6.195   5.737  11.292 -0.0580 -0.1479 -0.5247
 3887TIP3    H133152   6.191   5.804  11.360 -2.9504 -0.0355 -0.6644
 3887TIP3    H233153   6.274   5.687  11.311  0.0472  0.8544  1.9762
 3888TIP3   OH233154   1.683   5.296   2.015 -0.2315  1.0613  0.2994
 3888TIP3    H133155   1.756   5.244   2.049 -1.6540 -1.6858 -0.5045
 3888TIP3    H233156   1.695   5.295   1.920 -1.3545  0.3925  0.1395
 3889TIP3   OH233157   1.891   3.319   1.356 -0.3229  0.2266  0.5524
 3889TIP3    H133158   1.840   3.276   1.288 -1.6677  1.5899  0.6323
 3889TIP3    H233159   1.927   3.398   1.313 -1.9728  1.6143  1.5979
 3890TIP3   OH233160   5.485   4.378  11.349  0.0095  0.4686  0.2210
 3890TIP3    H133161   5.555   4.313  11.342 -1.5627 -1.4755  1.3499
 3890TIP3    H233162   5.439   4.374  11.266  0.4719  0.8654 -0.0628
 3891TIP3   OH233163   2.581   5.843  13.182  0.2577 -0.2816 -0.0307
 3891TIP3    H133164   2.531   5.865  13.103  1.3875  0.5124 -0.5412
 3891TIP3    H233165   2.574   5.921  13.238  0.5595 -0.3376  0.0870
 3892TIP3   OH233166   0.180   3.279  13.154 -0.1204 -0.3799  0.4110
 3892TIP3    H133167   0.146   3.229  13.080 -1.3543  0.0696  0.6621
 3892TIP3    H233168   0.255   3.327  13.118  1.2168 -2.4832  0.1970
 3893TIP3   OH233169   5.998   1.625   5.312  0.1473  0.7995  0.0136
 3893TIP3    H133170   6.081   1.606   5.355 -0.3876  1.2567  1.3040
 3893TIP3    H233171   5.963   1.700   5.360 -1.8400 -0.4885  0.7036
 3894TIP3   OH233172   2.279   5.670   1.895  0.1771  0.0751 -0.2721
 3894TIP3    H133173   2.320   5.752   1.869  0.2589  0.2634  0.4444
 3894TIP3    H233174   2.349   5.618   1.933 -0.4217  0.9024  2.1681
 3895TIP3   OH233175   1.648   4.588   3.229 -0.3632  0.1022  0.2142
 3895TIP3    H133176   1.620   4.631   3.149  1.3261  1.0922  0.0991
 3895TIP3    H233177   1.604   4.637   3.299 -0.1591  0.6393 -0.0235
 3896TIP3   OH233178   0.505   1.037  11.295  0.0256  0.3758  0.1716
 3896TIP3    H133179   0.595   1.027  11.327  0.5377 -1.9873 -1.7435
 3896TIP3    H233180   0.513   1.045  11.200 -1.7853 -2.1452 -0.3175
 3897TIP3   OH233181   0.037   3.352   1.994  0.1239 -0.5249  0.2592
 3897TIP3    H133182   0.060   3.301   2.072 -2.7369 -0.6591  1.1216
 3897TIP3    H233183  -0.011   3.428   2.027 -0.2495 -0.0347 -1.3119
 3898TIP3   OH233184   3.975   3.431   0.579 -0.2740  0.3479 -0.5651
 3898TIP3    H133185   4.001   3.356   0.633 -1.3221  0.6499  0.4232
 3898TIP3    H233186   4.043   3.497   0.595  0.1350 -0.0458 -0.6674
 3899TIP3   OH233187   0.994   4.380  15.394 -0.5592 -0.0054 -0.5630
 3899TIP3    H133188   1.073   4.433  15.395  0.5514 -1.5485  1.5051
 3899TIP3    H233189   0.980   4.357  15.485 -2.5237 -1.0601 -1.0837
 3900TIP3   OH233190   4.165   6.705  11.731  0.0930  0.1762  0.0887
 3900TIP3    H133191   4.139   6.788  11.691  2.0613 -0.7108 -3.4414
 3900TIP3    H233192   4.085   6.653  11.732 -0.5020  1.0462 -0.5248
 3901TIP3   OH233193   1.682   0.963  14.055 -0.3514 -0.2181 -0.2278
 3901TIP3    H133194   1.647   0.875  14.071 -0.3732  0.1008  1.7792
 3901TIP3    H233195   1.720   0.958  13.967 -2.2736 -1.5740 -1.0530
 3902TIP3   OH233196   1.745   5.351  12.987  0.0800  0.1690  0.0188
 3902TIP3    H133197   1.827   5.333  12.942  0.7493  1.8509  0.4801
 3902TIP3    H233198   1.681   5.293  12.946  0.6475  1.5218 -3.0302
 3903TIP3   OH233199   5.167   6.048  12.663  0.1205 -0.4120  0.0391
 3903TIP3    H133200   5.105   6.105  12.619  3.5084  2.2434 -1.8395
 3903TIP3    H233201   5.169   6.080  12.754 -0.8937 -0.2346  0.0064
 3904TIP3   OH233202   1.023   6.424  13.225 -0.5949 -0.2524 -0.5614
 3904TIP3    H133203   0.981   6.461  13.304  0.3456 -0.5040  0.0708
 3904TIP3    H233204   1.114   6.410  13.251 -0.8344 -2.7352 -0.8615
 3905TIP3   OH233205   2.830   2.876  14.150 -0.0177  0.4243 -0.3449
 3905TIP3    H133206   2.905   2.819  14.135 -0.5723 -0.3419 -0.3007
 3905TIP3    H233207   2.848   2.954  14.098  1.7567  1.1462  1.2374
 3906TIP3   OH233208   6.801   0.734   4.350  0.4184  0.0667 -0.1602
 3906TIP3    H133209   6.889   0.706   4.324 -0.4758 -2.0575 -1.1833
 3906TIP3    H233210   6.765   0.777   4.272  1.0220  2.3179  0.7337
 3907TIP3   OH233211   3.055   2.109  12.547  0.4971  0.2127 -0.0211
 3907TIP3    H133212   3.097   2.129  12.463  0.8739  3.2848  0.7970
 3907TIP3    H233213   2.961   2.116  12.529  0.5833  3.2532  0.1940
 3908TIP3   OH233214   0.846   2.347   4.491  0.0055  0.0618 -0.5935
 3908TIP3    H133215   0.770   2.402   4.470 -0.1973 -0.8886 -2.5514
 3908TIP3    H233216   0.858   2.291   4.414  2.1682 -0.4298  0.0152
 3909TIP3   OH233217   3.470   1.908   0.192 -0.4947  0.5251 -0.3886
 3909TIP3    H133218   3.520   1.928   0.271  0.7672  0.1045 -1.0471
 3909TIP3    H233219   3.419   1.986   0.175 -0.3955  0.8102  0.5534
 3910TIP3   OH233220   4.983   0.487   4.040  0.3296 -0.1187 -0.1726
 3910TIP3    H133221   4.954   0.396   4.033 -2.7517  0.8691 -2.9256
 3910TIP3    H233222   5.064   0.491   3.991  0.4369 -1.3604 -0.1138
 3911TIP3   OH233223   6.333   0.017   0.190  0.5435 -0.3902 -0.0826
 3911TIP3    H133224   6.295   0.104   0.178 -0.2176 -0.2713  2.5430
 3911TIP3    H233225   6.287  -0.038   0.127 -0.5798  0.6903 -0.2494
 3912TIP3   OH233226   3.772   6.286   1.165  0.3597 -0.3313  0.1746
 3912TIP3    H133227   3.691   6.241   1.188  0.2200 -0.7698 -1.1033
 3912TIP3    H233228   3.841   6.224   1.190  0.2853 -0.1921  0.7403
 3913TIP3   OH233229   1.629   3.144  17.161 -0.0078 -0.2480  0.1938
 3913TIP3    H133230   1.645   3.105  17.247 -1.1807 -0.3407  0.3899
 3913TIP3    H233231   1.716   3.168  17.129  0.4799 -0.5421  1.2448
 3914TIP3   OH233232   2.158   4.583   0.475  0.3281 -0.1211 -0.2460
 3914TIP3    H133233   2.151   4.513   0.410  2.9851  0.6764 -1.5379
 3914TIP3    H233234   2.090   4.646   0.450  0.6470 -0.3058 -1.7063
 3915TIP3   OH233235   6.275   4.979   0.272  0.2853 -0.5522  0.2410
 3915TIP3    H133236   6.238   4.983   0.360 -1.2916  0.4387 -0.4101
 3915TIP3    H233237   6.226   4.909   0.228  1.2826 -1.2563  0.2402
 3916TIP3   OH233238   3.249   3.954   1.686  0.4120 -0.0906 -0.0665
 3916TIP3    H133239   3.160   3.960   1.651  0.2748  0.5097  0.3760
 3916TIP3    H233240   3.305   3.976   1.613  0.1345  0.9411  0.0209
 3917TIP3   OH233241   0.721   4.709   3.459 -0.4366 -0.1821  0.0792
 3917TIP3    H133242   0.778   4.635   3.436  0.4370 -0.3251  2.4062
 3917TIP3    H233243   0.635   4.670   3.470  0.2540 -1.2345  2.5983
 3918TIP3   OH233244   0.520   5.514  15.308 -0.6137  0.6549 -0.9093
 3918TIP3    H133245   0.589   5.538  15.246  0.8342  1.5462  0.9419
 3918TIP3    H233246   0.483   5.433  15.273  0.5206  0.8207 -2.6064
 3919TIP3   OH233247   3.092   0.984  15.012 -0.1814  0.3018 -0.7686
 3919TIP3    H133248   3.182   0.965  15.038 -0.3046  0.8861  0.1389
 3919TIP3    H233249   3.041   0.910  15.045  0.1238 -0.7732 -2.5487
 3920TIP3   OH233250   0.072   0.736  15.359  0.2163  0.1797  0.1373
 3920TIP3    H133251   0.014   0.680  15.308  0.0226 -0.3398  0.9098
 3920TIP3    H233252   0.062   0.706  15.449 -0.5104  1.9961  0.7000
 3921TIP3   OH233253   0.616   2.205   3.516  0.6293 -0.4161  0.0195
 3921TIP3    H133254   0.584   2.197   3.426  1.7488 -0.5736 -0.3852
 3921TIP3    H233255   0.563   2.143   3.565  0.7074 -1.1071 -0.7398
 3922TIP3   OH233256   5.135   3.301   1.625  0.2859 -0.3527  0.4292
 3922TIP3    H133257   5.173   3.315   1.538  0.2908  1.1371  0.6481
 3922TIP3    H233258   5.115   3.207   1.627  0.2094 -0.4069 -1.2110
 3923TIP3   OH233259   6.712   1.204   5.124 -0.0431 -0.2927 -0.5185
 3923TIP3    H133260   6.724   1.297   5.140 -0.8323  0.1470 -2.1911
 3923TIP3    H233261   6.651   1.175   5.192 -0.1312  0.5057 -0.2536
 3924TIP3   OH233262   6.674   5.929  15.117 -0.4275 -0.4733  0.2820
 3924TIP3    H133263   6.753   5.960  15.072  0.4759 -1.4587  1.1100
 3924TIP3    H233264   6.650   6.001  15.175 -0.3180 -0.0361 -0.2176
 3925TIP3   OH233265   3.369   3.002   4.474  0.2172  0.2122  0.1964
 3925TIP3    H133266   3.281   2.965   4.479  1.0515 -1.7415  2.2140
 3925TIP3    H233267   3.405   2.968   4.392 -0.7576  0.7213 -0.4544
 3926TIP3   OH233268   1.894   2.915  13.402  0.3673  0.0515 -0.0738
 3926TIP3    H133269   1.851   2.998  13.423  1.9496  0.9238 -0.1354
 3926TIP3    H233270   1.955   2.937  13.331  0.5110 -1.2564 -0.3784
 3927TIP3   OH233271   4.943   5.567   4.793 -0.2606 -0.1514  0.3229
 3927TIP3    H133272   5.033   5.596   4.782 -0.4012 -0.1857 -1.1815
 3927TIP3    H233273   4.916   5.602   4.878  0.2925  2.2519 -0.4116
 3928TIP3   OH233274   6.222   1.264   3.828  0.2712  0.0503  0.0020
 3928TIP3    H133275   6.163   1.313   3.885  0.4863 -0.5149  0.7285
 3928TIP3    H233276   6.183   1.272   3.741 -0.6730  0.0080  0.4055
 3929TIP3   OH233277   6.140   2.041   4.479 -0.5031 -0.2606 -0.0180
 3929TIP3    H133278   6.097   2.049   4.394 -0.7242  1.0544  0.2025
 3929TIP3    H233279   6.117   1.953   4.509 -0.1963 -0.8505 -1.4239
 3930TIP3   OH233280   3.723   0.052  11.029 -0.0788  0.0002 -0.0941
 3930TIP3    H133281   3.660   0.103  11.080 -0.5636 -2.3901  1.9054
 3930TIP3    H233282   3.758  -0.012  11.091  0.6078 -1.9825 -2.3517
 3931TIP3   OH233283   2.103   2.182  16.351 -0.0916 -0.5521 -0.0696
 3931TIP3    H133284   2.146   2.252  16.303 -0.0971 -0.4889  0.0169
 3931TIP3    H233285   2.026   2.160  16.298  0.2111 -0.8738 -0.3805
 3932TIP3   OH233286   1.124   3.366  14.826  0.3152 -0.6013  0.1289
 3932TIP3    H133287   1.066   3.436  14.855  1.4431  0.2471  0.4039
 3932TIP3    H233288   1.102   3.352  14.734  0.9756  1.0564 -0.3067
 3933TIP3   OH233289   4.821   4.409   6.700  0.4598 -0.1318 -0.4489
 3933TIP3    H133290   4.882   4.381   6.768  1.5682  0.7293 -1.0350
 3933TIP3    H233291   4.836   4.504   6.693 -1.0885  0.1386 -0.4988
 3934TIP3   OH233292   2.161   1.901   2.479  0.1042  0.0024 -0.8089
 3934TIP3    H133293   2.079   1.944   2.505 -0.5670 -0.7994 -1.5129
 3934TIP3    H233294   2.139   1.808   2.477  0.3240 -0.0621 -3.2770
 3935TIP3   OH233295   0.984   4.574   0.605 -0.4045 -0.0246  0.5625
 3935TIP3    H133296   0.966   4.561   0.512  0.1659  0.4582  0.3801
 3935TIP3    H233297   1.057   4.516   0.624 -1.1426 -0.8464  0.9448
 3936TIP3   OH233298   4.519   2.317   3.883 -0.1669  0.3349  0.4515
 3936TIP3    H133299   4.432   2.312   3.842  0.3406  3.5242 -1.3198
 3936TIP3    H233300   4.513   2.389   3.945  1.2249  0.7066  0.1951
 3937TIP3   OH233301   5.657   3.724   4.891  0.7305  0.1245  0.1910
 3937TIP3    H133302   5.588   3.740   4.955  1.3765  0.4726  0.8198
 3937TIP3    H233303   5.733   3.769   4.927  1.4844 -0.8648 -0.1175
 3938TIP3   OH233304   6.700   1.532  12.231  0.0392 -0.0987  0.1698
 3938TIP3    H133305   6.660   1.619  12.234 -0.4424 -0.3151  0.1151
 3938TIP3    H233306   6.767   1.539  12.162 -0.3891  0.0655 -0.2379
 3939TIP3   OH233307   6.421   6.801  15.858 -0.0498  0.3240  0.0992
 3939TIP3    H133308   6.494   6.851  15.821 -0.4644  1.1968  0.4481
 3939TIP3    H233309   6.345   6.830  15.808 -0.0933 -1.0195 -0.6712
 3940TIP3   OH233310   1.601   1.268  11.963 -0.3134  0.1049  0.4255
 3940TIP3    H133311   1.651   1.340  11.924 -1.0416 -0.9163 -2.7212
 3940TIP3    H233312   1.636   1.260  12.052  1.4243  2.7711  0.1114
 3941TIP3   OH233313   2.908   4.878   5.541  0.1062  0.4434 -0.8324
 3941TIP3    H133314   3.001   4.879   5.563  0.0570  1.0907 -0.6187
 3941TIP3    H233315   2.866   4.840   5.618  0.4771 -3.2563 -2.2753
 3942TIP3   OH233316   3.276   3.551  12.461 -0.0036 -0.3401  0.7360
 3942TIP3    H133317   3.320   3.631  12.434 -0.8852  0.1205  0.6590
 3942TIP3    H233318   3.348   3.491  12.483  0.6567  0.5132  0.9478
 3943TIP3   OH233319   2.209   4.896  12.523 -0.2413 -0.0417 -0.4280
 3943TIP3    H133320   2.213   4.992  12.518  1.2397 -0.1156 -4.6332
 3943TIP3    H233321   2.127   4.878  12.569  0.4891  3.1213  2.5614
 3944TIP3   OH233322   5.786   5.340   1.720  0.1050  0.3040  0.5684
 3944TIP3    H133323   5.755   5.429   1.704 -0.1388  0.1212  0.0066
 3944TIP3    H233324   5.783   5.330   1.816 -1.7342  0.2324  0.5355
 3945TIP3   OH233325   1.302   3.480   2.676  0.5373  0.4779 -0.7590
 3945TIP3    H133326   1.319   3.440   2.591  1.1523 -1.2542  0.1318
 3945TIP3    H233327   1.250   3.415   2.724  3.0752 -0.1632  1.3867
 3946TIP3   OH233328   5.084   5.168   6.007 -0.2070 -0.3036 -0.2795
 3946TIP3    H133329   5.100   5.131   6.094  0.1090 -1.4907 -0.8324
 3946TIP3    H233330   5.119   5.257   6.013  1.2833 -0.8986  0.3376
 3947TIP3   OH233331   0.605   5.249   3.679 -0.6287 -0.4077  0.1646
 3947TIP3    H133332   0.632   5.238   3.588 -1.1013  2.0673 -0.3363
 3947TIP3    H233333   0.686   5.262   3.727 -0.4304 -0.9521 -0.0127
 3948TIP3   OH233334   4.303   4.709   0.761 -0.2908 -0.1504  0.1413
 3948TIP3    H133335   4.262   4.629   0.793 -0.8189  0.2746  0.5537
 3948TIP3    H233336   4.387   4.712   0.807  0.4146 -1.2472 -1.0368
 3949TIP3   OH233337   6.476   3.383  11.023  0.2674  0.1180  0.3231
 3949TIP3    H133338   6.432   3.308  10.984  2.4286 -2.2592  2.0549
 3949TIP3    H233339   6.519   3.427  10.950  0.3216 -1.3763 -0.5864
 3950TIP3   OH233340   0.383   5.739  16.745 -0.1354 -0.0447 -0.0540
 3950TIP3    H133341   0.461   5.717  16.694  0.5488 -0.6908  1.2250
 3950TIP3    H233342   0.310   5.701  16.697  0.6747 -2.2293  0.3547
 3951TIP3   OH233343   1.913   1.361  13.685 -0.1408  0.7607 -0.1272
 3951TIP3    H133344   1.932   1.279  13.730 -1.5897  0.6619  0.3527
 3951TIP3    H233345   1.982   1.421  13.714 -0.1067  0.2215  0.9342
 3952TIP3   OH233346   4.139   2.944   0.671  0.2041  0.2728 -0.0780
 3952TIP3    H133347   4.188   3.009   0.620  0.7793  0.0723  0.2126
 3952TIP3    H233348   4.206   2.886   0.707 -0.1629  0.5577  1.1246
 3953TIP3   OH233349   0.955   4.172   5.411  0.5528  1.2915 -0.2332
 3953TIP3    H133350   0.999   4.229   5.348  0.5308  2.4020  0.7244
 3953TIP3    H233351   0.864   4.172   5.383  0.9002 -0.0551 -1.5142
 3954TIP3   OH233352   4.276   4.111  15.196 -0.5319  0.6353 -0.4636
 3954TIP3    H133353   4.321   4.026  15.191 -0.8678  0.5280 -2.3183
 3954TIP3    H233354   4.347   4.175  15.197 -0.2816  0.3704  0.7310
 3955TIP3   OH233355   3.451   2.705   3.985 -0.3300  0.2073 -0.1265
 3955TIP3    H133356   3.405   2.723   4.067  0.2023  2.5018 -0.2641
 3955TIP3    H233357   3.382   2.678   3.924 -0.8751 -0.5154  0.7951
 3956TIP3   OH233358   3.768   4.980  13.908  0.0244 -0.1317 -0.3097
 3956TIP3    H133359   3.713   5.019  13.840  2.4734  1.0301 -1.7680
 3956TIP3    H233360   3.732   5.014  13.990 -3.0155 -1.5800 -0.9098
 3957TIP3   OH233361   6.421   6.672  11.990 -0.2567  0.7901 -0.6077
 3957TIP3    H133362   6.383   6.593  11.950  0.7599  0.7655 -1.5767
 3957TIP3    H233363   6.490   6.699  11.929  0.8240  1.2156  0.7533
 3958TIP3   OH233364   3.473   4.761   0.220  0.8073  0.8509 -0.8070
 3958TIP3    H133365   3.477   4.698   0.149  0.4821  0.6955 -0.6902
 3958TIP3    H233366   3.405   4.727   0.279  1.1995  0.8818 -0.3336
 3959TIP3   OH233367   6.522   4.612   1.853 -0.3888  0.0947 -0.2915
 3959TIP3    H133368   6.595   4.554   1.830  0.2258  0.6748  0.1337
 3959TIP3    H233369   6.446   4.555   1.861  0.6228 -1.0289  2.3783
 3960TIP3   OH233370   5.404   0.023   0.904 -0.3333  0.0053  0.1377
 3960TIP3    H133371   5.385  -0.025   0.824  0.8217 -0.7244  0.2784
 3960TIP3    H233372   5.365  -0.030   0.974 -0.2413 -0.0140  0.1745
 3961TIP3   OH233373   1.038   4.224  11.948 -0.2985  0.0207  1.2849
 3961TIP3    H133374   1.068   4.159  12.012 -0.4403  0.4440  1.7835
 3961TIP3    H233375   0.989   4.288  11.999  1.2385  1.4401  1.0630
 3962TIP3   OH233376   4.636   4.061   0.795 -0.2193 -0.0797  0.2593
 3962TIP3    H133377   4.683   3.978   0.784 -0.0053 -0.9202  5.1412
 3962TIP3    H233378   4.544   4.039   0.785 -0.0473 -0.3187 -0.8931
 3963TIP3   OH233379   5.170   1.617  15.571 -0.1041  0.0968 -0.3296
 3963TIP3    H133380   5.262   1.637  15.583  0.2455 -1.3907 -0.3280
 3963TIP3    H233381   5.129   1.634  15.656  0.5271 -0.9799  0.2139
 3964TIP3   OH233382   6.350   3.412   0.482  0.0575  0.2882  0.5965
 3964TIP3    H133383   6.438   3.446   0.469  0.1252 -0.3008 -0.6266
 3964TIP3    H233384   6.296   3.458   0.418  0.0182 -1.3090 -0.5870
 3965TIP3   OH233385   2.854   5.908  12.997 -0.4379 -0.0054 -0.3006
 3965TIP3    H133386   2.832   5.963  13.072 -0.8526  2.0035 -1.8108
 3965TIP3    H233387   2.918   5.845  13.030 -0.7531  0.6928  1.7509
 3966TIP3   OH233388   3.560   5.370   3.904 -0.2379  0.3741  0.1419
 3966TIP3    H133389   3.570   5.404   3.992  1.7134 -0.2638  0.2154
 3966TIP3    H233390   3.469   5.340   3.899 -0.7586  1.6694  1.4516
 3967TIP3   OH233391   2.235   6.003  12.728  0.7350 -0.3834 -0.0344
 3967TIP3    H133392   2.220   5.916  12.763  0.5995  0.1805  1.3695
 3967TIP3    H233393   2.298   6.043  12.788  1.4378  0.1995 -1.1271
 3968TIP3   OH233394   5.366   2.107   2.125 -0.0305 -0.2206  0.3362
 3968TIP3    H133395   5.339   2.187   2.080 -1.0207 -0.9227 -0.3637
 3968TIP3    H233396   5.454   2.126   2.157 -0.1372  1.0418 -0.0698
 3969TIP3   OH233397   1.453   3.245   2.423  0.2854 -0.2063 -0.3298
 3969TIP3    H133398   1.513   3.175   2.399  0.9907  0.0354  0.6434
 3969TIP3    H233399   1.509   3.316   2.453 -0.4667  0.0096  0.6638
 3970TIP3   OH233400   2.761   3.165  11.313 -0.3781 -0.1384 -0.0460
 3970TIP3    H133401   2.786   3.209  11.232 -0.9160  1.4840  0.6326
 3970TIP3    H233402   2.809   3.212  11.382 -0.5996 -0.9256  0.6608
 3971TIP3   OH233403   3.567   1.810   3.630  0.3822  0.0756  0.6945
 3971TIP3    H133404   3.592   1.759   3.553  1.9673  0.1395  1.1174
 3971TIP3    H233405   3.634   1.879   3.635 -0.0065  0.3955  1.8099
 3972TIP3   OH233406   1.020   4.842   5.587 -0.4919 -0.3580  0.1014
 3972TIP3    H133407   0.947   4.815   5.643 -0.1944  0.3879  0.8811
 3972TIP3    H233408   0.989   4.826   5.498 -0.8993 -1.7589  0.4737
 3973TIP3   OH233409   0.622   2.933  12.976 -0.0834  0.5940  0.0702
 3973TIP3    H133410   0.587   3.008  13.024 -0.0610  0.5595  0.1412
 3973TIP3    H233411   0.657   2.875  13.044 -0.4946  0.3130  0.0448
 3974TIP3   OH233412   5.541   2.590   4.553  0.2906  0.4051  0.3231
 3974TIP3    H133413   5.564   2.636   4.472 -0.5329  0.0321 -0.1265
 3974TIP3    H233414   5.449   2.568   4.543 -0.2475  1.6657  1.9989
 3975TIP3   OH233415   4.555   2.805  13.026  0.3800 -0.0519 -0.0639
 3975TIP3    H133416   4.540   2.713  13.004  0.9263 -0.4788  1.2421
 3975TIP3    H233417   4.502   2.820  13.105  0.6167  0.6329 -0.0281
 3976TIP3   OH233418   5.040   1.842   0.545  0.2895 -0.2752  0.0202
 3976TIP3    H133419   5.002   1.851   0.457  1.0047 -3.2557 -0.7341
 3976TIP3    H233420   5.108   1.909   0.549 -0.6977  0.8491 -1.1515
 3977TIP3   OH233421   2.860   6.283  14.210 -0.3851 -0.2322 -0.1351
 3977TIP3    H133422   2.914   6.358  14.234 -2.0522  0.6603  1.0373
 3977TIP3    H233423   2.869   6.223  14.283  1.3342 -1.4865 -1.2855
 3978TIP3   OH233424   3.051   0.966   3.821  0.0899 -0.0469 -0.3172
 3978TIP3    H133425   3.107   0.901   3.864  0.7845  0.9137  0.2674
 3978TIP3    H233426   2.962   0.934   3.834  0.4297 -0.9384 -0.1460
 3979TIP3   OH233427   5.529   2.411   5.701  0.6192 -0.2640  0.5217
 3979TIP3    H133428   5.517   2.437   5.793  1.6389 -0.3432  0.6974
 3979TIP3    H233429   5.610   2.456   5.675  0.3870 -0.3249 -0.3107
 3980TIP3   OH233430   2.655   1.886  14.761 -0.0435  0.4778 -0.5068
 3980TIP3    H133431   2.742   1.870  14.796 -0.1183 -0.7350 -0.8035
 3980TIP3    H233432   2.649   1.827  14.685 -1.3741 -0.0153 -0.0488
 3981TIP3   OH233433   4.601   6.392   3.325 -0.0860  0.0403 -0.4358
 3981TIP3    H133434   4.535   6.405   3.257 -0.8903  0.2709  0.3768
 3981TIP3    H233435   4.619   6.298   3.323  0.7842  0.2059 -1.7641
 3982TIP3   OH233436   1.865   5.201   5.703 -0.8045 -0.4186  0.6584
 3982TIP3    H133437   1.818   5.133   5.656 -1.4930  0.3274  0.2631
 3982TIP3    H233438   1.938   5.155   5.745 -0.6107 -1.2072 -0.5206
 3983TIP3   OH233439   0.694   5.585   2.468 -0.3754  0.4598 -0.5426
 3983TIP3    H133440   0.733   5.660   2.512 -0.5963 -0.4073  1.2481
 3983TIP3    H233441   0.600   5.603   2.469 -0.5766 -0.3978  1.1745
 3984TIP3   OH233442   5.048   2.309  14.056 -0.9644  0.1678 -0.2476
 3984TIP3    H133443   5.138   2.278  14.041 -0.8654  0.1493  0.3593
 3984TIP3    H233444   5.057   2.404  14.064 -0.9236  0.1271  0.2730
 3985TIP3   OH233445   0.580   1.455  16.356  0.0102 -0.0365  0.2528
 3985TIP3    H133446   0.488   1.427  16.349 -0.4181  1.2303  0.4827
 3985TIP3    H233447   0.577   1.531  16.415  1.0754  0.5795 -0.4556
 3986TIP3   OH233448   2.490   4.231   4.360  0.2576  0.3472  0.0540
 3986TIP3    H133449   2.405   4.258   4.395 -0.8918 -1.0672 -1.4480
 3986TIP3    H233450   2.536   4.193   4.435 -0.7377  0.4561  0.7478
 3987TIP3   OH233451   2.363   5.213  12.133 -0.2582  0.1366  0.1358
 3987TIP3    H133452   2.370   5.258  12.049 -0.6134  1.2822  0.7072
 3987TIP3    H233453   2.274   5.178  12.134 -0.6739  1.1859  0.5480
 3988TIP3   OH233454   5.215   4.169   1.259  0.1790  0.3344 -0.1011
 3988TIP3    H133455   5.200   4.168   1.164  0.2586 -0.6418 -0.1091
 3988TIP3    H233456   5.127   4.175   1.296  0.1554  0.8667 -0.2301
 3989TIP3   OH233457   6.602   5.353   3.522 -0.0359 -0.2600  0.0980
 3989TIP3    H133458   6.678   5.334   3.467  0.5588  1.4558  0.2715
 3989TIP3    H233459   6.538   5.390   3.461  1.3766  3.6546  0.7010
 3990TIP3   OH233460   2.306   4.739  16.113 -0.0378  0.1107 -0.1592
 3990TIP3    H133461   2.304   4.795  16.191 -0.2696 -0.0012 -0.0840
 3990TIP3    H233462   2.330   4.653  16.145  3.4020  0.7557 -0.6320
 3991TIP3   OH233463   3.129   5.253  16.524  0.3320 -0.1521  0.0444
 3991TIP3    H133464   3.224   5.245  16.518  0.3462  0.8820 -1.7057
 3991TIP3    H233465   3.114   5.342  16.556 -0.0508 -0.3491  0.4216
 3992TIP3   OH233466   5.678   2.865   1.836 -0.0561  0.2106  0.2176
 3992TIP3    H133467   5.678   2.949   1.792 -2.2413  0.4776  0.6388
 3992TIP3    H233468   5.742   2.875   1.907  0.5078  1.1149 -0.4069
 3993TIP3   OH233469   4.010   1.727  13.668  0.6681 -0.3452 -0.1154
 3993TIP3    H133470   4.103   1.727  13.647  0.4701  0.7538 -1.1425
 3993TIP3    H233471   3.974   1.800  13.616 -1.0284 -1.7176 -0.9886
 3994TIP3   OH233472   3.102   1.004   4.936  0.1923  0.5003 -0.0505
 3994TIP3    H133473   3.183   1.047   4.965 -0.0105  1.4942 -0.8716
 3994TIP3    H233474   3.105   0.917   4.975  1.0962  0.9332  0.8887
 3995TIP3   OH233475   2.245   0.121  11.045  0.1039  0.0974 -0.2152
 3995TIP3    H133476   2.241   0.217  11.036 -0.6448  0.0386 -0.5917
 3995TIP3    H233477   2.163   0.098  11.087 -0.6977 -0.5832 -2.0715
 3996TIP3   OH233478   2.482   2.624   4.624  0.1175  0.0254 -0.8577
 3996TIP3    H133479   2.398   2.637   4.581 -1.3288 -1.1274  1.4470
 3996TIP3    H233480   2.507   2.534   4.600  0.3690  0.1197 -0.9588
 3997TIP3   OH233481   0.471   1.512   4.756 -0.5741  0.0269 -0.4115
 3997TIP3    H133482   0.396   1.534   4.810  0.7560 -1.2528  2.1134
 3997TIP3    H233483   0.525   1.591   4.757 -0.2236 -0.2094  0.7925
 3998TIP3   OH233484   0.325   5.450  12.805 -0.6248 -0.4069  0.3497
 3998TIP3    H133485   0.235   5.451  12.838 -1.1127 -1.3276 -0.8672
 3998TIP3    H233486   0.334   5.364  12.763  0.5578 -0.0017 -0.2569
 3999TIP3   OH233487   3.696   6.210   3.608 -0.6522  0.2431  0.6124
 3999TIP3    H133488   3.769   6.214   3.545 -0.0947 -0.7329  1.1750
 3999TIP3    H233489   3.621   6.245   3.559  0.0617  0.7621 -0.1537
 4000TIP3   OH233490   5.988   4.420  12.236 -0.5494  0.5054 -0.4565
 4000TIP3    H133491   6.033   4.451  12.157 -0.9601  1.0367 -0.4860
 4000TIP3    H233492   6.011   4.485  12.303  1.1070 -0.7875  0.2994
 4001TIP3   OH233493   3.828   1.816  11.123  0.1095 -0.5362 -0.0789
 4001TIP3    H133494   3.741   1.842  11.155  0.3819  0.3946 -0.0698
 4001TIP3    H233495   3.884   1.824  11.200  0.1998 -1.1762 -0.0758
 4002TIP3   OH233496   1.053   0.500   4.804  0.2481 -0.3684 -0.3386
 4002TIP3    H133497   1.006   0.441   4.864 -1.6586  1.2094 -0.1609
 4002TIP3    H233498   1.085   0.443   4.734 -0.7513 -1.7338  0.2680
 4003TIP3   OH233499   1.497   1.118   3.999  0.0426 -0.2441 -0.0443
 4003TIP3    H133500   1.503   1.204   3.957 -0.7779  0.2026  0.7177
 4003TIP3    H233501   1.494   1.056   3.926 -0.2130  0.4360 -0.6278
 4004TIP3   OH233502   2.433   0.331   3.425  0.0468  0.3291 -0.2407
 4004TIP3    H133503   2.360   0.286   3.468 -0.0610 -1.5141 -2.1885
 4004TIP3    H233504   2.401   0.419   3.408 -1.9511 -0.5605 -1.4514
 4005TIP3   OH233505   6.708   3.120   6.260  0.3570  0.4311  0.6959
 4005TIP3    H133506   6.617   3.096   6.276 -0.0876  0.8269 -1.0262
 4005TIP3    H233507   6.725   3.191   6.322 -1.3414  2.0781 -0.6205
 4006TIP3   OH233508   0.468   5.884   1.239 -0.6746 -0.3356  0.1610
 4006TIP3    H133509   0.545   5.894   1.295  0.2543  1.4041 -1.3365
 4006TIP3    H233510   0.483   5.801   1.193 -0.0958 -0.4276  0.5043
 4007TIP3   OH233511   4.592   3.541   6.430  0.4089  0.6402 -0.0262
 4007TIP3    H133512   4.650   3.580   6.364  2.8002 -0.0560  1.5412
 4007TIP3    H233513   4.586   3.449   6.405  0.3283  0.6252  0.0496
 4008TIP3   OH233514   4.172   6.689  13.103  0.4963 -0.0883 -0.5228
 4008TIP3    H133515   4.201   6.767  13.055 -2.1439 -0.1807 -2.5084
 4008TIP3    H233516   4.119   6.724  13.175 -1.5874  0.0412 -2.0414
 4009TIP3   OH233517   0.255   2.799  14.446  0.3367 -0.4619 -0.2058
 4009TIP3    H133518   0.296   2.792  14.360  0.3954 -1.0674 -0.1339
 4009TIP3    H233519   0.288   2.881  14.481 -1.0724  0.6894 -1.4697
 4010TIP3   OH233520   5.883   2.985  16.495 -0.1632  0.2520  0.1019
 4010TIP3    H133521   5.975   2.957  16.492  0.4842  2.1869  0.0258
 4010TIP3    H233522   5.838   2.916  16.542  1.2757 -0.9122 -0.1557
 4011TIP3   OH233523   4.674   2.732   5.092  0.3822 -0.1211  0.7000
 4011TIP3    H133524   4.676   2.795   5.020  0.8515 -1.7026 -0.7319
 4011TIP3    H233525   4.615   2.662   5.062  0.3078 -0.6629  2.0120
 4012TIP3   OH233526   2.494   0.273   5.327  0.2675  0.1423  0.4039
 4012TIP3    H133527   2.445   0.291   5.246  0.4775 -0.6796  0.0857
 4012TIP3    H233528   2.429   0.280   5.397  0.3862  2.3933  0.3534
 4013TIP3   OH233529   3.512   5.248  14.542  0.3833  0.6606  0.2726
 4013TIP3    H133530   3.467   5.248  14.458  0.6671 -1.0157  0.0695
 4013TIP3    H233531   3.488   5.164  14.582  1.6287  0.6495  1.0725
 4014TIP3   OH233532   2.070   4.255  11.275  0.2543 -0.1289  0.1966
 4014TIP3    H133533   2.082   4.161  11.262  3.6127  0.0892  0.8317
 4014TIP3    H233534   2.082   4.268  11.369  2.3225  1.1128 -0.1679
 4015TIP3   OH233535   1.264   4.342   2.956 -0.2302  0.2291 -0.1882
 4015TIP3    H133536   1.175   4.307   2.958 -0.4014  0.6661 -0.1065
 4015TIP3    H233537   1.258   4.416   2.896  1.0181 -2.3289 -3.9079
 4016TIP3   OH233538   5.392   3.252  17.195  0.0522  0.3180  0.3976
 4016TIP3    H133539   5.439   3.174  17.224 -0.7684 -0.5098 -0.4584
 4016TIP3    H233540   5.301   3.237  17.219 -0.3555  0.3662 -1.0248
 4017TIP3   OH233541   4.350   2.598   5.566 -0.1101 -0.1865  0.0820
 4017TIP3    H133542   4.274   2.632   5.612  0.7572  1.5841  0.3100
 4017TIP3    H233543   4.342   2.503   5.572 -2.2291 -0.0464  0.1644
 4018TIP3   OH233544   3.475   0.376   2.911  0.1410  0.1014 -0.6001
 4018TIP3    H133545   3.464   0.285   2.882  0.3782 -0.4144  0.8383
 4018TIP3    H233546   3.400   0.422   2.875  0.6613 -0.3689 -2.4078
 4019TIP3   OH233547   2.109   1.302   2.344 -0.1034  0.3674  0.4858
 4019TIP3    H133548   2.103   1.209   2.365 -0.1350  0.8059  2.5751
 4019TIP3    H233549   2.178   1.307   2.277  0.4507 -1.0648  0.9213
 4020TIP3   OH233550   0.680   6.507   1.423 -0.1447  0.1996  0.1647
 4020TIP3    H133551   0.704   6.432   1.477 -1.5694 -0.2645  0.1921
 4020TIP3    H233552   0.751   6.515   1.360  0.4755 -0.5948  0.7339
 4021TIP3   OH233553   3.851   3.554   3.066 -0.4480  0.0300 -0.4314
 4021TIP3    H133554   3.899   3.637   3.066 -0.4639  0.0979  1.4580
 4021TIP3    H233555   3.774   3.571   3.120 -0.2561 -1.2971  0.3192
 4022TIP3   OH233556   2.363   3.333  16.752  0.0450  0.4744 -0.3359
 4022TIP3    H133557   2.412   3.329  16.669 -0.3113  1.1990 -0.5980
 4022TIP3    H233558   2.424   3.374  16.813  0.7449 -1.1517  0.1103
 4023TIP3   OH233559   5.417   2.954  11.451 -0.3433 -0.0987 -0.2412
 4023TIP3    H133560   5.502   2.911  11.441  0.3828  1.8341 -3.9996
 4023TIP3    H233561   5.438   3.038  11.492 -1.0439 -0.9526  2.0502
 4024TIP3   OH233562   3.221   1.808   4.603  0.2370  0.0118  0.1461
 4024TIP3    H133563   3.221   1.901   4.623  0.0494  0.0004  0.2055
 4024TIP3    H233564   3.128   1.786   4.594  0.3234  0.3610 -2.3390
 4025TIP3   OH233565   6.380   0.630  15.193  0.1169  0.1651  0.0334
 4025TIP3    H133566   6.290   0.598  15.200  0.5865 -1.0710  0.6464
 4025TIP3    H233567   6.375   0.722  15.219 -0.4184 -0.7805  3.8522
 4026TIP3   OH233568   5.441   0.240   0.030  0.3039 -0.4374 -0.2101
 4026TIP3    H133569   5.372   0.303   0.052 -0.0365 -0.7486 -0.3710
 4026TIP3    H233570   5.423   0.215  -0.061 -0.2123 -1.5719  0.1835
 4027TIP3   OH233571   2.569   5.767   2.985 -0.8221  0.2002  0.3501
 4027TIP3    H133572   2.619   5.760   3.066 -0.3586 -0.2242  0.0314
 4027TIP3    H233573   2.622   5.723   2.920 -1.7217 -0.4610  0.0443
 4028TIP3   OH233574   0.038   5.511   0.727 -0.5775  0.0527 -0.3131
 4028TIP3    H133575   0.065   5.435   0.674 -1.5026  0.3358 -1.2333
 4028TIP3    H233576   0.032   5.583   0.664 -3.4333  0.0003 -0.2290
 4029TIP3   OH233577   6.234   4.749   0.060 -0.5671  0.0882  0.5576
 4029TIP3    H133578   6.151   4.794   0.076 -1.0618 -0.4979 -0.2909
 4029TIP3    H233579   6.214   4.687  -0.010  0.5609 -0.1489  0.4386
 4030TIP3   OH233580   2.159   3.052  11.007  0.1677 -0.1434 -0.0057
 4030TIP3    H133581   2.096   3.053  10.935 -2.0452  0.4106  1.8150
 4030TIP3    H233582   2.243   3.072  10.966 -1.0789  0.6867 -2.3314
 4031TIP3   OH233583   2.269   6.004   6.378 -0.6322 -0.1745  0.1732
 4031TIP3    H133584   2.226   6.060   6.443 -1.1934  0.3182 -0.6165
 4031TIP3    H233585   2.254   5.915   6.411 -0.2157  0.1039  1.1412
 4032TIP3   OH233586   4.100   1.848  15.270 -0.3506 -0.4008  0.3201
 4032TIP3    H133587   4.114   1.883  15.358 -2.1593  0.5705  0.2633
 4032TIP3    H233588   4.073   1.757  15.284  1.9823 -1.1260  0.5850
 4033TIP3   OH233589   2.559   2.436   5.546  0.0084  0.0501  0.3752
 4033TIP3    H133590   2.645   2.414   5.581 -0.2600 -0.5985  0.6302
 4033TIP3    H233591   2.561   2.532   5.537  0.8782  0.0135  0.0481
 4034TIP3   OH233592   1.528   3.759  11.432 -0.6271  0.4036 -0.0317
 4034TIP3    H133593   1.604   3.708  11.459 -0.2397  1.9032  1.8777
 4034TIP3    H233594   1.466   3.693  11.400  0.4902 -1.0942  0.7539
 4035TIP3   OH233595   5.908   6.727   3.270 -0.2471  0.4790  0.3374
 4035TIP3    H133596   5.894   6.811   3.227  0.9966 -0.5809 -2.3661
 4035TIP3    H233597   6.003   6.719   3.277 -0.1923 -1.5965 -1.5852
 4036TIP3   OH233598   1.197   6.791  12.308  0.5385 -0.0484 -0.0320
 4036TIP3    H133599   1.265   6.857  12.320  0.8032  0.2941 -2.7965
 4036TIP3    H233600   1.242   6.719  12.264 -0.8505  0.2637 -2.0819
 4037TIP3   OH233601   6.667   1.353   1.976  0.2123 -0.7728  0.0382
 4037TIP3    H133602   6.720   1.294   1.923 -1.3538 -2.5003  0.2922
 4037TIP3    H233603   6.578   1.320   1.968 -0.6029  1.0196  0.9684
 4038TIP3   OH233604   4.318   5.342   5.354 -0.1719 -0.1868 -0.1752
 4038TIP3    H133605   4.303   5.249   5.336  0.9133 -0.3875 -0.1056
 4038TIP3    H233606   4.289   5.387   5.274 -0.5542 -0.6009 -0.2716
 4039TIP3   OH233607   5.165   4.780   0.476 -0.0206 -0.2957  0.1314
 4039TIP3    H133608   5.183   4.830   0.396 -0.8101 -2.1253 -1.2599
 4039TIP3    H233609   5.114   4.839   0.531 -2.1547  0.0203 -2.0452
 4040TIP3   OH233610   1.699   1.925   2.018  0.6762  0.2857  0.6725
 4040TIP3    H133611   1.625   1.934   1.958  0.4240 -1.1075  0.7463
 4040TIP3    H233612   1.665   1.956   2.102  0.2230 -0.1776  0.6660
 4041TIP3   OH233613   0.646   2.554  14.242  0.0629  0.6158  0.0803
 4041TIP3    H133614   0.677   2.606  14.316 -1.9802  2.2193 -0.0791
 4041TIP3    H233615   0.672   2.465  14.261  1.5604  1.3378  1.6028
 4042TIP3   OH233616   2.477   2.310  14.649 -0.6444  0.0609 -0.0943
 4042TIP3    H133617   2.477   2.215  14.666  1.2127  0.2002  0.9719
 4042TIP3    H233618   2.536   2.345  14.715 -2.6388  2.2166  0.6735
 4043TIP3   OH233619   6.092   1.686   5.056 -0.0679 -0.1463 -0.3461
 4043TIP3    H133620   6.089   1.779   5.031 -0.8639 -0.4020 -1.2943
 4043TIP3    H233621   6.051   1.683   5.142  1.8423  0.6386  0.6507
 4044TIP3   OH233622   0.241   1.980  14.555 -0.0607  0.3818  0.4813
 4044TIP3    H133623   0.294   1.908  14.589 -0.1986 -0.3884 -0.8713
 4044TIP3    H233624   0.153   1.943  14.545  0.1654  0.2811 -1.5254
 4045TIP3   OH233625   3.343   4.087  11.681  0.0087  1.2100  0.4673
 4045TIP3    H133626   3.371   4.110  11.592 -0.1407 -0.9411 -0.1841
 4045TIP3    H233627   3.366   4.164  11.734  2.0400  1.7158 -1.0413
 4046TIP3   OH233628   5.795   4.173   4.747 -0.0314  0.7446  0.7381
 4046TIP3    H133629   5.720   4.168   4.688  0.3645  0.0686  0.2829
 4046TIP3    H233630   5.758   4.205   4.830 -0.2670  3.7604 -0.3998
 4047TIP3   OH233631   0.135   4.714   3.266 -0.1758 -0.1154 -0.7183
 4047TIP3    H133632   0.221   4.704   3.305  0.4931  2.6977 -1.2490
 4047TIP3    H233633   0.113   4.806   3.280 -2.8186 -0.6019 -1.1724
 4048TIP3   OH233634   0.779   5.908   2.166 -0.9976  0.1787 -0.0704
 4048TIP3    H133635   0.754   5.999   2.180 -0.0369  0.4661 -0.1536
 4048TIP3    H233636   0.798   5.874   2.253 -2.6440 -0.3541  0.1167
 4049TIP3   OH233637   6.454   6.530   0.938  0.1173  0.0957 -0.2983
 4049TIP3    H133638   6.533   6.551   0.889 -0.7467 -1.0379 -2.3304
 4049TIP3    H233639   6.478   6.455   0.992  0.5958  0.1538 -0.4265
 4050TIP3   OH233640   5.198   2.856  16.099 -0.2707 -0.0590 -0.7961
 4050TIP3    H133641   5.128   2.832  16.039  1.7094 -1.5587 -2.6238
 4050TIP3    H233642   5.247   2.924  16.052  0.4324 -0.1540 -0.2035
 4051TIP3   OH233643   5.454   4.684  12.324 -0.0507 -0.6119 -0.3365
 4051TIP3    H133644   5.378   4.642  12.363 -0.9178  0.5456 -0.7187
 4051TIP3    H233645   5.477   4.755  12.385 -0.5786  0.3501 -1.2218
 4052TIP3   OH233646   2.698   4.136   0.072 -0.0803 -0.0016  0.1137
 4052TIP3    H133647   2.773   4.092   0.032  0.8312  0.4337  1.2669
 4052TIP3    H233648   2.694   4.101   0.161 -0.8249  0.4819  0.2854
 4053TIP3   OH233649   0.719   1.185   5.973 -0.0220  0.2384  0.0184
 4053TIP3    H133650   0.750   1.108   5.925 -2.5664 -0.5119 -0.5843
 4053TIP3    H233651   0.792   1.247   5.968  1.3295 -1.3545 -1.2930
 4054TIP3   OH233652   4.223   3.632  10.302  0.2884  0.0776 -0.2648
 4054TIP3    H133653   4.190   3.586  10.225  2.0501  0.2700 -1.1996
 4054TIP3    H233654   4.161   3.611  10.371  0.0317 -2.1837 -1.0961
 4055TIP3   OH233655   5.321   2.692  14.705  0.0801 -0.0101  0.1435
 4055TIP3    H133656   5.347   2.755  14.637 -0.0348  0.9069  0.9245
 4055TIP3    H233657   5.228   2.675  14.687  0.4522 -1.0732 -0.9179
 4056TIP3   OH233658   2.384   3.822  12.907 -0.4483  0.2240  0.2945
 4056TIP3    H133659   2.398   3.840  12.814 -1.2110 -0.3167  0.0601
 4056TIP3    H233660   2.294   3.851  12.923 -0.4045  0.0861  0.8023
 4057TIP3   OH233661   2.958   0.168  12.348 -0.5583  0.0134  0.0861
 4057TIP3    H133662   2.979   0.254  12.384  0.2852  0.2536 -0.9221
 4057TIP3    H233663   2.897   0.129  12.411  0.1740  0.7657  1.2884
 4058TIP3   OH233664   4.020   4.749   5.609  0.1450 -0.6932  0.7654
 4058TIP3    H133665   4.107   4.788   5.619 -1.1006  2.7402 -0.3090
 4058TIP3    H233666   3.999   4.714   5.696  2.5342 -1.6376  1.0324
 4059TIP3   OH233667   0.827   2.348  15.540 -0.7081  0.1302  1.0151
 4059TIP3    H133668   0.762   2.306  15.596 -1.0522 -2.0830 -0.9038
 4059TIP3    H233669   0.786   2.431  15.515 -1.8346 -0.2366  1.5760
 4060TIP3   OH233670   0.014   0.617   5.939 -0.0156 -0.2492  0.1585
 4060TIP3    H133671  -0.056   0.592   5.878 -0.3194  1.0776 -0.0773
 4060TIP3    H233672   0.025   0.541   5.995 -0.4667 -1.1112 -0.8838
 4061TIP3   OH233673   5.806   6.672   1.754  0.2482 -0.4727  0.5389
 4061TIP3    H133674   5.892   6.705   1.781 -0.6030  0.6265  2.0177
 4061TIP3    H233675   5.767   6.744   1.705 -0.0775 -0.7583  0.3735
 4062TIP3   OH233676   1.878   1.650  14.556  0.5921  0.0564 -0.6092
 4062TIP3    H133677   1.912   1.571  14.515  1.5861  1.8141 -3.4768
 4062TIP3    H233678   1.956   1.695  14.589  0.3588  0.9986 -1.2865
 4063TIP3   OH233679   5.085   5.441   5.942 -0.2045 -0.3916  0.0717
 4063TIP3    H133680   5.166   5.442   5.892 -0.1030 -1.4672  0.2059
 4063TIP3    H233681   5.017   5.464   5.878  0.2962  1.6958  0.1965
 4064TIP3   OH233682   0.891   6.688   6.086 -0.9729 -0.7482 -0.5813
 4064TIP3    H133683   0.856   6.761   6.036  0.8647  0.4715 -0.1918
 4064TIP3    H233684   0.898   6.720   6.175  2.6508 -0.1720 -0.8851
 4065TIP3   OH233685   2.204   0.338   2.003 -0.0427 -0.2449  0.7848
 4065TIP3    H133686   2.274   0.387   1.960 -0.9217  0.7876  0.4702
 4065TIP3    H233687   2.135   0.403   2.017 -0.9070 -1.2186  1.1605
 4066TIP3   OH233688   4.139   6.480   0.190 -0.0850 -0.4091  0.2359
 4066TIP3    H133689   4.097   6.412   0.242 -0.6044 -0.1197  0.2079
 4066TIP3    H233690   4.121   6.561   0.239 -0.8297 -0.0955 -0.5318
 4067TIP3   OH233691   3.167   4.623  15.173 -0.1535  0.0663 -0.0670
 4067TIP3    H133692   3.103   4.693  15.185 -1.2488 -1.3131  3.6695
 4067TIP3    H233693   3.115   4.546  15.150  0.1150 -0.8365  2.0241
 4068TIP3   OH233694   4.400   4.666  16.024 -0.0943  0.2650 -0.1298
 4068TIP3    H133695   4.437   4.639  16.108  1.4348  1.6757 -0.3222
 4068TIP3    H233696   4.310   4.632  16.027  0.6686 -1.8847  0.9991
 4069TIP3   OH233697   4.935   6.387   0.823  0.0079  0.0454 -0.0614
 4069TIP3    H133698   4.939   6.315   0.886 -0.4449  1.3177  1.4829
 4069TIP3    H233699   5.021   6.389   0.782 -0.4423 -2.3292 -1.3076
 4070TIP3   OH233700   0.190   6.638  16.038  0.4451 -0.0728  0.5513
 4070TIP3    H133701   0.259   6.684  15.990 -0.2584  0.1174 -0.3145
 4070TIP3    H233702   0.116   6.700  16.037 -1.0281 -1.6730 -1.8867
 4071TIP3   OH233703   5.859   3.864  16.795 -0.4468 -0.1564  0.0829
 4071TIP3    H133704   5.827   3.774  16.793 -0.7346 -0.0427 -0.6945
 4071TIP3    H233705   5.781   3.917  16.813 -0.2958 -0.0538  0.4417
 4072TIP3   OH233706   0.534   1.881  16.833 -0.2977 -0.3177  0.1340
 4072TIP3    H133707   0.612   1.826  16.822 -0.5546 -0.5147 -0.7977
 4072TIP3    H233708   0.470   1.845  16.772 -0.0934  1.7021 -1.4092
 4073TIP3   OH233709   6.595   1.714   4.818  0.0154 -0.4238  0.1485
 4073TIP3    H133710   6.567   1.635   4.863  1.3065 -0.6724  0.5365
 4073TIP3    H233711   6.690   1.708   4.813  0.2729  1.6699  1.2591
 4074TIP3   OH233712   0.703   4.977   3.285  0.8062 -0.1647  0.1185
 4074TIP3    H133713   0.720   4.898   3.336 -1.7504 -0.3754  0.7432
 4074TIP3    H233714   0.666   5.039   3.347  1.4874  1.0702 -0.6566
 4075TIP3   OH233715   5.505   3.500  14.589 -0.5567  0.1185  0.0435
 4075TIP3    H133716   5.410   3.486  14.584 -0.4735 -0.0622 -2.2768
 4075TIP3    H233717   5.541   3.412  14.597 -0.5256 -0.1548 -2.2818
 4076TIP3   OH233718   3.665   0.446  10.908 -0.4932  0.1188  0.2642
 4076TIP3    H133719   3.663   0.386  10.833  0.8354 -0.1778  0.4394
 4076TIP3    H233720   3.715   0.521  10.877 -0.1853  0.1237  0.7641
 4077TIP3   OH233721   0.561   5.978  12.733  0.3123 -0.3325 -0.1808
 4077TIP3    H133722   0.481   5.924  12.728  0.4283 -0.4690 -0.6027
 4077TIP3    H233723   0.583   5.979  12.826  0.1130 -0.7291 -0.1263
 4078TIP3   OH233724   1.372   5.612   1.264  0.2704 -1.1404  0.5961
 4078TIP3    H133725   1.279   5.596   1.255  0.0028  0.3874  0.3151
 4078TIP3    H233726   1.414   5.532   1.233 -0.9184 -1.1798 -1.0231
 4079TIP3   OH233727   2.413   2.310  16.640 -0.4184  0.4204 -0.0640
 4079TIP3    H133728   2.490   2.311  16.584  0.4501 -2.9650  0.8347
 4079TIP3    H233729   2.449   2.305  16.729 -1.7140  0.4465  0.4787
 4080TIP3   OH233730   4.622   2.952   4.932 -0.4895 -0.1892  0.0140
 4080TIP3    H133731   4.638   2.923   4.843 -3.6282  0.5848 -0.9419
 4080TIP3    H233732   4.607   3.046   4.925  0.8272  0.2067  1.6717
 4081TIP3   OH233733   2.894   2.678  14.429  0.1637  0.3180 -0.1586
 4081TIP3    H133734   2.837   2.743  14.470 -1.3463 -0.1943 -1.3934
 4081TIP3    H233735   2.900   2.607  14.494  0.8610  1.1229  0.6928
 4082TIP3   OH233736   2.635   5.647   5.609 -0.3676 -0.2847  0.6273
 4082TIP3    H133737   2.651   5.606   5.694  2.0259  0.5309  0.6514
 4082TIP3    H233738   2.677   5.589   5.546 -2.2741 -0.9695 -0.0717
 4083TIP3   OH233739   6.659   4.411   3.331 -0.0871  0.3555  0.7202
 4083TIP3    H133740   6.715   4.412   3.254 -2.5581 -0.7652 -1.2225
 4083TIP3    H233741   6.697   4.477   3.389  1.1795  2.1660 -1.9695
 4084TIP3   OH233742   2.854   5.483   1.289 -0.3567 -0.1911  0.0509
 4084TIP3    H133743   2.760   5.484   1.271 -0.2315 -1.3396 -0.7949
 4084TIP3    H233744   2.868   5.405   1.342  0.1633 -0.2014 -0.0974
 4085TIP3   OH233745   4.854   3.158  15.200  0.2597  0.2752 -0.6924
 4085TIP3    H133746   4.851   3.116  15.114  1.2141 -0.5766 -0.3278
 4085TIP3    H233747   4.942   3.139  15.233  0.1161  1.1147  0.2199
 4086TIP3   OH233748   2.630   3.373  12.323  0.0579 -0.2967  0.3331
 4086TIP3    H133749   2.569   3.440  12.291  1.5427  0.8740 -0.1393
 4086TIP3    H233750   2.607   3.295  12.273 -0.9913  0.1377  0.0995
 4087TIP3   OH233751   1.910   1.939  15.215  0.1764 -0.3479  0.4053
 4087TIP3    H133752   1.822   1.902  15.211  0.9020 -2.0085 -1.0526
 4087TIP3    H233753   1.897   2.027  15.251 -1.9524 -0.8808  1.0851
 4088TIP3   OH233754   1.192   2.507  11.482 -0.0654 -0.1638 -0.3190
 4088TIP3    H133755   1.171   2.500  11.575 -1.0379  0.5626 -0.4721
 4088TIP3    H233756   1.269   2.451  11.471  0.6178  0.4424  1.0910
 4089TIP3   OH233757   1.973   0.951   2.097 -0.2071  0.0490 -0.0161
 4089TIP3    H133758   2.039   0.920   2.160 -0.9941  0.9538  1.3018
 4089TIP3    H233759   2.018   1.020   2.048  0.0888  0.0882  0.3033
 4090TIP3   OH233760   5.185   5.353   4.824 -0.1524  0.0835 -0.3612
 4090TIP3    H133761   5.090   5.357   4.817 -0.1124  0.3581 -0.7940
 4090TIP3    H233762   5.202   5.316   4.911 -0.6524 -0.0173 -0.3076
 4091TIP3   OH233763   2.808   2.378  12.087  0.3715  0.1795  0.3664
 4091TIP3    H133764   2.764   2.395  12.170  0.3927  0.1643  0.3806
 4091TIP3    H233765   2.881   2.441  12.085 -0.1348  0.7736 -0.0314
 4092TIP3   OH233766   4.968   6.439  12.434 -0.4900  0.2623 -0.3615
 4092TIP3    H133767   5.010   6.419  12.518  0.0237  1.0311 -0.4215
 4092TIP3    H233768   5.033   6.491  12.387  0.1376 -1.9630 -2.1609
 4093TIP3   OH233769   2.387   4.043  11.115  0.0822 -0.2625  0.5455
 4093TIP3    H133770   2.363   4.045  11.022  0.3738  0.2043  0.4767
 4093TIP3    H233771   2.304   4.029  11.160  0.0302 -1.1994  0.1879
 4094TIP3   OH233772   0.164   0.062  11.492  0.3207  0.1399 -0.1837
 4094TIP3    H133773   0.249   0.017  11.491 -0.3946 -1.2548 -1.3352
 4094TIP3    H233774   0.127   0.046  11.406  0.1281  3.2620 -0.7880
 4095TIP3   OH233775   2.057   0.762  14.889  0.4826 -0.3183  0.2694
 4095TIP3    H133776   2.003   0.683  14.888 -1.4482  0.9377  0.8671
 4095TIP3    H233777   2.035   0.807  14.807  2.1557 -0.7169 -0.4460
 4096TIP3   OH233778   6.828   5.140   5.577  0.0171 -0.9600  0.3651
 4096TIP3    H133779   6.918   5.162   5.600 -0.6483  0.3815  1.9013
 4096TIP3    H233780   6.816   5.051   5.610  0.6841 -1.0077  0.4901
 4097TIP3   OH233781   6.037   2.117   4.091  0.0336  0.4087 -0.3152
 4097TIP3    H133782   6.094   2.099   4.166 -0.9136 -0.0134  0.3175
 4097TIP3    H233783   6.002   2.204   4.109 -0.6324  0.0782  0.0337
 4098TIP3   OH233784   1.206   5.772   3.605 -0.6832  0.3521  0.0138
 4098TIP3    H133785   1.189   5.866   3.615 -2.6174  0.2718 -1.8691
 4098TIP3    H233786   1.174   5.751   3.518 -0.0928 -2.0480  0.3153
 4099TIP3   OH233787   0.830   1.089  11.830 -0.0389  0.1625 -0.0999
 4099TIP3    H133788   0.785   1.082  11.914  0.0492  1.8605  0.1211
 4099TIP3    H233789   0.908   1.035  11.840 -0.2125  0.0696  0.7967
 4100TIP3   OH233790   4.324   1.649  15.288 -0.8123 -0.8861  0.5325
 4100TIP3    H133791   4.270   1.719  15.250  1.6485  0.3692 -0.8989
 4100TIP3    H233792   4.263   1.576  15.301 -2.7394  0.2245 -1.5451
 4101TIP3   OH233793   6.379   4.619   3.168  0.0616  0.0493 -0.2361
 4101TIP3    H133794   6.382   4.605   3.263 -1.6557  1.4320  0.0712
 4101TIP3    H233795   6.465   4.655   3.146  1.3467 -2.4404  0.3522
 4102TIP3   OH233796   6.592   6.574   1.904 -0.2843  0.0286  0.1798
 4102TIP3    H133797   6.549   6.525   1.834 -2.1627  0.3036  1.0901
 4102TIP3    H233798   6.552   6.661   1.900  0.4568  0.4106  0.8469
 4103TIP3   OH233799   1.781   2.740  16.930  0.4901  0.2632  0.3251
 4103TIP3    H133800   1.773   2.656  16.884 -0.8409  0.4635  0.1397
 4103TIP3    H233801   1.845   2.789  16.879 -2.7421  1.4566 -3.0132
 4104TIP3   OH233802   3.759   1.522   4.609 -0.2800  0.5986  0.0455
 4104TIP3    H133803   3.778   1.429   4.609 -0.6408  0.4761 -2.0807
 4104TIP3    H233804   3.768   1.549   4.518 -0.7722  2.5223  0.5088
 4105TIP3   OH233805   1.806   1.927   3.612 -0.4234  0.1497 -0.1158
 4105TIP3    H133806   1.822   1.833   3.609 -0.5790  0.1338 -0.4733
 4105TIP3    H233807   1.780   1.944   3.702 -1.8299 -0.3825 -0.4064
 4106TIP3   OH233808   1.420   1.747   2.335 -0.2453  0.2881 -0.4110
 4106TIP3    H133809   1.382   1.685   2.397 -0.9955  0.4830 -0.6733
 4106TIP3    H233810   1.480   1.695   2.282 -0.6191 -0.1469 -0.4104
 4107TIP3   OH233811   0.180   6.391   2.227 -0.5923 -0.1577  0.0880
 4107TIP3    H133812   0.272   6.388   2.252 -0.6778 -0.8058  0.3242
 4107TIP3    H233813   0.153   6.300   2.219 -0.9242  0.0261 -1.0757
 4108TIP3   OH233814   5.634   6.124   4.483  0.1607 -0.4638  0.6766
 4108TIP3    H133815   5.625   6.219   4.471  1.1871 -0.1328  2.2198
 4108TIP3    H233816   5.685   6.115   4.564  1.4123 -2.3096 -0.2556
 4109TIP3   OH233817   6.154   3.236   2.247 -0.0169 -0.5391  0.0329
 4109TIP3    H133818   6.233   3.182   2.241 -0.4101 -0.9926 -1.4542
 4109TIP3    H233819   6.101   3.210   2.171 -0.7981  1.0357  0.0004
 4110TIP3   OH233820   3.489   0.083  16.484 -0.3895  0.2376  0.0346
 4110TIP3    H133821   3.404   0.114  16.513 -0.1591  0.6519  0.2772
 4110TIP3    H233822   3.535   0.060  16.564  0.5143  2.0712  0.1052
 4111TIP3   OH233823   4.932   5.583   3.223 -0.3251 -0.3525 -0.3167
 4111TIP3    H133824   4.980   5.552   3.300 -1.3941 -0.6582  0.2475
 4111TIP3    H233825   4.975   5.666   3.199  0.4436 -0.5995  0.1924
 4112TIP3   OH233826   2.986   5.367  12.519 -0.1758  0.3443 -0.0265
 4112TIP3    H133827   3.027   5.431  12.577 -1.7805  1.1591  0.2880
 4112TIP3    H233828   2.965   5.293  12.577  0.9890 -0.1718 -0.2342
 4113TIP3   OH233829   1.242   1.937  16.544  0.6049 -0.3550  0.0642
 4113TIP3    H133830   1.238   1.867  16.480  1.3104 -0.6397  0.3144
 4113TIP3    H233831   1.151   1.966  16.555  0.2997 -1.2809  0.0215
 4114TIP3   OH233832   3.185   6.067   3.203 -0.4940  0.8043 -0.3551
 4114TIP3    H133833   3.171   6.154   3.163  0.3032  0.0787 -2.3615
 4114TIP3    H233834   3.214   6.012   3.130 -1.4424 -1.3014  0.7608
 4115TIP3   OH233835   2.302   6.704  15.198  0.2216 -0.0501  0.4648
 4115TIP3    H133836   2.346   6.631  15.241  3.6129  1.8504  0.5337
 4115TIP3    H233837   2.350   6.782  15.226 -1.4687  1.9534 -1.7402
 4116TIP3   OH233838   4.172   6.011  14.690  0.4459  0.3339  0.0246
 4116TIP3    H133839   4.253   5.964  14.711  0.8567  2.2122  3.3847
 4116TIP3    H233840   4.195   6.068  14.618  1.3761 -0.8640 -0.6699
 4117TIP3   OH233841   5.900   0.469  10.743 -0.3147 -0.0723 -0.5418
 4117TIP3    H133842   5.961   0.513  10.685  0.3193 -0.5427 -0.2455
 4117TIP3    H233843   5.853   0.540  10.787  1.4895  0.3711  0.7825
 4118TIP3   OH233844   1.157   1.173   0.702 -0.3652 -0.0629 -0.4750
 4118TIP3    H133845   1.110   1.186   0.620 -0.1640 -1.0888 -0.7654
 4118TIP3    H233846   1.091   1.137   0.762 -0.5407  0.7896 -0.1377
 4119TIP3   OH233847   1.112   4.592   2.909  0.5646  0.2079 -0.2542
 4119TIP3    H133848   1.189   4.639   2.942 -0.4814  2.1369 -0.4245
 4119TIP3    H233849   1.073   4.652   2.846 -2.7066  0.6139  1.9197
 4120TIP3   OH233850   4.090   5.813   4.983 -0.3877 -0.2148 -0.3019
 4120TIP3    H133851   4.015   5.789   4.929 -0.6556 -0.1376  0.0290
 4120TIP3    H233852   4.067   5.783   5.071 -0.5993  0.9766  0.0655
 4121TIP3   OH233853   6.117   3.244   3.479 -0.1929 -0.0859  0.6870
 4121TIP3    H133854   6.029   3.274   3.456 -0.6566 -0.9637  1.2737
 4121TIP3    H233855   6.134   3.283   3.565 -0.9334 -1.6967  1.6090
 4122TIP3   OH233856   5.320   5.432   3.281  0.2437  0.3409  0.3925
 4122TIP3    H133857   5.318   5.460   3.373  0.0982  0.8730  0.2284
 4122TIP3    H233858   5.396   5.477   3.245 -1.6342  2.9310 -0.6235
 4123TIP3   OH233859   0.219   1.671   1.378  0.5342  0.2749  0.2610
 4123TIP3    H133860   0.310   1.654   1.402  0.2249 -1.4553  0.3521
 4123TIP3    H233861   0.170   1.598   1.416 -0.7128  0.4534 -0.9235
 4124TIP3   OH233862   5.001   6.188  14.936  0.1978 -0.0073  0.8501
 4124TIP3    H133863   5.028   6.132  15.009 -0.9207 -1.4355  0.2167
 4124TIP3    H233864   5.068   6.174  14.869 -0.2892 -0.9320  0.5420
 4125TIP3   OH233865   3.555   6.664   0.898  0.2988 -0.6973  1.3200
 4125TIP3    H133866   3.636   6.697   0.937  2.0805 -0.9018 -1.9323
 4125TIP3    H233867   3.565   6.569   0.897 -0.6934 -0.8370  2.1929
 4126TIP3   OH233868   2.748   3.828   5.784  0.2332 -0.4711 -0.0272
 4126TIP3    H133869   2.701   3.779   5.717  1.0254 -0.1825 -0.8057
 4126TIP3    H233870   2.713   3.917   5.778 -1.9496 -1.0798  2.0740
 4127TIP3   OH233871   5.813   4.209  11.758  0.0562 -0.5182  0.0905
 4127TIP3    H133872   5.776   4.150  11.824  0.2875 -0.5295  0.2106
 4127TIP3    H233873   5.751   4.282  11.753  1.7277  1.2413  2.8565
 4128TIP3   OH233874   6.827   3.712  16.152 -0.0071 -0.1092 -0.6787
 4128TIP3    H133875   6.762   3.659  16.105 -0.9719  0.8233 -0.4403
 4128TIP3    H233876   6.860   3.773  16.086  0.7872 -0.7105 -0.8471
 4129TIP3   OH233877   0.711   5.374  15.049 -0.0075 -0.3952  0.1994
 4129TIP3    H133878   0.747   5.419  15.126  1.2799  1.4046 -1.3535
 4129TIP3    H233879   0.771   5.302  15.033 -0.0837 -0.5670  0.6694
 4130TIP3   OH233880   3.253   2.140  16.378 -0.1764  0.5356  0.4134
 4130TIP3    H133881   3.190   2.163  16.310 -0.7126  0.7963  0.9790
 4130TIP3    H233882   3.211   2.169  16.459 -0.8037 -2.1707  1.1770
 4131TIP3   OH233883   0.940   6.019  16.175  0.0031 -0.4611  0.5230
 4131TIP3    H133884   1.009   6.030  16.239 -0.2013  0.9024  0.5380
 4131TIP3    H233885   0.860   6.047  16.220  0.1280  2.3696 -0.8509
 4132TIP3   OH233886   6.613   4.016  16.307 -0.5304 -0.1971  0.4511
 4132TIP3    H133887   6.571   4.060  16.232  0.4421  1.0906  0.6266
 4132TIP3    H233888   6.540   3.986  16.361 -1.2346 -0.0148 -0.3689
 4133TIP3   OH233889   4.719   3.579   2.695  0.1738 -0.3026  0.5417
 4133TIP3    H133890   4.642   3.579   2.638  0.6730  1.2459 -0.1973
 4133TIP3    H233891   4.729   3.488   2.723 -1.6264 -0.6137  0.2562
 4134TIP3   OH233892   6.611   1.124   1.449 -0.2332 -0.0685 -0.1852
 4134TIP3    H133893   6.570   1.117   1.536  0.4317 -0.0020  0.1350
 4134TIP3    H233894   6.637   1.215   1.442  0.1834 -0.1924 -0.2439
 4135TIP3   OH233895   2.955   1.642   3.566  0.2441  0.0596 -0.1760
 4135TIP3    H133896   3.038   1.635   3.614  0.6133  0.6441 -0.7083
 4135TIP3    H233897   2.889   1.653   3.634  0.3986 -1.8588  0.3474
 4136TIP3   OH233898   1.846   3.791  12.683  0.3461 -0.6959  0.2915
 4136TIP3    H133899   1.768   3.750  12.647 -1.0542 -0.6929  3.0509
 4136TIP3    H233900   1.850   3.877  12.640 -0.7510 -0.9706 -0.3926
 4137TIP3   OH233901   3.952   0.758   0.206  0.3124 -0.7096  0.1076
 4137TIP3    H133902   3.955   0.711   0.122 -1.6680  1.3841 -1.2290
 4137TIP3    H233903   3.973   0.848   0.183 -1.6805  0.1873  1.6215
 4138TIP3   OH233904   0.341   0.027   1.903  0.0579 -0.0519 -0.1968
 4138TIP3    H133905   0.261  -0.005   1.945  1.4963  0.0004  2.8939
 4138TIP3    H233906   0.328   0.122   1.898  0.0335 -0.0049  0.6131
 4139TIP3   OH233907   4.927   0.240   2.670 -0.4479 -0.1248  0.0450
 4139TIP3    H133908   4.993   0.254   2.602  0.2168 -0.9208  0.4975
 4139TIP3    H233909   4.956   0.160   2.714 -1.3563 -0.1089  0.6914
 4140TIP3   OH233910   5.496   2.997  12.220 -0.2666  0.3220 -0.3870
 4140TIP3    H133911   5.547   3.073  12.191  0.8820 -0.1534  0.3115
 4140TIP3    H233912   5.481   3.012  12.313  0.3457 -0.4909 -0.1403
 4141TIP3   OH233913   6.265   5.240  15.339  0.8638 -0.6079 -0.5137
 4141TIP3    H133914   6.247   5.195  15.422 -0.7355 -1.5570 -1.3106
 4141TIP3    H233915   6.191   5.300  15.329  0.7993 -0.8319 -1.4402
 4142TIP3   OH233916   6.494   3.402  16.606 -0.0202  0.1133  0.0593
 4142TIP3    H133917   6.424   3.397  16.671 -0.5493 -2.3130 -0.5569
 4142TIP3    H233918   6.510   3.495  16.594 -2.8435  0.7580  0.5650
 4143TIP3   OH233919   1.105   2.523   0.043  0.0562 -0.1635  0.1948
 4143TIP3    H133920   1.151   2.606   0.053  0.1747 -0.2987  0.8168
 4143TIP3    H233921   1.148   2.480  -0.031  0.7575 -0.1768  0.6077
 4144TIP3   OH233922   3.746   5.436  12.810  0.5530 -0.4687  0.0813
 4144TIP3    H133923   3.828   5.389  12.793 -0.0878 -0.8090 -2.4098
 4144TIP3    H233924   3.728   5.482  12.728 -1.4936  0.0041  0.7618
 4145TIP3   OH233925   4.691   2.904  12.805 -0.0089 -0.1972  0.1652
 4145TIP3    H133926   4.657   2.823  12.766 -0.7123 -0.6541  1.6727
 4145TIP3    H233927   4.668   2.898  12.897  1.3058  1.0218  0.6110
 4146TIP3   OH233928   5.376   6.262   0.988 -0.0725  0.1043  0.7278
 4146TIP3    H133929   5.444   6.198   0.968  0.6723  1.0421  0.1658
 4146TIP3    H233930   5.424   6.342   1.012 -0.9761  0.6034  0.9239
 4147TIP3   OH233931   2.443   6.221  15.063  0.1984  0.3110  0.0901
 4147TIP3    H133932   2.462   6.188  15.151  0.4091 -0.7063 -0.3212
 4147TIP3    H233933   2.349   6.204  15.051  0.1675  0.4592  0.1170
 4148TIP3   OH233934   6.067   5.768  16.692  0.1598 -0.1056 -0.1954
 4148TIP3    H133935   5.977   5.736  16.677  0.0599 -2.0062  3.4017
 4148TIP3    H233936   6.055   5.857  16.724 -0.3850 -0.0721 -0.4673
 4149TIP3   OH233937   6.067   5.307   1.915 -0.2347 -0.1423 -0.3791
 4149TIP3    H133938   6.028   5.374   1.971  0.9260  0.6602 -0.4917
 4149TIP3    H233939   6.003   5.236   1.915  0.5035 -1.0803  3.6031
 4150TIP3   OH233940   3.553   0.038  15.700  0.3631  0.3343  0.3647
 4150TIP3    H133941   3.576  -0.054  15.714  0.2120  0.2401  0.0021
 4150TIP3    H233942   3.634   0.079  15.672  0.3647  0.2520  0.2487
 4151TIP3   OH233943   2.293   3.680  16.376 -0.1416 -0.4711  0.4732
 4151TIP3    H133944   2.344   3.675  16.458  1.2659  3.8616  0.1394
 4151TIP3    H233945   2.202   3.672  16.404  0.4102 -2.2895  1.9532
 4152TIP3   OH233946   2.141   2.305  12.823  0.2298  0.5891 -0.4261
 4152TIP3    H133947   2.155   2.318  12.730  0.9366  0.7527 -0.2993
 4152TIP3    H233948   2.128   2.210  12.832  0.3911  0.5445 -0.6616
 4153TIP3   OH233949   5.452   0.542   5.804  0.2694 -0.4917  0.1587
 4153TIP3    H133950   5.387   0.605   5.834  0.0766 -0.9687  0.7702
 4153TIP3    H233951   5.524   0.595   5.771 -0.6298  0.0476 -1.0040
 4154TIP3   OH233952   4.713   3.263   4.344  0.8202  0.0901  0.2841
 4154TIP3    H133953   4.732   3.205   4.269 -0.1839 -1.0444  0.8706
 4154TIP3    H233954   4.618   3.271   4.344  0.7176 -0.7359  2.0072
 4155TIP3   OH233955   1.540   1.472   5.746  0.7974 -0.5446 -0.2148
 4155TIP3    H133956   1.488   1.547   5.715  1.1623 -0.3642 -0.4053
 4155TIP3    H233957   1.534   1.476   5.841 -1.6196 -2.0083 -0.2468
 4156TIP3   OH233958   4.118   3.740  11.777  0.3992 -0.1024 -0.5715
 4156TIP3    H133959   4.210   3.751  11.754  0.0834  0.2191 -1.7375
 4156TIP3    H233960   4.117   3.668  11.840  1.6619  1.2143  1.0395
 4157TIP3   OH233961   0.123   4.554  16.607 -0.0225  0.1777 -0.2764
 4157TIP3    H133962   0.162   4.469  16.628  0.4687 -0.4227 -3.1491
 4157TIP3    H233963   0.056   4.533  16.542 -2.9205  1.5906  2.0189
 4158TIP3   OH233964   4.992   1.654   4.562 -0.0185 -0.2284  0.4433
 4158TIP3    H133965   4.910   1.611   4.586 -0.1709  0.7164  1.7359
 4158TIP3    H233966   5.055   1.582   4.555 -0.3846 -0.7568  2.0495
 4159TIP3   OH233967   3.982   3.812   2.060  0.2783  0.1368 -0.7087
 4159TIP3    H133968   4.074   3.790   2.074  0.1417  0.9855  2.5101
 4159TIP3    H233969   3.981   3.907   2.054 -0.4990  0.3396  1.5819
 4160TIP3   OH233970   2.803   5.988  12.739 -0.5451  0.2315  0.3162
 4160TIP3    H133971   2.830   5.945  12.820 -0.5816  0.4084  0.4221
 4160TIP3    H233972   2.761   6.069  12.767 -0.7264  0.2038  0.1297
 4161TIP3   OH233973   1.652   5.579   2.416  0.4415  0.2496 -0.8249
 4161TIP3    H133974   1.603   5.570   2.335  0.2263 -0.0642 -0.6585
 4161TIP3    H233975   1.744   5.571   2.389  0.3495 -0.4293 -0.9612
 4162TIP3   OH233976   2.912   6.410  14.822  0.1525  0.1940  0.2951
 4162TIP3    H133977   2.897   6.504  14.829 -0.6413 -0.0073  1.6105
 4162TIP3    H233978   2.898   6.376  14.911  1.7384 -0.9967  0.1486
 4163TIP3   OH233979   5.973   0.223  10.821  0.0348  0.8736  0.3682
 4163TIP3    H133980   5.915   0.167  10.768 -0.3182  1.2232  0.3786
 4163TIP3    H233981   5.945   0.312  10.800  0.5347  1.0436  0.4217
 4164TIP3   OH233982   5.357   6.642   0.730 -0.3440  0.5699 -0.0051
 4164TIP3    H133983   5.306   6.581   0.783  0.1575 -0.1504 -0.3361
 4164TIP3    H233984   5.416   6.586   0.680 -0.4617  1.2762 -0.9495
 4165TIP3   OH233985   3.493   2.282  17.014 -0.7303 -0.6572 -0.9630
 4165TIP3    H133986   3.536   2.255  17.095  0.1340  0.7186 -0.9297
 4165TIP3    H233987   3.525   2.221  16.948 -1.0171 -1.4477 -0.3851
 4166TIP3   OH233988   0.569   4.719  14.891 -0.4946 -0.2904 -0.1017
 4166TIP3    H133989   0.636   4.780  14.921 -0.9337  0.1351  0.0390
 4166TIP3    H233990   0.609   4.672  14.818 -0.4157  0.7265 -0.7260
 4167TIP3   OH233991   2.892   5.101   5.152  0.5008  0.4030  0.2812
 4167TIP3    H133992   2.941   5.125   5.073  1.8868  1.9182  1.5175
 4167TIP3    H233993   2.909   5.173   5.213 -0.1558 -0.9211  2.1091
 4168TIP3   OH233994   0.045   3.147  17.120  0.0776 -0.3300  0.0267
 4168TIP3    H133995  -0.037   3.122  17.077  1.1692 -1.3404 -1.5823
 4168TIP3    H233996   0.097   3.067  17.121  1.4379  0.5214  0.0972
 4169TIP3   OH233997   4.778   0.535  13.927  0.1582  0.3218 -0.5746
 4169TIP3    H133998   4.794   0.536  14.022  1.2460  0.2028 -0.7369
 4169TIP3    H233999   4.723   0.458  13.913  0.8645 -0.2848 -0.1463
 4170TIP3   OH234000   0.906   4.115  14.943 -0.1846  0.0709 -0.2404
 4170TIP3    H134001   0.896   4.209  14.925  1.4655  0.9034  2.5478
 4170TIP3    H234002   0.997   4.096  14.923 -0.1534 -0.5827  0.4817
 4171TIP3   OH234003   1.748   5.885  13.858 -0.7141  0.8366 -0.3914
 4171TIP3    H134004   1.762   5.959  13.917  1.3037 -0.8403  1.4030
 4171TIP3    H234005   1.723   5.813  13.916  3.0685 -1.3657 -1.1620
 4172TIP3   OH234006   3.891   1.908  11.846 -0.1979 -0.4423  0.0956
 4172TIP3    H134007   3.856   1.906  11.935  0.5568  0.3659  0.4246
 4172TIP3    H234008   3.967   1.849  11.849 -0.0719 -0.2834  0.0305
 4173TIP3   OH234009   2.943   3.620   5.292 -0.0765  0.3751 -0.1450
 4173TIP3    H134010   3.004   3.600   5.363 -0.2113  1.5006  0.3139
 4173TIP3    H234011   2.895   3.697   5.323  0.3702  1.3535 -1.7487
 4174TIP3   OH234012   0.664   2.539   2.654  0.3909 -0.2235 -0.1672
 4174TIP3    H134013   0.599   2.596   2.613 -0.2762 -0.7005  0.2052
 4174TIP3    H234014   0.745   2.555   2.605  0.0092  0.4242 -0.5956
 4175TIP3   OH234015   1.118   2.350  12.970 -0.4255  0.4869 -0.2407
 4175TIP3    H134016   1.211   2.357  12.947 -1.2064  1.5004 -3.6270
 4175TIP3    H234017   1.111   2.269  13.020  2.1783  0.0361 -0.4844
 4176TIP3   OH234018   6.219   1.639   2.265  0.3884  0.4081 -0.0612
 4176TIP3    H134019   6.228   1.585   2.343  0.2762  0.2599 -0.1504
 4176TIP3    H234020   6.209   1.728   2.299  0.9530  0.4225  0.0721
 4177TIP3   OH234021   3.738   0.413  14.343 -0.0605 -0.2093 -0.3972
 4177TIP3    H134022   3.776   0.497  14.319 -1.6755  0.6986  0.0323
 4177TIP3    H234023   3.748   0.358  14.266 -0.8444  1.0823 -1.4591
 4178TIP3   OH234024   2.548   2.542  13.571 -0.4662 -0.5637  0.4408
 4178TIP3    H134025   2.580   2.549  13.661 -1.9757 -2.8921  1.2489
 4178TIP3    H234026   2.465   2.590  13.571 -0.3764 -0.4041  0.2217
 4179TIP3   OH234027   1.654   5.553  16.267  0.1059 -0.2024 -0.0757
 4179TIP3    H134028   1.644   5.458  16.273  0.7817 -0.4051 -1.6205
 4179TIP3    H234029   1.748   5.567  16.254 -0.1747  0.5458 -1.5474
 4180TIP3   OH234030   2.262   4.366   4.436  0.0890  0.5410 -0.1567
 4180TIP3    H134031   2.217   4.405   4.511 -1.4008 -1.4598  0.0558
 4180TIP3    H234032   2.221   4.407   4.360 -0.5782  0.2966  0.0718
 4181TIP3   OH234033   0.780   2.872  12.169  0.1436 -0.1994  0.1981
 4181TIP3    H134034   0.788   2.930  12.245  1.6188 -0.1558  0.0499
 4181TIP3    H234035   0.775   2.931  12.094  0.0378 -0.2450  0.1698
 4182TIP3   OH234036   3.229   6.749  15.068 -0.4071 -0.2748  0.4451
 4182TIP3    H134037   3.210   6.839  15.041 -1.2045 -0.6107 -0.1488
 4182TIP3    H234038   3.204   6.747  15.161  0.0466  0.2348  0.5851
 4183TIP3   OH234039   5.897   5.430   5.940 -0.9137 -0.2152 -0.0352
 4183TIP3    H134040   5.803   5.419   5.930 -0.8044 -1.6648  0.1637
 4183TIP3    H234041   5.909   5.452   6.033 -1.0141 -1.0496  0.1890
 4184TIP3   OH234042   6.274   2.916   3.469  0.2140  0.5473 -0.1079
 4184TIP3    H134043   6.256   2.946   3.380  0.5763 -0.9083 -0.7040
 4184TIP3    H234044   6.280   2.821   3.461 -1.8435  0.1728  1.8549
 4185TIP3   OH234045   2.269   0.869  14.604  0.1233 -0.1864 -0.1794
 4185TIP3    H134046   2.281   0.807  14.676 -1.2590 -0.3387 -0.0581
 4185TIP3    H234047   2.357   0.884  14.570  0.6245 -1.2053  0.6360
 4186TIP3   OH234048   4.468   3.802   1.011 -0.1603  0.4439  0.2489
 4186TIP3    H134049   4.502   3.859   1.080 -0.4162  0.9463 -0.0342
 4186TIP3    H234050   4.374   3.798   1.027 -0.4988  1.9676 -1.0611
 4187TIP3   OH234051   1.288   6.262   1.439  0.4743 -0.0254 -0.5098
 4187TIP3    H134052   1.320   6.329   1.379  1.5468 -1.3163 -1.4613
 4187TIP3    H234053   1.366   6.209   1.459 -0.1298 -0.3946  1.0077
 4188TIP3   OH234054   6.529   3.117   4.655  0.3236 -0.4381 -0.3931
 4188TIP3    H134055   6.496   3.074   4.577 -0.0855  0.2335 -0.5977
 4188TIP3    H234056   6.462   3.101   4.722  0.5726 -0.8332 -0.2369
 4189TIP3   OH234057   5.426   5.081  13.042 -0.1550 -0.4316 -0.4168
 4189TIP3    H134058   5.384   5.050  12.961 -2.5467 -2.7399  1.5133
 4189TIP3    H234059   5.497   5.018  13.057  0.1299 -0.1505 -0.5799
 4190TIP3   OH234060   5.838   4.155  12.956  0.2144 -0.1030 -0.6169
 4190TIP3    H134061   5.781   4.218  12.914  0.4518  0.5449  0.0069
 4190TIP3    H234062   5.781   4.107  13.016  0.0419 -0.4652 -1.0644
 4191TIP3   OH234063   1.179   1.257  16.590 -0.2826  0.7262  0.2910
 4191TIP3    H134064   1.261   1.234  16.634  0.6057 -1.0326 -2.0504
 4191TIP3    H234065   1.188   1.349  16.569  0.3627  0.9546  1.4509
 4192TIP3   OH234066   4.753   6.406  15.507 -0.2066  0.4127  0.1334
 4192TIP3    H134067   4.809   6.347  15.556  0.6585  1.1729  0.0983
 4192TIP3    H234068   4.686   6.433  15.569  0.3163  0.6091  0.6282
 4193TIP3   OH234069   2.806   6.149  16.341 -0.1541 -0.3320  0.1483
 4193TIP3    H134070   2.817   6.076  16.403 -2.2087  0.3703  1.4656
 4193TIP3    H234071   2.820   6.227  16.394  0.9424  0.2772 -1.0054
 4194TIP3   OH234072   3.307   6.711   6.272  0.9401 -0.4475  0.0585
 4194TIP3    H134073   3.384   6.689   6.220  1.7810 -2.2840  1.9099
 4194TIP3    H234074   3.313   6.653   6.348 -1.2778  0.6979  1.1954
 4195TIP3   OH234075   2.448   5.994   4.585  0.0355 -0.4716  0.2805
 4195TIP3    H134076   2.431   6.031   4.498  0.9529 -1.3340 -0.2919
 4195TIP3    H234077   2.393   6.046   4.644 -0.8822 -0.0924 -0.8508
 4196TIP3   OH234078   6.120   6.294   0.615 -0.0669 -0.0953 -0.0584
 4196TIP3    H134079   6.173   6.349   0.673 -0.3568  1.7621 -1.4636
 4196TIP3    H234080   6.053   6.257   0.673  1.2335 -0.5065  1.2677
 4197TIP3   OH234081   3.750   3.338  12.812  0.5048  0.1788 -0.8163
 4197TIP3    H134082   3.713   3.307  12.895 -2.4957 -0.3531 -2.2148
 4197TIP3    H234083   3.760   3.259  12.759  0.6059  0.7015 -1.5989
 4198TIP3   OH234084   4.137   4.493  15.427 -0.9483  0.4869  0.1763
 4198TIP3    H134085   4.098   4.522  15.344 -0.5221 -1.3621 -0.7265
 4198TIP3    H234086   4.077   4.424  15.458  0.5327 -1.0693 -0.2745
 4199TIP3   OH234087   1.039   5.308   1.073 -0.8163  0.4987  0.1971
 4199TIP3    H134088   1.045   5.359   0.992 -1.9228  1.9939  0.9956
 4199TIP3    H234089   1.016   5.220   1.044  0.3190  0.6240 -1.1958
 4200TIP3   OH234090   4.729   1.696  11.833  0.2993 -0.6545 -0.4397
 4200TIP3    H134091   4.822   1.676  11.825  0.0650 -2.5681  0.8391
 4200TIP3    H234092   4.687   1.611  11.845 -1.7335  0.0775 -1.7695
 4201TIP3   OH234093   5.873   3.133  12.484  0.8780  0.6065 -0.6059
 4201TIP3    H134094   5.783   3.166  12.493 -0.6797 -3.0712 -0.9486
 4201TIP3    H234095   5.905   3.129  12.574 -0.6843 -1.2469 -0.0556
 4202TIP3   OH234096   5.751   5.759   0.539  0.4798 -0.7627  0.2439
 4202TIP3    H134097   5.782   5.705   0.466 -1.7468  0.9201 -2.1374
 4202TIP3    H234098   5.756   5.849   0.506  0.4092  0.1780  2.6270
 4203TIP3   OH234099   2.240   3.898  12.434 -0.0518 -0.5776 -0.2972
 4203TIP3    H134100   2.327   3.863  12.451 -0.0469 -0.1244  0.6730
 4203TIP3    H234101   2.180   3.831  12.467 -0.0544 -0.2549  0.3589
 4204TIP3   OH234102   5.156   1.877  15.314 -0.0814  0.3859  1.1685
 4204TIP3    H134103   5.238   1.829  15.300  0.6830  2.1434 -1.0317
 4204TIP3    H234104   5.184   1.960  15.352 -0.9492  0.6537  1.2401
 4205TIP3   OH234105   5.929   0.257   5.759 -0.0691 -0.3483 -0.1202
 4205TIP3    H134106   5.951   0.165   5.745 -0.1699 -0.2298 -1.1264
 4205TIP3    H234107   5.918   0.293   5.671  1.6254  1.0474  0.1815
 4206TIP3   OH234108   4.237   6.072  15.225 -0.3958  0.0985  0.2305
 4206TIP3    H134109   4.267   6.146  15.173  0.8591 -0.3211  0.3235
 4206TIP3    H234110   4.183   6.112  15.294  0.4049  0.9555  0.3834
 4207TIP3   OH234111   2.666   2.116  13.694 -0.6327 -0.2417  0.7397
 4207TIP3    H134112   2.760   2.136  13.688 -0.8912  0.7684 -0.2919
 4207TIP3    H234113   2.661   2.041  13.752  0.6580  0.9210  2.4520
 4208TIP3   OH234114   6.182   4.109   3.982 -0.1069  0.0158 -0.0000
 4208TIP3    H134115   6.210   4.051   4.052 -1.5985 -0.3858  0.3023
 4208TIP3    H234116   6.252   4.105   3.917  1.7655  1.1445  1.8483
 4209TIP3   OH234117   1.857   5.917   5.056 -0.3668  0.4129  0.4776
 4209TIP3    H134118   1.924   5.943   5.120 -1.2295 -1.6034  2.3123
 4209TIP3    H234119   1.774   5.935   5.100 -1.0118  0.2771 -0.6580
 4210TIP3   OH234120   2.503   1.187   0.400 -0.3081  0.0721 -0.6271
 4210TIP3    H134121   2.452   1.199   0.481  0.2010 -0.7822 -0.1653
 4210TIP3    H234122   2.553   1.107   0.415  0.7927  0.6179 -1.2742
 4211TIP3   OH234123   0.853   5.002   4.195  0.2115 -0.4651 -0.2834
 4211TIP3    H134124   0.771   4.972   4.155 -0.5949 -0.2425  1.1422
 4211TIP3    H234125   0.868   5.088   4.157 -0.4307 -0.3485 -0.2950
 4212TIP3   OH234126   2.768   3.832   4.499 -0.0425 -0.4497 -0.3914
 4212TIP3    H134127   2.760   3.736   4.505  1.9199 -0.6411 -0.3801
 4212TIP3    H234128   2.818   3.857   4.576 -0.9267  0.6730 -0.1493
 4213TIP3   OH234129   2.923   3.522  10.876 -0.3018  0.5694  0.2589
 4213TIP3    H134130   2.847   3.464  10.871 -0.5889  0.8433  1.2417
 4213TIP3    H234131   2.994   3.472  10.837 -0.9609  0.2685 -0.5872
 4214TIP3   OH234132   6.788   4.422   6.378 -0.0051 -0.1345 -0.3772
 4214TIP3    H134133   6.864   4.365   6.363  1.3288  2.0189 -2.5075
 4214TIP3    H234134   6.808   4.467   6.460  2.0320  1.7177 -1.7782
 4215TIP3   OH234135   0.144   1.989   5.139 -0.6994 -0.6026 -0.6657
 4215TIP3    H134136   0.190   1.994   5.223 -0.3329  0.6233 -0.9219
 4215TIP3    H234137   0.052   1.976   5.164 -0.3003 -2.9904 -0.1499
 4216TIP3   OH234138   2.941   5.163   0.842  0.2729 -0.0391  0.4741
 4216TIP3    H134139   2.872   5.207   0.893  0.4460  1.1290 -0.2611
 4216TIP3    H234140   2.897   5.088   0.804 -1.4833  2.1928 -2.2976
 4217TIP3   OH234141   1.286   4.960  12.201  0.2841 -0.2661 -0.5676
 4217TIP3    H134142   1.318   4.880  12.158 -0.5832 -1.1059  0.3209
 4217TIP3    H234143   1.195   4.967  12.172  0.2150  0.1296 -0.2447
 4218TIP3   OH234144   4.681   2.286  13.510 -0.0818 -0.2926 -0.0204
 4218TIP3    H134145   4.595   2.327  13.500 -1.7671 -3.4884 -0.0426
 4218TIP3    H234146   4.669   2.223  13.581  0.8452 -3.9444 -2.8360
 4219TIP3   OH234147   4.082   4.769   3.879  0.7898  0.0155 -0.8080
 4219TIP3    H134148   4.159   4.770   3.935  2.2336 -1.5807 -2.6208
 4219TIP3    H234149   4.084   4.855   3.835  1.4905  0.0349 -0.7601
 4220TIP3   OH234150   3.156   3.030  16.555 -0.4277 -0.4117 -0.1139
 4220TIP3    H134151   3.168   2.940  16.584  0.9773 -0.1531  0.1798
 4220TIP3    H234152   3.194   3.033  16.467  4.1700  0.9105  1.6246
 4221TIP3   OH234153   3.895   2.264  13.809  0.1726  0.0589  0.2178
 4221TIP3    H134154   3.918   2.171  13.811  1.9082  0.4001 -0.9089
 4221TIP3    H234155   3.979   2.308  13.794 -0.8328  1.6838 -0.9343
 4222TIP3   OH234156   4.470   2.587   5.312  0.1250  0.1344  0.1475
 4222TIP3    H134157   4.400   2.588   5.246 -0.1472  1.5018  0.4225
 4222TIP3    H234158   4.424   2.583   5.396  0.1258  3.8287  0.4929
 4223TIP3   OH234159   4.727   5.077   1.259  0.6938  0.5448 -0.7456
 4223TIP3    H134160   4.695   5.027   1.184  0.2477 -2.8777  1.4685
 4223TIP3    H234161   4.813   5.038   1.279  1.1448  1.8916  0.1008
 4224TIP3   OH234162   5.801   6.507   2.957  0.0721 -0.3058  0.6851
 4224TIP3    H134163   5.811   6.596   2.922 -1.7884  0.1711  1.2236
 4224TIP3    H234164   5.886   6.466   2.942  1.2725  1.8165  1.1708
 4225TIP3   OH234165   3.828   1.333   5.745 -0.1394 -0.3757 -0.4340
 4225TIP3    H134166   3.855   1.380   5.666 -0.7103 -0.1475 -0.5024
 4225TIP3    H234167   3.863   1.386   5.817  1.2859 -1.1528 -0.5409
 4226TIP3   OH234168   4.291   5.971   6.274 -0.2301  0.5516  0.7317
 4226TIP3    H134169   4.348   5.932   6.341  0.7315 -0.2153 -0.5008
 4226TIP3    H234170   4.256   6.050   6.316  2.6899  1.7501  1.1774
 4227TIP3   OH234171   0.759   4.533   4.592 -0.2436  0.0576 -0.1603
 4227TIP3    H134172   0.826   4.485   4.641 -1.4957 -2.0703 -0.4129
 4227TIP3    H234173   0.678   4.487   4.612 -1.5405  2.0954 -0.4840
 4228TIP3   OH234174   6.740   0.501   0.051 -0.2010  0.3735  0.4334
 4228TIP3    H134175   6.680   0.432   0.078  0.8616 -0.2568  1.2442
 4228TIP3    H234176   6.823   0.456   0.035  0.2765  1.3390  0.1213
 4229TIP3   OH234177   2.907   2.382   4.091  0.3803  0.5016 -0.0869
 4229TIP3    H134178   2.996   2.404   4.062  0.0688  0.6879 -0.9120
 4229TIP3    H234179   2.868   2.466   4.114  1.2234  0.2355  2.7508
 4230TIP3   OH234180   3.966   3.327  16.658 -0.1296 -0.5265 -0.1403
 4230TIP3    H134181   3.889   3.348  16.711 -0.9159 -0.0641 -1.4216
 4230TIP3    H234182   4.003   3.412  16.636  0.4668 -0.7333  0.0632
 4231TIP3   OH234183   3.790   6.091   0.177  0.1668  0.2931 -0.2872
 4231TIP3    H134184   3.741   6.173   0.166 -1.4652 -0.6153 -0.1182
 4231TIP3    H234185   3.877   6.110   0.143 -0.2846  1.9977 -0.5617
 4232TIP3   OH234186   4.260   3.168  14.417  0.1755 -0.5838  0.3065
 4232TIP3    H134187   4.335   3.200  14.367 -0.8648  0.7625 -0.4879
 4232TIP3    H234188   4.184   3.211  14.376 -1.2836 -3.4549 -0.2395
 4233TIP3   OH234189   0.867   4.934   2.076  0.0676  0.5643 -0.3366
 4233TIP3    H134190   0.774   4.952   2.066 -0.6776 -0.5015  3.1241
 4233TIP3    H234191   0.873   4.838   2.069  0.4693  0.4118  1.5328
 4234TIP3   OH234192   6.630   3.599  15.242  0.3386 -0.4117  0.5848
 4234TIP3    H134193   6.539   3.625  15.257  1.1463  2.9738  0.5683
 4234TIP3    H234194   6.625   3.508  15.214 -2.8399 -1.0086  2.5635
 4235TIP3   OH234195   0.765   0.568  12.615 -0.3433 -0.6229  0.1014
 4235TIP3    H134196   0.716   0.571  12.533  1.2190  1.1045 -0.8453
 4235TIP3    H234197   0.832   0.501  12.601  1.6096  1.4453 -1.1541
 4236TIP3   OH234198   1.225   0.587  15.342 -0.1693  0.3478 -0.3762
 4236TIP3    H134199   1.204   0.553  15.255  0.7962  1.4856 -1.0889
 4236TIP3    H234200   1.164   0.542  15.401 -0.6936 -0.6123 -1.5984
 4237TIP3   OH234201   0.095   3.725   2.461 -0.3415  0.1123  0.2611
 4237TIP3    H134202   0.090   3.730   2.556 -1.7675  1.3234  0.1684
 4237TIP3    H234203   0.014   3.767   2.431 -0.0920 -0.5737 -1.4787
 4238TIP3   OH234204   5.532   0.953   1.299  0.1250 -0.0815  0.0646
 4238TIP3    H134205   5.561   0.867   1.269 -1.0782 -0.6834  0.5455
 4238TIP3    H234206   5.504   0.938   1.389 -1.6134  0.4571 -0.3596
 4239TIP3   OH234207   1.029   0.516   3.272 -0.4808  0.1559  0.3811
 4239TIP3    H134208   0.964   0.524   3.202  1.3859  3.0677 -1.2539
 4239TIP3    H234209   1.069   0.430   3.259 -0.6435  0.3525 -1.7835
 4240TIP3   OH234210   4.369   4.189  13.549 -0.1723  0.2176 -0.1323
 4240TIP3    H134211   4.299   4.138  13.588  0.4519  0.1980  1.0093
 4240TIP3    H234212   4.356   4.278  13.582  0.5657  0.1283  0.4249
 4241TIP3   OH234213   0.750   1.042  14.695  0.3694 -0.4535 -0.1851
 4241TIP3    H134214   0.669   1.083  14.727  0.3927 -0.5499  0.0012
 4241TIP3    H234215   0.722   0.959  14.658  0.0994  0.4508 -2.0899
 4242TIP3   OH234216   0.109   4.751  10.691 -0.1610  0.4850 -0.1523
 4242TIP3    H134217   0.120   4.817  10.760  0.2681  0.1011  0.1565
 4242TIP3    H234218   0.161   4.785  10.618  0.7776  0.0876  0.3056
 4243TIP3   OH234219   1.918   6.419  17.143  0.3013 -0.1693 -0.0113
 4243TIP3    H134220   1.902   6.414  17.049 -1.9602 -0.1613  0.3030
 4243TIP3    H234221   1.930   6.328  17.170  0.8425 -0.1803 -0.2777
 4244TIP3   OH234222   3.747   5.826   3.664  0.2935  0.1253 -0.6112
 4244TIP3    H134223   3.757   5.893   3.731  2.1784  0.1328 -0.8389
 4244TIP3    H234224   3.679   5.861   3.605 -0.5046  0.6655  0.5974
 4245TIP3   OH234225   6.451   0.440   5.211 -0.3386  0.1342 -0.0012
 4245TIP3    H134226   6.395   0.509   5.246 -1.0953  0.0981 -1.0863
 4245TIP3    H234227   6.501   0.408   5.286 -2.2147 -0.2727  1.1197
 4246TIP3   OH234228   2.058   6.207   3.474 -0.4555  0.3305  0.0572
 4246TIP3    H134229   2.120   6.134   3.470  0.8845  1.2030  2.5532
 4246TIP3    H234230   1.974   6.166   3.494 -0.3119 -0.7136 -1.3104
 4247TIP3   OH234231   6.022   4.175   4.222 -0.5313  0.6690  0.5556
 4247TIP3    H134232   5.977   4.122   4.155 -1.9292  0.7337  1.3922
 4247TIP3    H234233   6.051   4.254   4.175  3.8270 -1.7038 -1.3411
 4248TIP3   OH234234   6.495   5.072  11.037  0.2184 -0.7489  0.0853
 4248TIP3    H134235   6.421   5.037  10.987  0.6114  1.1625 -1.9951
 4248TIP3    H234236   6.560   5.095  10.970  0.9957  1.4309  1.4775
 4249TIP3   OH234237   2.373   4.664  12.576  0.2248  0.1941  0.0044
 4249TIP3    H134238   2.420   4.706  12.505 -0.4864 -1.3696 -1.4567
 4249TIP3    H234239   2.286   4.704  12.575 -0.4446 -1.2009 -1.3709
 4250TIP3   OH234240   2.909   3.737  16.621 -1.3008  0.0367 -0.1649
 4250TIP3    H134241   2.941   3.651  16.649  0.2206  0.1234 -1.5171
 4250TIP3    H234242   2.883   3.725  16.530 -1.5757  0.8877 -0.2068
 4251TIP3   OH234243   3.897   4.110   3.503 -0.2766 -0.1067 -0.2467
 4251TIP3    H134244   3.975   4.054   3.493  1.0363  1.4381  0.9525
 4251TIP3    H234245   3.843   4.065   3.568  0.5276 -0.2168  0.3481
 4252TIP3   OH234246   4.792   1.029   4.908 -0.0280  0.5282  0.0258
 4252TIP3    H134247   4.735   1.071   4.845 -0.3599  0.0384 -0.0062
 4252TIP3    H234248   4.733   0.978   4.964  0.4388 -0.7359 -0.5800
 4253TIP3   OH234249   1.437   5.755  16.244  0.3575 -0.1461 -0.5187
 4253TIP3    H134250   1.512   5.698  16.260  1.4935  1.4938  0.3056
 4253TIP3    H234251   1.464   5.810  16.170 -0.1174  0.2712 -0.3897
 4254TIP3   OH234252   1.357   3.522   2.076  0.2017  0.1863 -0.4677
 4254TIP3    H134253   1.273   3.505   2.033  1.3697 -3.1653 -1.8069
 4254TIP3    H234254   1.337   3.519   2.170 -1.3798  1.1129 -0.7390
 4255TIP3   OH234255   3.947   2.973  10.743 -0.6639 -0.9184 -0.3729
 4255TIP3    H134256   3.900   3.056  10.731  0.1265 -0.1592  1.4357
 4255TIP3    H234257   4.028   2.985  10.694 -0.0292 -0.1326  0.8301
 4256TIP3   OH234258   5.495   0.516   5.110 -0.3125 -0.1383 -0.3429
 4256TIP3    H134259   5.577   0.537   5.065 -0.5190  0.0879 -0.6211
 4256TIP3    H234260   5.459   0.442   5.062 -0.1551 -0.3966 -0.0706
 4257TIP3   OH234261   5.540   1.772   3.021 -0.1601  0.2236  0.2773
 4257TIP3    H134262   5.531   1.852   3.074 -1.0158  0.6318 -0.4347
 4257TIP3    H234263   5.482   1.788   2.946 -1.9573 -1.8940  1.1099
 4258TIP3   OH234264   0.262   5.494  12.511  0.1227 -0.1529 -0.0919
 4258TIP3    H134265   0.266   5.560  12.443 -1.2371 -0.8900 -0.9267
 4258TIP3    H234266   0.339   5.439  12.496  0.8282  0.7585  0.1269
 4259TIP3   OH234267   3.655   5.973  10.960  0.0254  0.0730  0.1694
 4259TIP3    H134268   3.696   5.961  10.874 -2.4449  2.7537 -1.5858
 4259TIP3    H234269   3.665   6.066  10.978 -2.0748  0.1396  1.3247
 4260TIP3   OH234270   0.956   2.378   5.748  0.4228 -0.4471  0.5475
 4260TIP3    H134271   1.046   2.406   5.734  0.0951  0.1691 -0.4749
 4260TIP3    H234272   0.938   2.317   5.676 -0.2040  0.0467  0.2643
 4261TIP3   OH234273   4.249   1.455  14.716 -0.4020 -0.2798  0.1890
 4261TIP3    H134274   4.190   1.528  14.697 -0.2383 -0.1505  0.1784
 4261TIP3    H234275   4.231   1.392  14.646  0.3936  0.3102 -0.5770
 4262TIP3   OH234276   5.426   6.252  16.584  0.4408  0.3179 -0.1201
 4262TIP3    H134277   5.370   6.311  16.534 -0.0539  0.9878  1.1815
 4262TIP3    H234278   5.516   6.278  16.561  0.2239  1.0895 -0.0860
 4263TIP3   OH234279   2.538   1.286  12.918  0.3126  0.2769 -0.0838
 4263TIP3    H134280   2.587   1.205  12.908  0.6521  0.5596 -0.8101
 4263TIP3    H234281   2.504   1.283  13.007 -0.5097 -1.1119 -0.4182
 4264TIP3   OH234282   4.772   1.632  13.007 -0.3547 -0.2873  0.2410
 4264TIP3    H134283   4.796   1.725  13.000 -4.1409  0.7892 -0.3992
 4264TIP3    H234284   4.818   1.602  13.085  1.2177  2.0071  0.3186
 4265TIP3   OH234285   4.556   0.216   3.692  0.2145 -0.2091  0.1598
 4265TIP3    H134286   4.512   0.247   3.613 -0.4732 -0.0503  0.5939
 4265TIP3    H234287   4.508   0.136   3.716  0.3415 -0.1919  0.4739
 4266TIP3   OH234288   2.495   4.919   5.300  0.6759  0.0834  0.4010
 4266TIP3    H134289   2.546   4.999   5.316 -0.2135  0.6755  0.3628
 4266TIP3    H234290   2.445   4.905   5.380  0.8553 -0.4577  0.4196
 4267TIP3   OH234291   2.056   4.793  15.287 -0.5180 -0.0640 -0.2365
 4267TIP3    H134292   2.023   4.840  15.364 -2.8643 -0.1272 -1.1174
 4267TIP3    H234293   2.004   4.825  15.214  0.7499 -0.9598 -1.6103
 4268TIP3   OH234294   4.837   3.193  11.871  0.1333  0.4811  0.3280
 4268TIP3    H134295   4.871   3.272  11.829 -0.8468  0.7294 -0.0255
 4268TIP3    H234296   4.873   3.121  11.819  0.3391  0.7303  0.1229
 4269TIP3   OH234297   0.910   1.367  11.568  0.3526 -0.4154 -0.7155
 4269TIP3    H134298   0.864   1.398  11.646  2.6281  0.5090  0.3374
 4269TIP3    H234299   0.870   1.415  11.495 -2.0401 -1.5410 -0.2535
 4270TIP3   OH234300   1.771   6.507   1.241  0.3238 -0.3621  0.4504
 4270TIP3    H134301   1.734   6.476   1.324 -0.6038 -0.5865 -0.0298
 4270TIP3    H234302   1.864   6.486   1.247  0.6161  1.1847  2.1469
 4271TIP3   OH234303   1.020   5.609  16.026 -0.2355  0.3155 -0.0546
 4271TIP3    H134304   1.057   5.667  15.961 -1.2479  1.0450  0.0043
 4271TIP3    H234305   0.947   5.566  15.981  2.1735 -3.1781 -1.0656
 4272TIP3   OH234306   4.530   1.023  15.533 -0.2180 -0.1212  0.1285
 4272TIP3    H134307   4.578   1.071  15.600  0.3538 -0.1683 -0.2381
 4272TIP3    H234308   4.532   0.932  15.562 -0.7317 -0.0167  0.4920
 4273TIP3   OH234309   2.566   0.363   1.909 -0.2037 -0.1718 -0.2923
 4273TIP3    H134310   2.549   0.275   1.941  0.0565  0.2325  0.9903
 4273TIP3    H234311   2.481   0.396   1.881 -0.6275 -0.1690  0.9483
 4274TIP3   OH234312   6.512   2.811  17.007 -0.3424 -0.8672 -0.1161
 4274TIP3    H134313   6.591   2.785  16.960  0.6362 -0.9796  1.5074
 4274TIP3    H234314   6.468   2.872  16.948  2.0746  0.9440 -0.2275
 4275TIP3   OH234315   2.488   4.364  13.122  0.8418 -0.2278  0.3122
 4275TIP3    H134316   2.531   4.447  13.144 -0.2017  0.2872  0.4788
 4275TIP3    H234317   2.457   4.329  13.206  1.0393 -0.6530  0.2115
 4276TIP3   OH234318   3.101   0.088  16.112  0.5737  0.2571  0.4214
 4276TIP3    H134319   3.093   0.147  16.037 -0.9514 -0.7228 -0.2238
 4276TIP3    H234320   3.186   0.046  16.101  0.4712  0.3065 -0.6332
 4277TIP3   OH234321   2.081   4.332   5.349  0.5368 -0.2001  0.5077
 4277TIP3    H134322   2.168   4.308   5.379  0.6774 -0.5231 -0.1460
 4277TIP3    H234323   2.094   4.369   5.262 -0.0790 -1.2200 -0.0378
 4278TIP3   OH234324   4.329   6.105   1.833  0.0383  0.3368 -1.0192
 4278TIP3    H134325   4.357   6.056   1.910 -1.1733  0.3894 -0.5252
 4278TIP3    H234326   4.399   6.092   1.770  0.8433 -0.0706 -0.0622
 4279TIP3   OH234327   1.620   4.414   4.423 -0.6538 -0.1223  0.0598
 4279TIP3    H134328   1.534   4.430   4.463  0.0207 -0.0393  1.5501
 4279TIP3    H234329   1.602   4.352   4.352 -2.1387  0.9726 -0.5879
 4280TIP3   OH234330   2.276   3.793   4.363  0.1259  0.0667 -0.2581
 4280TIP3    H134331   2.192   3.840   4.363  0.4684  0.8323 -2.8698
 4280TIP3    H234332   2.316   3.816   4.446 -1.8455  0.4213  0.6590
 4281TIP3   OH234333   2.721   4.378  15.618 -0.1483 -0.0106 -0.0448
 4281TIP3    H134334   2.756   4.297  15.656 -0.7583  0.1034  0.7961
 4281TIP3    H234335   2.630   4.380  15.646 -0.3372  0.6064 -0.6831
 4282TIP3   OH234336   5.400   5.471   6.088 -0.4645 -0.2193  0.6225
 4282TIP3    H134337   5.401   5.560   6.122  0.3694 -0.3442  0.9352
 4282TIP3    H234338   5.389   5.416   6.166 -0.5892 -0.4071  0.4722
 4283TIP3   OH234339   1.825   0.963   1.781 -0.4681 -0.0278 -0.2390
 4283TIP3    H134340   1.897   0.926   1.831 -0.0437  0.0383 -0.7888
 4283TIP3    H234341   1.765   0.997   1.847  0.2857  0.4442  0.2171
 4284TIP3   OH234342   3.232   0.432   1.570  0.0695 -0.0110 -0.5978
 4284TIP3    H134343   3.297   0.362   1.562 -0.3449 -0.4338 -0.3256
 4284TIP3    H234344   3.214   0.459   1.480 -1.3072 -1.7001 -0.8727
 4285TIP3   OH234345   4.762   5.017   5.994 -0.4795  0.2855 -0.2175
 4285TIP3    H134346   4.782   5.046   6.083 -3.3717  2.0464  0.0108
 4285TIP3    H234347   4.829   5.056   5.939  0.4900  0.4062  1.0243
 4286TIP3   OH234348   0.595   3.586   1.641 -0.0487  0.2737 -0.0938
 4286TIP3    H134349   0.650   3.555   1.569 -0.3482  0.7390 -0.5270
 4286TIP3    H234350   0.505   3.581   1.607 -0.1768  0.6702  0.1788
 4287TIP3   OH234351   6.364   0.362   4.134 -0.9315  0.1732 -0.6622
 4287TIP3    H134352   6.295   0.328   4.191 -0.5624 -1.0288 -0.8971
 4287TIP3    H234353   6.425   0.289   4.125 -0.3953  0.7254 -1.6625
 4288TIP3   OH234354   1.738   2.809   3.974 -0.2795 -0.3937 -0.1593
 4288TIP3    H134355   1.732   2.720   3.938 -0.0838 -1.3865  2.0952
 4288TIP3    H234356   1.650   2.844   3.965 -0.6083 -1.1980 -0.2018
 4289TIP3   OH234357   0.726   5.544  15.958  0.0369 -0.5665  0.0621
 4289TIP3    H134358   0.677   5.510  15.883  1.2972 -0.6107 -0.7648
 4289TIP3    H234359   0.746   5.635  15.935 -0.5279 -0.2326  0.8466
 4290TIP3   OH234360   0.896   3.369   3.091  0.0893 -0.0185 -0.3254
 4290TIP3    H134361   0.949   3.448   3.081  0.5486 -0.2175  0.4282
 4290TIP3    H234362   0.822   3.382   3.032  0.0372  1.0824 -0.0462
 4291TIP3   OH234363   2.956   5.280   5.376  0.2048  0.2898  0.3070
 4291TIP3    H134364   3.007   5.243   5.448  0.2937  0.3846  0.2932
 4291TIP3    H234365   2.953   5.374   5.394 -1.1555  0.1269  1.0538
 4292TIP3   OH234366   0.055   6.645  12.098 -0.0433  0.1906 -0.6041
 4292TIP3    H134367   0.055   6.588  12.174 -1.7675  1.6424  0.5529
 4292TIP3    H234368  -0.009   6.606  12.038  0.9952 -0.7119 -1.1475
 4293TIP3   OH234369   6.724   1.510   0.046 -0.5406  0.4513 -0.5057
 4293TIP3    H134370   6.719   1.605   0.049 -2.7005  0.3812 -0.2322
 4293TIP3    H234371   6.663   1.481   0.114  1.7171 -1.1556  0.9680
 4294TIP3   OH234372   4.375   2.840  10.817 -0.1369  0.4274  0.2740
 4294TIP3    H134373   4.380   2.757  10.770  0.4422  0.0626  0.9643
 4294TIP3    H234374   4.417   2.903  10.760 -1.0953  0.3754 -0.5178
 4295TIP3   OH234375   4.578   2.455  16.214 -0.5830  0.3131 -0.3829
 4295TIP3    H134376   4.666   2.464  16.177 -0.8824  0.6364 -1.0361
 4295TIP3    H234377   4.520   2.490  16.147 -1.1829  0.4898  0.2161
 4296TIP3   OH234378   3.113   6.368   1.454  0.1444  0.1094 -0.1184
 4296TIP3    H134379   3.169   6.323   1.516 -0.6174  1.6758  1.8324
 4296TIP3    H234380   3.026   6.330   1.467  0.2553 -0.6514 -1.4136
 4297TIP3   OH234381   0.863   6.646   2.930  0.0221  0.1590  0.2152
 4297TIP3    H134382   0.820   6.600   3.002  0.8757 -1.6508 -0.3824
 4297TIP3    H234383   0.815   6.619   2.852  0.8170 -0.0785 -0.1972
 4298TIP3   OH234384   4.008   4.365   4.286  0.7447  0.4294 -0.3742
 4298TIP3    H134385   3.939   4.319   4.332 -0.2568  1.0349 -1.2306
 4298TIP3    H234386   4.064   4.401   4.356 -0.6796  1.2480  0.3847
 4299TIP3   OH234387   2.207   6.044   1.001  0.4423 -0.1801 -0.3383
 4299TIP3    H134388   2.246   6.017   0.917  1.0530  1.5529 -0.6578
 4299TIP3    H234389   2.210   5.966   1.055  1.2126 -1.0052 -1.5203
 4300TIP3   OH234390   2.511   3.013   3.230 -0.1091  0.1142  0.0552
 4300TIP3    H134391   2.469   2.933   3.259  2.2524 -0.6499  1.6217
 4300TIP3    H234392   2.503   3.073   3.304  0.7526  0.2530  0.0454
 4301TIP3   OH234393   5.996   3.001   2.827  0.0985  0.4081  0.2086
 4301TIP3    H134394   6.016   2.931   2.765  0.6916 -0.2711  1.1450
 4301TIP3    H234395   6.081   3.033   2.855 -0.1693  0.9747  0.3786
 4302TIP3   OH234396   0.878   1.452  16.492 -0.2137 -0.0331  0.2272
 4302TIP3    H134397   0.848   1.361  16.487  1.0642 -0.4663  0.0381
 4302TIP3    H234398   0.800   1.501  16.517 -1.1431 -1.0633 -0.5066
 4303TIP3   OH234399   0.207   5.214  16.685 -0.1487  0.2819  0.2731
 4303TIP3    H134400   0.161   5.225  16.602 -0.9681 -1.0534  0.5276
 4303TIP3    H234401   0.237   5.123  16.684  0.1271  0.3506  1.2960
 4304TIP3   OH234402   5.964   4.930  17.029 -0.1450 -0.1665 -0.1048
 4304TIP3    H134403   6.029   4.973  16.974  0.6623 -1.9550 -0.6132
 4304TIP3    H234404   5.933   4.999  17.088  3.1868  0.4869  1.0975
 4305TIP3   OH234405   5.958   2.819   3.500  0.0336 -0.5036  0.3181
 4305TIP3    H134406   5.875   2.852   3.465  0.6940  0.0646 -0.7674
 4305TIP3    H234407   5.994   2.893   3.549  0.7519 -0.1039 -0.7649
 4306TIP3   OH234408   1.231   5.644   2.974 -0.1121 -0.0605 -0.3354
 4306TIP3    H134409   1.190   5.559   2.965  0.2451 -0.0130 -3.3738
 4306TIP3    H234410   1.325   5.625   2.978 -0.0644  0.1594 -0.3752
 4307TIP3   OH234411   6.794   5.840   0.580 -0.0832  0.2233 -0.2278
 4307TIP3    H134412   6.768   5.771   0.520 -1.8384  0.6939 -0.0519
 4307TIP3    H234413   6.723   5.904   0.576  0.2896  0.7954  1.5083
 4308TIP3   OH234414   0.274   1.108  11.053  0.6370 -0.8311 -0.4499
 4308TIP3    H134415   0.282   1.183  10.993 -1.3264 -0.5029 -0.3907
 4308TIP3    H234416   0.298   1.143  11.139  1.8462 -0.8586 -0.7715
 4309TIP3   OH234417   2.775   2.435  16.303 -0.1692 -0.5172 -0.1045
 4309TIP3    H134418   2.755   2.502  16.368  2.3125  1.6353 -1.3853
 4309TIP3    H234419   2.762   2.478  16.219  2.6913 -1.0983 -0.9776
 4310TIP3   OH234420   1.872   0.871  16.592  0.4287 -0.7878  0.1601
 4310TIP3    H134421   1.927   0.940  16.553  1.6335 -1.5037  0.5199
 4310TIP3    H234422   1.912   0.855  16.677 -1.5006 -0.0269  1.2763
 4311TIP3   OH234423   1.845   1.378   3.379  0.2241  0.5842  0.7831
 4311TIP3    H134424   1.797   1.460   3.384  0.0278  0.4882  0.5274
 4311TIP3    H234425   1.841   1.354   3.286  0.3341  0.3200  0.8447
 4312TIP3   OH234426   5.561   4.115   3.982 -0.2453  0.5599  0.2161
 4312TIP3    H134427   5.488   4.101   3.921  0.4465 -0.6638 -0.3762
 4312TIP3    H234428   5.536   4.065   4.060 -0.3937  0.7805  0.3090
 4313TIP3   OH234429   2.758   1.447   2.028 -0.6456 -0.3143 -0.0779
 4313TIP3    H134430   2.666   1.428   2.046 -0.3386 -1.3091  0.5357
 4313TIP3    H234431   2.797   1.461   2.114 -0.0383 -0.8124 -0.2601
 4314TIP3   OH234432   4.813   3.330  12.726 -0.0397 -0.6898  0.3208
 4314TIP3    H134433   4.722   3.314  12.749  0.3268 -1.0232  1.5998
 4314TIP3    H234434   4.855   3.244  12.732  0.6707 -0.2903  1.2224
 4315TIP3   OH234435   5.593   0.682  13.577 -0.1230 -0.9126 -0.1024
 4315TIP3    H134436   5.572   0.647  13.664 -0.7347 -2.3902 -0.8085
 4315TIP3    H234437   5.677   0.643  13.554 -0.0962 -0.7462 -0.2968
 4316TIP3   OH234438   2.980   6.484   5.619 -0.2300  0.2531  0.2962
 4316TIP3    H134439   2.903   6.516   5.571 -0.2957  0.3468  0.4624
 4316TIP3    H234440   2.965   6.512   5.709 -0.4364 -0.5035  0.5061
 4317TIP3   OH234441   1.202   3.360   3.027  0.0846  0.0768 -0.6652
 4317TIP3    H134442   1.206   3.304   2.950  0.7585 -0.2092 -0.4277
 4317TIP3    H234443   1.223   3.448   2.994  1.9462 -0.2965 -0.5757
 4318TIP3   OH234444   0.993   4.811  13.879 -0.3390 -0.3640  0.0486
 4318TIP3    H134445   1.009   4.718  13.896  0.9871 -1.1157 -4.0785
 4318TIP3    H234446   1.078   4.852  13.892 -0.7974  0.2069  1.3274
 4319TIP3   OH234447   3.405   1.167  16.368  0.2835  0.7447 -0.3037
 4319TIP3    H134448   3.389   1.235  16.303 -0.6853  0.5596 -0.2661
 4319TIP3    H234449   3.424   1.216  16.449 -1.8535  1.0270  0.0898
 4320TIP3   OH234450   3.999   4.069   1.456  0.3966 -0.5694  0.3534
 4320TIP3    H134451   4.070   4.075   1.392  0.8239 -0.4760  0.8311
 4320TIP3    H234452   3.923   4.107   1.412  0.8005 -0.0866  0.0720
 4321TIP3   OH234453   2.158   3.313   4.521 -0.3288 -0.2069 -0.2206
 4321TIP3    H134454   2.115   3.390   4.484 -1.2539  0.0514  1.3034
 4321TIP3    H234455   2.227   3.348   4.577 -0.2531 -0.5011 -0.1252
 4322TIP3   OH234456   3.745   6.718  13.467 -0.1718 -0.1021 -0.0643
 4322TIP3    H134457   3.677   6.779  13.438 -0.9206 -0.4997  0.8066
 4322TIP3    H234458   3.723   6.700  13.559  0.0946 -1.5887 -0.2701
 4323TIP3   OH234459   3.577   2.669   3.662 -0.0434 -0.4962 -0.2029
 4323TIP3    H134460   3.534   2.727   3.600  0.0154 -0.6373 -0.3772
 4323TIP3    H234461   3.510   2.648   3.727  0.3633  1.0395  0.7759
 4324TIP3   OH234462   5.534   0.799   3.974  0.5313  0.5060  0.2356
 4324TIP3    H134463   5.497   0.872   3.923 -2.0716 -1.0558 -0.3134
 4324TIP3    H234464   5.461   0.769   4.029  1.6084 -1.4916  0.6736
 4325TIP3   OH234465   3.411   6.338  11.528  0.9225 -0.2198  0.2484
 4325TIP3    H134466   3.380   6.387  11.604  1.0619  1.1684 -0.5555
 4325TIP3    H234467   3.501   6.314  11.551  0.6968 -0.5350  0.8425
 4326TIP3   OH234468   6.577   1.084  12.617 -0.7885  0.3665  0.4952
 4326TIP3    H134469   6.487   1.070  12.588 -0.9096  0.7586  0.6678
 4326TIP3    H234470   6.569   1.134  12.698 -0.5089 -2.0273  2.0981
 4327TIP3   OH234471   2.601   2.400   4.532  0.4205  0.1751  0.0735
 4327TIP3    H134472   2.635   2.342   4.464  0.4793 -0.1002  0.3372
 4327TIP3    H234473   2.624   2.357   4.615 -0.7696 -0.1257  0.2591
 4328TIP3   OH234474   1.101   3.735   1.031  0.2406  0.4709  0.0400
 4328TIP3    H134475   1.147   3.758   1.112  1.1213  0.3900 -0.4203
 4328TIP3    H234476   1.059   3.817   1.003 -1.3092  0.1664  1.3299
 4329TIP3   OH234477   2.509   0.960  14.908 -0.2121  0.5022 -0.5109
 4329TIP3    H134478   2.433   0.995  14.862 -1.1961  0.8294  1.2665
 4329TIP3    H234479   2.531   1.028  14.972 -0.7545 -1.0976  1.4834
 4330TIP3   OH234480   0.110   1.005  15.044  0.4095 -0.2603  0.4574
 4330TIP3    H134481   0.053   0.938  15.007 -1.2085  1.2930 -0.0671
 4330TIP3    H234482   0.074   1.020  15.132  0.0003  0.7010  0.1395
 4331TIP3   OH234483   1.798   1.227  12.197  0.2056  0.2266 -0.5690
 4331TIP3    H134484   1.891   1.237  12.175  0.0561  1.3925 -0.7162
 4331TIP3    H234485   1.784   1.132  12.199  1.9362 -0.0455  1.7570
 4332TIP3   OH234486   1.841   4.439  12.087  0.5009  0.2278 -0.4316
 4332TIP3    H134487   1.916   4.473  12.136 -0.3318  0.8803  0.4274
 4332TIP3    H234488   1.774   4.423  12.153 -0.3638  0.3145 -1.2540
 4333TIP3   OH234489   6.243   2.434   1.245  0.3249  0.4092 -0.0036
 4333TIP3    H134490   6.306   2.444   1.317  0.5636  1.5756 -0.3582
 4333TIP3    H234491   6.157   2.447   1.286  0.4518  0.9332  0.1005
 4334TIP3   OH234492   1.036   1.452   5.278  0.2894  0.0863 -0.2989
 4334TIP3    H134493   1.013   1.361   5.299  0.1556  0.4156  1.0612
 4334TIP3    H234494   1.112   1.444   5.220 -1.5811 -0.9605 -2.7969
 4335TIP3   OH234495   2.322   2.376  14.006  0.1896 -0.6046 -0.1072
 4335TIP3    H134496   2.276   2.292  14.015  1.3001 -1.1157  1.3710
 4335TIP3    H234497   2.401   2.354  13.957 -0.2906 -0.0821 -1.1305
 4336TIP3   OH234498   3.116   1.377  10.421 -0.2471 -0.5153 -0.2235
 4336TIP3    H134499   3.119   1.467  10.454  0.9233 -0.7516  0.3562
 4336TIP3    H234500   3.053   1.333  10.478 -1.3320  0.0691 -0.9199
 4337TIP3   OH234501   5.675   4.026  15.251 -0.5033 -0.1051  0.0693
 4337TIP3    H134502   5.581   4.042  15.251 -0.4795  0.0416  0.3382
 4337TIP3    H234503   5.692   3.979  15.333 -0.2140  0.6610  0.4556
 4338TIP3   OH234504   6.207   6.234   3.655 -0.2855 -0.1035 -0.1323
 4338TIP3    H134505   6.160   6.212   3.736 -1.0598  1.9766  0.0534
 4338TIP3    H234506   6.295   6.255   3.683  0.4509 -2.5979 -0.3031
 4339TIP3   OH234507   2.679   1.284  12.393 -0.0202 -0.3475 -0.0015
 4339TIP3    H134508   2.682   1.233  12.312  0.8839 -0.2251 -0.0505
 4339TIP3    H234509   2.684   1.218  12.463  1.3465 -0.3379 -0.0652
 4340TIP3   OH234510   1.304   2.474   2.935  0.4088  0.1989 -0.2242
 4340TIP3    H134511   1.350   2.509   2.859  2.1540 -0.4168  0.5166
 4340TIP3    H234512   1.373   2.451   2.997 -0.9526  0.5453  1.5074
 4341TIP3   OH234513   2.757   4.375   0.909 -0.0835  0.0959  0.0719
 4341TIP3    H134514   2.738   4.416   0.825  0.2137  0.9212  0.4035
 4341TIP3    H234515   2.768   4.282   0.888  0.0849  0.3081 -0.8149
 4342TIP3   OH234516   0.368   0.373  12.918  0.8560  0.4006  0.1452
 4342TIP3    H134517   0.421   0.434  12.866 -0.1127  1.7331  0.6646
 4342TIP3    H234518   0.424   0.348  12.990  1.2436  0.7723 -0.0201
 4343TIP3   OH234519   6.535   5.656  11.275  0.8426 -0.4968  0.1673
 4343TIP3    H134520   6.562   5.747  11.289  2.6079 -1.1162  1.0744
 4343TIP3    H234521   6.602   5.604  11.319  0.5137 -2.2893 -1.3280
 4344TIP3   OH234522   2.830   6.032   4.779 -0.3727 -0.1530 -0.0611
 4344TIP3    H134523   2.760   6.054   4.841 -0.5387 -0.9795  0.0514
 4344TIP3    H234524   2.902   6.091   4.803 -0.7325  0.1223  0.3647
 4345TIP3   OH234525   5.001   2.327   0.189 -0.0372  0.6298  0.6846
 4345TIP3    H134526   4.984   2.256   0.251  1.6494 -0.9131 -0.5031
 4345TIP3    H234527   5.028   2.400   0.244  0.7029 -0.4574  1.8422
 4346TIP3   OH234528   4.254   5.448   0.572 -0.2603 -0.1294  0.3723
 4346TIP3    H134529   4.333   5.502   0.568 -0.7182  0.6961  1.8108
 4346TIP3    H234530   4.286   5.358   0.564  0.5781  0.2702 -1.4337
 4347TIP3   OH234531   4.350   4.389   2.570  0.5236  0.6170 -0.3200
 4347TIP3    H134532   4.379   4.338   2.646 -2.4373 -0.0871  0.4807
 4347TIP3    H234533   4.383   4.341   2.495  1.8290  0.2298  0.4557
 4348TIP3   OH234534   3.059   3.557  15.513 -0.3428  0.2349 -0.4270
 4348TIP3    H134535   3.110   3.518  15.583  2.1646  0.5786 -1.9301
 4348TIP3    H234536   3.112   3.631  15.483 -1.1084 -0.1158 -2.9162
 4349TIP3   OH234537   6.116   5.345   3.284 -0.2595  0.0514  0.0482
 4349TIP3    H134538   6.155   5.378   3.203  0.0261 -0.0486  0.1434
 4349TIP3    H234539   6.167   5.266   3.304 -0.5001 -0.0696  0.1844
 4350TIP3   OH234540   5.549   2.416  14.979  0.7183  0.5139  0.0306
 4350TIP3    H134541   5.457   2.396  14.997  0.7669  0.8392  0.6763
 4350TIP3    H234542   5.546   2.472  14.901  0.3473  0.7240  0.1921
 4351TIP3   OH234543   5.195   4.507  12.801  0.3835  0.0472 -0.3476
 4351TIP3    H134544   5.100   4.494  12.800  0.1812  1.3973 -0.7240
 4351TIP3    H234545   5.231   4.420  12.781 -0.6613 -1.1415  2.4098
 4352TIP3   OH234546   1.726   1.435  11.505 -0.3969 -0.3228  0.1251
 4352TIP3    H134547   1.667   1.473  11.570  0.7028  0.6642  0.5820
 4352TIP3    H234548   1.727   1.341  11.525 -1.8387 -0.3760  0.0569
 4353TIP3   OH234549   1.358   1.422  11.662  0.0696 -0.3671  0.3064
 4353TIP3    H134550   1.352   1.375  11.580 -0.9274 -0.6203  0.5185
 4353TIP3    H234551   1.351   1.355  11.730  1.3014 -0.2132  0.6109
 4354TIP3   OH234552   4.443   3.512  15.164  0.0141 -0.0450 -0.3100
 4354TIP3    H134553   4.476   3.507  15.254  0.5669 -0.6305 -0.5315
 4354TIP3    H234554   4.357   3.552  15.171  0.2661  0.3772  0.4272
 4355TIP3   OH234555   4.064   0.556  13.176  0.1897 -0.0912 -0.0170
 4355TIP3    H134556   4.086   0.599  13.258 -1.0915  0.6853 -0.0501
 4355TIP3    H234557   4.090   0.465  13.188  1.9203  0.4485  0.4687
 4356TIP3   OH234558   1.059   0.761   0.830  0.1272  0.4518 -0.1105
 4356TIP3    H134559   1.142   0.713   0.824  0.2895  0.8006 -0.8014
 4356TIP3    H234560   1.077   0.833   0.890  0.6334  1.1176 -1.0361
 4357TIP3   OH234561   4.365   0.076  13.107  0.4956 -0.0708 -0.0672
 4357TIP3    H134562   4.452   0.116  13.105 -0.4874  2.2189  0.2085
 4357TIP3    H234563   4.343   0.069  13.200  0.1162 -0.0123 -0.1504
 4358TIP3   OH234564   5.537   5.493   3.878 -0.3411  0.2730  0.3097
 4358TIP3    H134565   5.624   5.478   3.839 -0.7078 -0.8161 -0.1260
 4358TIP3    H234566   5.499   5.563   3.824  0.3122  0.8785  0.6040
 4359TIP3   OH234567   3.593   2.387   0.707  0.8248  0.1923 -0.6879
 4359TIP3    H134568   3.565   2.327   0.639  0.4500  1.1084 -1.3595
 4359TIP3    H234569   3.544   2.467   0.691 -0.1713  0.0679  1.3733
 4360TIP3   OH234570   3.469   1.955  13.928 -0.0170 -0.3198 -0.4840
 4360TIP3    H134571   3.396   1.929  13.984 -1.2037  0.1480 -1.7929
 4360TIP3    H234572   3.455   2.048  13.912  1.4193  0.0183  0.0249
 4361TIP3   OH234573   1.439   3.485   5.952 -0.1506  0.4141 -0.3049
 4361TIP3    H134574   1.437   3.553   6.020 -0.9148  1.4758 -1.3525
 4361TIP3    H234575   1.388   3.413   5.988 -0.5731  0.9774  0.2412
 4362TIP3   OH234576   1.506   6.616   0.922  0.4319  0.0988  0.6332
 4362TIP3    H134577   1.524   6.537   0.973  0.4171 -1.3182 -1.4383
 4362TIP3    H234578   1.547   6.599   0.837 -2.1526  1.0089 -0.9073
 4363TIP3   OH234579   4.315   5.728  15.787 -0.2747 -0.9501 -0.1167
 4363TIP3    H134580   4.293   5.796  15.850  1.9982  0.8295 -1.0922
 4363TIP3    H234581   4.231   5.701  15.749 -1.3359  0.5028  1.0929
 4364TIP3   OH234582   2.963   3.444  11.714  0.3343  0.2301 -0.5639
 4364TIP3    H134583   2.908   3.393  11.774  2.1987  0.7592  1.7435
 4364TIP3    H234584   3.048   3.449  11.758  0.9868  3.1166 -1.9273
 4365TIP3   OH234585   3.135   4.601  15.884 -0.2558  0.0735  0.6117
 4365TIP3    H134586   3.167   4.533  15.824  0.3804  1.3308 -0.5181
 4365TIP3    H234587   3.042   4.581  15.895  0.0160 -1.2478  0.6833
 4366TIP3   OH234588   0.336   3.576  16.334  0.0123  0.0301 -0.1836
 4366TIP3    H134589   0.304   3.662  16.306  0.0653 -1.1446 -4.6010
 4366TIP3    H234590   0.257   3.528  16.359 -0.8477 -0.3124 -3.2138
 4367TIP3   OH234591   3.520   1.744  13.214 -0.0674 -0.4988 -0.0701
 4367TIP3    H134592   3.507   1.651  13.193 -1.5343 -1.0806  2.8450
 4367TIP3    H234593   3.578   1.743  13.290 -0.0456  1.0036 -0.0393
 4368TIP3   OH234594   5.578   3.028   1.095 -0.0336  0.1010 -0.0683
 4368TIP3    H134595   5.527   3.071   1.163 -0.5211 -2.1834  1.1071
 4368TIP3    H234596   5.632   2.964   1.142  2.2263  0.8314 -1.5140
 4369TIP3   OH234597   0.367   1.672  12.390  0.4627  0.0947 -0.2569
 4369TIP3    H134598   0.377   1.582  12.422  0.3576 -0.2257 -1.1092
 4369TIP3    H234599   0.402   1.670  12.301  3.0062  1.5238  0.5984
 4370TIP3   OH234600   4.313   5.218  11.276  0.1221  0.3915  0.3337
 4370TIP3    H134601   4.397   5.205  11.231 -0.1065 -0.9643  0.2475
 4370TIP3    H234602   4.324   5.300  11.324  2.0244 -0.4443  1.4514
 4371TIP3   OH234603   0.660   2.323  12.411 -0.4468  0.5129 -0.4217
 4371TIP3    H134604   0.681   2.245  12.359 -1.2714  0.4444 -0.6715
 4371TIP3    H234605   0.688   2.301  12.500 -0.8044 -0.1269 -0.4636
 4372TIP3   OH234606   1.351   3.760  15.501  0.3545 -0.6041 -0.0144
 4372TIP3    H134607   1.265   3.738  15.466  0.6504 -0.3992 -0.9021
 4372TIP3    H234608   1.370   3.847  15.465  0.3969 -0.0852  1.1948
 4373TIP3   OH234609   5.555   4.564   1.217 -0.6182 -0.3411 -0.2290
 4373TIP3    H134610   5.645   4.588   1.237 -0.6448 -1.0767  0.8752
 4373TIP3    H234611   5.562   4.489   1.158 -0.5347  0.1605 -0.8809
 4374TIP3   OH234612   4.705   5.738   3.997  0.2491  0.1842  0.2333
 4374TIP3    H134613   4.771   5.796   3.957 -2.1161  2.4222 -0.7575
 4374TIP3    H234614   4.662   5.697   3.922  0.2234 -0.9581  0.8568
 4375TIP3   OH234615   2.371   0.827   4.991  0.7065  0.3290  0.9056
 4375TIP3    H134616   2.306   0.897   4.998 -0.5472 -0.9424  3.0107
 4375TIP3    H234617   2.442   0.854   5.048 -0.1319 -0.3908  2.3633
 4376TIP3   OH234618   3.555   5.002  15.122 -0.0898  0.4724 -0.1557
 4376TIP3    H134619   3.490   5.071  15.129  0.6075  1.0412  0.8762
 4376TIP3    H234620   3.605   5.024  15.043 -0.1594  0.8946 -0.0836
 4377TIP3   OH234621   6.479   4.343   5.577 -0.2643  1.3527 -1.0931
 4377TIP3    H134622   6.554   4.344   5.519 -0.3933  2.5138 -1.2681
 4377TIP3    H234623   6.427   4.268   5.549  1.6395 -0.5283  0.1241
 4378TIP3   OH234624   6.567   2.191   4.978 -0.2753  0.2858  0.0461
 4378TIP3    H134625   6.605   2.279   4.973 -0.2624  0.2991  0.3582
 4378TIP3    H234626   6.621   2.145   5.042  0.6619 -0.4277 -1.2060
 4379TIP3   OH234627   3.383   1.936   2.554 -0.0784  0.0467 -0.1752
 4379TIP3    H134628   3.397   1.926   2.460  2.0795  1.4232 -0.0737
 4379TIP3    H234629   3.364   1.848   2.585 -0.5867 -0.4715 -1.8496
 4380TIP3   OH234630   2.384   1.716  11.141  0.2730 -0.1519 -0.3724
 4380TIP3    H134631   2.443   1.776  11.095 -0.4307  1.1738  0.3950
 4380TIP3    H234632   2.359   1.763  11.221 -0.8654 -1.1762 -0.0983
 4381TIP3   OH234633   4.295   5.035  14.454 -0.5351  0.1213  0.8180
 4381TIP3    H134634   4.291   5.130  14.454 -1.3647  0.1207 -0.9229
 4381TIP3    H234635   4.289   5.010  14.362  0.5236 -1.6000  1.1598
 4382TIP3   OH234636   5.754   0.971   2.411 -0.1258  0.0439  0.5655
 4382TIP3    H134637   5.686   1.030   2.379  0.5049  0.2026 -0.5476
 4382TIP3    H234638   5.740   0.889   2.363 -0.6123 -0.5183  1.6407
 4383TIP3   OH234639   5.530   5.781  12.437  0.0978 -0.6866 -0.3605
 4383TIP3    H134640   5.626   5.783  12.432  0.0788 -1.1981 -1.4477
 4383TIP3    H234641   5.503   5.872  12.424  0.4422 -0.4353  0.5973
 4384TIP3   OH234642   1.075   6.063  11.276  0.1268  0.8125 -0.0489
 4384TIP3    H134643   0.996   6.117  11.266  0.3953  1.0867 -0.8114
 4384TIP3    H234644   1.067   5.996  11.208 -0.3337 -0.3018  1.0661
 4385TIP3   OH234645   0.111   5.786  11.391  0.3597  0.2197 -0.8669
 4385TIP3    H134646   0.022   5.812  11.364  0.9284  1.1719 -1.9513
 4385TIP3    H234647   0.100   5.748  11.477 -1.5734 -2.7364 -2.2552
 4386TIP3   OH234648   5.566   3.594  12.117  0.6084  0.3319  0.8624
 4386TIP3    H134649   5.585   3.576  12.209  2.0469 -0.7371  0.3872
 4386TIP3    H234650   5.650   3.620  12.080 -0.4811  3.9490  0.4879
 4387TIP3   OH234651   1.806   3.717  13.155 -0.0425  0.4843  0.1770
 4387TIP3    H134652   1.723   3.692  13.194 -0.0615  0.5357  0.1703
 4387TIP3    H234653   1.834   3.794  13.206  1.2070 -0.9760  1.8071
 4388TIP3   OH234654   2.224   2.584  11.554  0.0284  0.0419 -0.3117
 4388TIP3    H134655   2.234   2.635  11.634 -1.5064 -1.0480  0.6354
 4388TIP3    H234656   2.243   2.494  11.580 -2.3201 -0.6194 -0.6588
 4389TIP3   OH234657   3.445   0.393  15.636  0.8823 -0.5481  0.0906
 4389TIP3    H134658   3.448   0.488  15.635 -0.3573 -0.4885  0.1361
 4389TIP3    H234659   3.409   0.371  15.722 -1.6892 -0.9017 -0.9798
 4390TIP3   OH234660   3.482   2.823  12.054 -0.0963 -0.3882  0.1079
 4390TIP3    H134661   3.404   2.790  12.099 -0.2754  0.3010  0.3134
 4390TIP3    H234662   3.506   2.753  11.993 -0.7473 -0.6952  0.1971
 4391TIP3   OH234663   6.462   0.255  13.280  0.0188 -0.0080  0.3002
 4391TIP3    H134664   6.445   0.218  13.193  0.0047  0.3536  0.1459
 4391TIP3    H234665   6.377   0.291  13.307  0.3329  1.0858 -0.1242
 4392TIP3   OH234666   2.438   5.815   0.600 -0.5092 -0.0107 -0.1176
 4392TIP3    H134667   2.507   5.758   0.634 -0.1255 -0.7929 -2.0898
 4392TIP3    H234668   2.359   5.761   0.601 -0.8583  0.4808  0.9446
 4393TIP3   OH234669   0.286   3.386   0.440 -0.5386 -0.3289 -0.2045
 4393TIP3    H134670   0.227   3.457   0.415 -1.2425 -0.2701  1.4619
 4393TIP3    H234671   0.335   3.366   0.360 -0.9838  1.3811 -0.9573
 4394TIP3   OH234672   4.171   4.426  11.619 -0.1575  0.4158 -0.1011
 4394TIP3    H134673   4.154   4.359  11.685  0.5317  0.4118  0.0825
 4394TIP3    H234674   4.142   4.387  11.537  1.6196 -0.7480 -0.2442
 4395TIP3   OH234675   1.189   4.519   3.636 -0.0493  0.3854 -0.2866
 4395TIP3    H134676   1.117   4.456   3.638  0.5132 -0.2735 -0.6436
 4395TIP3    H234677   1.193   4.553   3.725 -0.5190  0.1117 -0.1543
 4396TIP3   OH234678   0.851   2.563  12.442  0.5100 -0.7353  0.0539
 4396TIP3    H134679   0.788   2.504  12.483 -0.1885 -1.3302 -1.7727
 4396TIP3    H234680   0.811   2.650  12.448  0.4557 -0.7995  0.6650
 4397TIP3   OH234681   0.007   2.517  12.081 -0.4293  0.2894 -0.0907
 4397TIP3    H134682  -0.059   2.537  12.147 -1.5224  0.3145 -1.1559
 4397TIP3    H234683  -0.026   2.557  12.001  0.6334 -0.1369 -0.7675
 4398TIP3   OH234684   0.527   5.943   3.877  0.6100  0.4091  0.2849
 4398TIP3    H134685   0.523   5.907   3.965 -1.1222 -0.8228 -0.2577
 4398TIP3    H234686   0.594   6.012   3.883  1.5477 -0.5888  2.1815
 4399TIP3   OH234687   1.720   4.803  12.026 -0.0509  0.7109  0.4884
 4399TIP3    H134688   1.673   4.872  11.980 -1.3048  0.1103  0.8180
 4399TIP3    H234689   1.731   4.734  11.962 -0.8591  0.2991  0.7829
 4400TIP3   OH234690   1.048   5.618  12.235  0.3873  0.2533  0.7026
 4400TIP3    H134691   0.999   5.609  12.153 -0.0905  0.8163  0.9127
 4400TIP3    H234692   1.136   5.643  12.208  0.4864 -0.4700  0.3306
 4401TIP3   OH234693   3.609   5.267   5.150  0.2607  0.3164 -0.1051
 4401TIP3    H134694   3.660   5.291   5.072  0.2832  2.5384  0.5241
 4401TIP3    H234695   3.649   5.186   5.180 -0.7604 -1.5399 -3.2459
 4402TIP3   OH234696   2.604   5.578   0.566 -0.4351  0.0281  0.0801
 4402TIP3    H134697   2.570   5.530   0.641  0.9788 -0.6405  0.3282
 4402TIP3    H234698   2.576   5.527   0.490 -0.7277 -0.0278  0.2238
 4403TIP3   OH234699   1.254   6.139   4.581  0.2934  0.2982  0.0661
 4403TIP3    H134700   1.165   6.106   4.594 -0.3139  1.1831 -1.5274
 4403TIP3    H234701   1.302   6.063   4.547 -0.3718  0.2988 -0.9174
 4404TIP3   OH234702   6.268   6.602   3.572  0.2145 -0.1737 -0.2449
 4404TIP3    H134703   6.178   6.615   3.544  0.0346 -0.2670  0.2752
 4404TIP3    H234704   6.283   6.670   3.638 -0.2044 -1.5200  1.3028
 4405TIP3   OH234705   1.162   2.576  15.664 -0.7031  0.4340  0.5665
 4405TIP3    H134706   1.120   2.657  15.636 -1.1997 -0.1489 -0.4575
 4405TIP3    H234707   1.227   2.558  15.596 -1.2241 -0.4914  0.2963
 4406TIP3   OH234708   2.750   2.151  14.914  0.2212 -0.0843  0.5417
 4406TIP3    H134709   2.814   2.153  14.985  0.4246 -0.0949  0.3601
 4406TIP3    H234710   2.674   2.107  14.952 -0.6523  2.1746  1.5463
 4407TIP3   OH234711   0.166   4.807  15.355  0.1503 -0.0741  0.0234
 4407TIP3    H134712   0.151   4.816  15.261 -1.3988 -0.2557  0.2142
 4407TIP3    H234713   0.158   4.713  15.371  1.1682 -0.1299  0.2352
 4408TIP3   OH234714   6.149   6.603   6.274  0.3423 -0.4313 -0.5238
 4408TIP3    H134715   6.203   6.525   6.287  1.1136  0.3430  1.1344
 4408TIP3    H234716   6.059   6.570   6.271  0.3190 -1.1714  3.4667
 4409TIP3   OH234717   6.443   3.897  15.398  0.1020 -0.2622  0.3369
 4409TIP3    H134718   6.394   3.851  15.330 -0.9576  0.6232  0.4700
 4409TIP3    H234719   6.398   3.875  15.480 -0.6316  1.2080  0.3696
 4410TIP3   OH234720   4.871   4.254  16.780 -0.0167 -0.2257  0.4384
 4410TIP3    H134721   4.886   4.193  16.708  0.7644 -0.2525  0.6148
 4410TIP3    H234722   4.781   4.237  16.807  0.2968 -1.5782  0.7195
 4411TIP3   OH234723   2.488   5.898  11.559 -0.1119 -0.3527  0.3325
 4411TIP3    H134724   2.502   5.973  11.616 -0.2723 -0.9276  1.1447
 4411TIP3    H234725   2.556   5.835  11.585  0.0386 -0.4859 -0.3558
 4412TIP3   OH234726   1.889   3.240  14.827 -0.2426 -0.1547 -0.6036
 4412TIP3    H134727   1.822   3.218  14.892 -0.6364  0.4087 -0.8075
 4412TIP3    H234728   1.943   3.161  14.820 -1.5883 -1.0486 -1.3074
 4413TIP3   OH234729   4.701   3.654   3.182  0.3821 -0.2791 -0.1018
 4413TIP3    H134730   4.770   3.594   3.154  0.5942  0.3427 -0.9634
 4413TIP3    H234731   4.733   3.741   3.158 -0.2992  0.1091  0.3308
 4414TIP3   OH234732   0.005   6.109  15.673  0.0671  0.6517  0.3133
 4414TIP3    H134733   0.030   6.063  15.593  1.5531 -0.3898  1.3152
 4414TIP3    H234734  -0.051   6.046  15.720  0.6217  0.5557  0.8619
 4415TIP3   OH234735   5.511   0.663  15.404  0.3107 -0.6195 -0.0992
 4415TIP3    H134736   5.547   0.750  15.423 -1.0974 -0.3651  1.6422
 4415TIP3    H234737   5.568   0.602  15.450 -0.5223 -0.3426  1.3400
 4416TIP3   OH234738   3.502   1.901   0.605 -0.7072 -0.1372  0.3403
 4416TIP3    H134739   3.448   1.897   0.684 -0.5333  2.2928  0.6457
 4416TIP3    H234740   3.455   1.961   0.547  1.9198  2.7050  0.9211
 4417TIP3   OH234741   0.567   6.268  12.181 -0.4197 -0.3806 -0.3052
 4417TIP3    H134742   0.504   6.254  12.251 -0.2546  0.5092  0.0379
 4417TIP3    H234743   0.517   6.256  12.100 -0.6152 -1.3952 -0.0426
 4418TIP3   OH234744   5.105   4.266   5.105  0.4397 -0.0943  0.7483
 4418TIP3    H134745   5.070   4.339   5.054  0.9900 -0.7746 -0.6545
 4418TIP3    H234746   5.144   4.307   5.182 -2.3343  0.7875  1.8279
 4419TIP3   OH234747   0.471   1.950  12.447 -0.5545 -0.0005  0.0300
 4419TIP3    H134748   0.405   1.896  12.405 -0.0499 -1.1657  0.6855
 4419TIP3    H234749   0.454   1.942  12.541  1.1147 -1.1884  0.2836
 4420TIP3   OH234750   2.871   1.139   5.073  0.3391 -0.1161  0.2766
 4420TIP3    H134751   2.839   1.070   5.130 -1.2320  0.5732  0.2667
 4420TIP3    H234752   2.940   1.097   5.020  0.4705 -1.2457  1.3161
 4421TIP3   OH234753   1.783   4.019  11.554 -0.4925 -0.0095  0.4008
 4421TIP3    H134754   1.723   3.975  11.614 -1.7127 -0.9637 -1.4011
 4421TIP3    H234755   1.733   4.094  11.522  0.1707  0.5338  0.6193
 4422TIP3   OH234756   0.969   3.436  11.954 -0.4282  1.1888 -0.3321
 4422TIP3    H134757   1.012   3.423  12.038 -0.5471 -1.0915 -0.5754
 4422TIP3    H234758   0.876   3.422  11.972 -0.2547 -1.7216 -1.1817
 4423TIP3   OH234759   1.084   5.224  14.158 -0.1329 -0.2677 -0.3729
 4423TIP3    H134760   1.176   5.199  14.144 -0.6300 -2.0969 -0.6497
 4423TIP3    H234761   1.069   5.296  14.097  0.8805 -0.5166 -0.9389
 4424TIP3   OH234762   4.882   2.115  13.804  0.2884  0.5880  0.1080
 4424TIP3    H134763   4.789   2.104  13.783  0.5287  0.6796 -1.1079
 4424TIP3    H234764   4.902   2.042  13.862 -0.7522  1.0959  1.1598
 4425TIP3   OH234765   5.310   1.417   1.196 -0.3383  0.0859 -0.5385
 4425TIP3    H134766   5.402   1.437   1.178 -0.8639  2.0273 -1.2309
 4425TIP3    H234767   5.265   1.432   1.113 -1.4204 -0.0584  0.0059
 4426TIP3   OH234768   1.918   2.377   1.337 -0.2539 -0.0357 -0.1441
 4426TIP3    H134769   1.925   2.436   1.262  1.4590  1.1291  0.8499
 4426TIP3    H234770   1.824   2.374   1.356 -0.5144  1.3352 -1.0469
 4427TIP3   OH234771   2.064   4.484  13.037  0.2906  0.1747 -0.3202
 4427TIP3    H134772   2.098   4.445  12.956  2.2390  0.6992  0.1846
 4427TIP3    H234773   2.064   4.578  13.020 -1.1595  0.1836 -0.3599
 4428TIP3   OH234774   4.530   5.102   4.451 -0.2602  0.2426 -0.2319
 4428TIP3    H134775   4.595   5.129   4.386  0.7974  0.1972  0.7833
 4428TIP3    H234776   4.576   5.040   4.508 -1.4648 -0.5273 -0.0419
 4429TIP3   OH234777   5.914   6.594  12.532  0.2061 -0.1968  0.1505
 4429TIP3    H134778   5.864   6.513  12.545  0.1354  0.2000  2.8890
 4429TIP3    H234779   5.856   6.649  12.480  0.4261 -1.9840 -2.1667
 4430TIP3   OH234780   0.814   5.131  12.911  0.0806  0.0231 -0.1846
 4430TIP3    H134781   0.854   5.099  12.992 -2.1390 -1.3884  0.4433
 4430TIP3    H234782   0.827   5.226  12.915  0.0105  0.0060  1.8776
 4431TIP3   OH234783   3.764   0.662  17.069  0.0774 -0.2146 -0.8351
 4431TIP3    H134784   3.713   0.587  17.039  2.5884 -1.6956 -1.7023
 4431TIP3    H234785   3.844   0.624  17.105  0.3749  1.9578  1.0355
 4432TIP3   OH234786   4.357   5.290  13.750  0.4470  0.1108 -0.7124
 4432TIP3    H134787   4.335   5.257  13.663  0.7887  0.3495 -0.8899
 4432TIP3    H234788   4.282   5.344  13.775 -0.8975 -2.0780  0.2760
 4433TIP3   OH234789   3.429   6.351  11.998  0.1904 -0.4826 -0.7905
 4433TIP3    H134790   3.498   6.288  12.019  0.6708 -0.3714 -1.9683
 4433TIP3    H234791   3.475   6.423  11.956 -0.7747 -1.0260 -2.9043
 4434TIP3   OH234792   4.782   5.962   3.857  0.0948  0.0368  0.3338
 4434TIP3    H134793   4.792   6.053   3.883  0.8446  0.4647 -1.3213
 4434TIP3    H234794   4.692   5.955   3.826 -0.4419 -0.1955  1.8599
 4435TIP3   OH234795   0.053   3.277  16.663  0.7421 -0.9223 -0.3919
 4435TIP3    H134796  -0.007   3.212  16.700  1.2503 -1.7520 -0.9957
 4435TIP3    H234797   0.137   3.232  16.657  1.0046 -0.3561 -1.2340
 4436TIP3   OH234798   5.723   5.805  15.381 -0.8621 -0.4860  0.0135
 4436TIP3    H134799   5.705   5.778  15.291  1.4951  2.3136 -1.4523
 4436TIP3    H234800   5.669   5.883  15.394  1.2673  1.1272 -0.2933
 4437TIP3   OH234801   6.475   2.487  15.596 -0.1175  0.4881  0.7919
 4437TIP3    H134802   6.387   2.524  15.587 -0.8628 -1.1061  1.1426
 4437TIP3    H234803   6.468   2.427  15.670  1.4247  0.7456  1.1682
 4438TIP3   OH234804   4.703   2.913  13.601  0.1545 -0.1964  0.4168
 4438TIP3    H134805   4.769   2.974  13.631 -0.9840  1.2330  0.1648
 4438TIP3    H234806   4.712   2.836  13.657  1.9260  0.0022  0.4363
 4439TIP3   OH234807   3.401   1.353   1.880  0.5611 -0.6897  0.5195
 4439TIP3    H134808   3.433   1.358   1.790 -0.0462 -1.7496  0.2277
 4439TIP3    H234809   3.374   1.442   1.901 -0.5338 -0.6723 -0.8246
 4440TIP3   OH234810   5.598   0.937   2.927  0.1526  0.2386  0.1089
 4440TIP3    H134811   5.524   0.953   2.985  0.2004 -0.1895  0.2865
 4440TIP3    H234812   5.558   0.903   2.847  0.3473 -3.6667  1.4821
 4441TIP3   OH234813   3.388   5.066  10.601 -0.4435  0.4608 -0.2591
 4441TIP3    H134814   3.450   5.120  10.651 -0.9145  0.0489  0.8087
 4441TIP3    H234815   3.316   5.126  10.580  0.5179  1.0848 -1.9773
 4442TIP3   OH234816   5.346   4.101   5.647  0.0165 -0.9246  1.0854
 4442TIP3    H134817   5.386   4.021   5.612  0.1795 -0.4248  0.0885
 4442TIP3    H234818   5.398   4.122   5.725  1.3459 -0.6042  0.1412
 4443TIP3   OH234819   5.021   6.655  13.170 -0.4128 -0.3335  0.6071
 4443TIP3    H134820   4.993   6.671  13.260 -0.7590  0.0984  0.4314
 4443TIP3    H234821   5.106   6.697  13.163 -0.3699 -0.3983  0.7440
 4444TIP3   OH234822   6.495   6.249   1.359 -0.3624 -0.3048 -0.0734
 4444TIP3    H134823   6.516   6.279   1.271 -1.0893 -0.2500 -0.2290
 4444TIP3    H234824   6.443   6.171   1.346  0.1667 -0.7305  0.3215
 4445TIP3   OH234825   0.405   5.019  11.789  0.3927 -0.1152  0.6081
 4445TIP3    H134826   0.467   5.034  11.860 -0.9961  2.5089  1.4073
 4445TIP3    H234827   0.388   5.106  11.753 -0.8380 -1.0812 -1.3053
 4446TIP3   OH234828   3.735   5.947   2.442  0.0071  0.4433 -0.1217
 4446TIP3    H134829   3.736   6.010   2.370  0.0141 -0.2668 -0.7555
 4446TIP3    H234830   3.825   5.946   2.474 -0.0713  1.0137  0.1278
 4447TIP3   OH234831   5.707   5.294   0.016  0.0072  0.3651  0.0220
 4447TIP3    H134832   5.693   5.388   0.032 -1.1117 -0.1322  2.2562
 4447TIP3    H234833   5.644   5.272  -0.053 -0.6150  1.0085  0.3736
 4448TIP3   OH234834   2.243   1.901  15.776  0.1609  0.4912  0.1463
 4448TIP3    H134835   2.211   1.814  15.801  0.9217 -0.3440 -1.6195
 4448TIP3    H234836   2.174   1.961  15.804 -0.1340 -0.5874  1.9003
 4449TIP3   OH234837   2.296   2.771  11.740 -0.7809 -0.0543 -0.3802
 4449TIP3    H134838   2.233   2.798  11.807 -1.8213 -0.8558 -1.0100
 4449TIP3    H234839   2.303   2.847  11.682 -1.3416 -0.0399 -0.4330
 4450TIP3   OH234840   5.087   3.237  13.693 -0.2063 -0.3558 -0.1269
 4450TIP3    H134841   5.125   3.152  13.714 -1.4331 -1.3710 -1.7390
 4450TIP3    H234842   4.993   3.220  13.685 -0.8798  1.7174  2.0851
 4451TIP3   OH234843   2.324   6.138  15.308 -0.2763 -0.1834 -0.4435
 4451TIP3    H134844   2.264   6.070  15.277 -0.2451  0.7916 -2.8575
 4451TIP3    H234845   2.410   6.095  15.313 -0.1434 -0.2410 -2.5195
 4452TIP3   OH234846   1.081   5.292   2.089  0.1729 -0.0692 -0.1101
 4452TIP3    H134847   1.146   5.263   2.025 -0.6660 -5.0421  0.8846
 4452TIP3    H234848   1.012   5.333   2.037  2.4265  2.3029 -1.4920
 4453TIP3   OH234849   3.376   1.707   6.107 -0.0524 -0.4721 -0.2342
 4453TIP3    H134850   3.462   1.743   6.130 -0.3505  1.5019 -1.8893
 4453TIP3    H234851   3.318   1.737   6.178  0.4388 -1.1221  0.4628
 4454TIP3   OH234852   6.487   4.016   5.063 -0.3669 -0.4200 -0.0727
 4454TIP3    H134853   6.398   3.994   5.034 -0.0663 -0.2030 -1.2331
 4454TIP3    H234854   6.541   3.945   5.030  0.0398  0.0090 -0.3486
 4455TIP3   OH234855   6.671   3.076  15.122 -0.2185 -0.3599 -0.3718
 4455TIP3    H134856   6.610   3.032  15.063  1.8555 -2.5900 -1.0028
 4455TIP3    H234857   6.719   3.005  15.164  0.0965  1.2362  2.1703
 4456TIP3   OH234858   6.254   2.530  15.431  0.1654 -0.3907  0.7067
 4456TIP3    H134859   6.242   2.624  15.418 -3.2209 -0.6055  1.1771
 4456TIP3    H234860   6.179   2.504  15.486  0.5815 -3.4819  0.0143
 4457TIP3   OH234861   2.115   6.243   2.918 -0.0783 -0.0510 -0.0759
 4457TIP3    H134862   2.033   6.249   2.967 -0.4689  1.6998 -0.8616
 4457TIP3    H234863   2.158   6.165   2.952 -1.6980 -0.5502  0.9234
 4458TIP3   OH234864   4.138   1.047  15.693  0.0076 -0.1314  0.4115
 4458TIP3    H134865   4.151   1.059  15.787  0.9323 -0.3070  0.3128
 4458TIP3    H234866   4.043   1.040  15.683 -0.1519  0.5890  1.2442
 4459TIP3   OH234867   0.470   6.662   2.063 -0.2205  0.3718 -0.0015
 4459TIP3    H134868   0.424   6.734   2.020 -0.1912 -0.2528 -1.1126
 4459TIP3    H234869   0.522   6.622   1.994  0.6152 -0.0513  0.8396
 4460TIP3   OH234870   5.244   1.561   0.403 -0.6566  0.5812 -0.0167
 4460TIP3    H134871   5.326   1.572   0.452 -0.5790 -0.2112  0.0416
 4460TIP3    H234872   5.229   1.647   0.363 -0.0686  0.8827  0.3880
 4461TIP3   OH234873   0.621   0.172   1.413 -0.1121  0.4702 -0.5542
 4461TIP3    H134874   0.580   0.215   1.489 -1.3094  1.1389 -1.5440
 4461TIP3    H234875   0.673   0.101   1.451 -2.1272 -0.3848  0.8147
 4462TIP3   OH234876   5.857   6.665   4.816  0.1448  0.0313  0.2980
 4462TIP3    H134877   5.841   6.675   4.909 -1.4615  0.5070 -0.0111
 4462TIP3    H234878   5.858   6.754   4.781  1.9037 -0.0636  0.0088
 4463TIP3   OH234879   0.533   6.461   4.866  0.7195  0.2311  0.4674
 4463TIP3    H134880   0.623   6.428   4.859  0.4814 -0.7274  1.5513
 4463TIP3    H234881   0.479   6.382   4.871 -0.3933  0.7431 -1.8942
 4464TIP3   OH234882   1.166   1.482   4.328  0.3341 -0.3505 -0.4126
 4464TIP3    H134883   1.102   1.503   4.261  1.9329  0.4485 -1.7519
 4464TIP3    H234884   1.205   1.400   4.299  1.4564  0.3081 -0.8146
 4465TIP3   OH234885   2.687   5.141  11.231 -0.3844  0.0379 -0.3406
 4465TIP3    H134886   2.660   5.232  11.225  0.5587  0.5381  1.7794
 4465TIP3    H234887   2.624   5.092  11.178 -0.7131  1.9370 -1.7772
 4466TIP3   OH234888   4.405   1.620   4.884 -0.2486  0.1328  0.2455
 4466TIP3    H134889   4.344   1.676   4.836 -0.1957  0.5557  0.6593
 4466TIP3    H234890   4.364   1.609   4.970  1.7654  3.1746  1.7577
 4467TIP3   OH234891   2.500   1.887  15.113 -0.3872 -0.1180 -0.2683
 4467TIP3    H134892   2.467   1.861  15.199 -0.3914  0.1445 -0.1893
 4467TIP3    H234893   2.578   1.832  15.100  0.1234  0.4446  0.2870
 4468TIP3   OH234894   0.025   2.367   2.174  0.6441 -0.0547 -0.0431
 4468TIP3    H134895   0.111   2.350   2.213 -0.2526 -0.2266  1.9631
 4468TIP3    H234896  -0.016   2.281   2.168 -1.6862  0.4101  4.8043
 4469TIP3   OH234897   5.255   1.825   6.020  0.1584 -0.6059  0.0439
 4469TIP3    H134898   5.337   1.782   5.996 -0.3546 -2.1987  0.9885
 4469TIP3    H234899   5.187   1.773   5.977 -0.4023  0.1619 -0.0104
 4470TIP3   OH234900   5.762   5.573   4.608 -0.1702 -0.0793  0.3740
 4470TIP3    H134901   5.823   5.529   4.548  1.1047  1.8868  0.1291
 4470TIP3    H234902   5.694   5.608   4.551  0.4948  0.9118  0.1688
 4471TIP3   OH234903   3.580   2.966   2.151  0.1450  0.1605  0.3802
 4471TIP3    H134904   3.526   2.901   2.195  0.7635 -0.1549  0.6796
 4471TIP3    H234905   3.544   2.971   2.062 -0.7183  0.3605  0.7274
 4472TIP3   OH234906   5.399   5.682  12.671 -0.9470 -0.2095  0.2557
 4472TIP3    H134907   5.413   5.721  12.585 -0.4958 -1.2042 -0.1316
 4472TIP3    H234908   5.308   5.651  12.668 -1.2009  0.4972  0.4471
 4473TIP3   OH234909   3.007   4.209  12.189  0.5220  0.6386 -0.3795
 4473TIP3    H134910   2.934   4.263  12.159  0.1475  0.3344 -0.0222
 4473TIP3    H234911   3.077   4.225  12.125  0.7515  2.2798  0.2382
 4474TIP3   OH234912   5.381   5.244   1.517 -0.1121 -0.1514  0.2781
 4474TIP3    H134913   5.362   5.150   1.506 -0.1200  0.0704 -2.0761
 4474TIP3    H234914   5.343   5.266   1.602 -0.7800 -2.1303  0.5453
 4475TIP3   OH234915   6.231   0.830   1.373  0.2352 -0.2125  0.2871
 4475TIP3    H134916   6.293   0.798   1.307  1.1134  1.1882  0.3933
 4475TIP3    H234917   6.260   0.790   1.455  1.6379  1.1650  0.5124
 4476TIP3   OH234918   1.192   6.187  12.488  0.2477 -0.6393  0.2274
 4476TIP3    H134919   1.206   6.092  12.483  1.4037 -0.4774  0.2569
 4476TIP3    H234920   1.212   6.218  12.400 -3.0694 -0.7387 -0.7330
 4477TIP3   OH234921   6.110   6.017   5.868  0.5539 -0.3527  0.1341
 4477TIP3    H134922   6.123   5.944   5.928  0.3447 -2.0264 -1.7588
 4477TIP3    H234923   6.058   6.080   5.918 -1.9447 -2.8236  0.9116
 4478TIP3   OH234924   5.531   1.996  17.186  0.2908 -0.2446  0.0133
 4478TIP3    H134925   5.464   2.065  17.192 -2.2695 -2.4607 -0.8419
 4478TIP3    H234926   5.494   1.923  17.235  1.4949 -1.9996 -1.5496
 4479TIP3   OH234927   3.584   5.743  15.874  0.7591 -0.5687 -0.2533
 4479TIP3    H134928   3.597   5.781  15.961  1.9161 -1.3826 -0.0497
 4479TIP3    H234929   3.666   5.761  15.828  0.3598 -0.6237 -0.9987
 4480TIP3   OH234930   1.334   1.213   5.677  0.0687  0.3470  0.6384
 4480TIP3    H134931   1.275   1.185   5.748 -1.7398  2.2780  0.0175
 4480TIP3    H234932   1.372   1.294   5.710  0.7113  0.2398  0.1588
 4481TIP3   OH234933   2.888   1.267  14.763  0.9115 -0.8418 -0.0574
 4481TIP3    H134934   2.887   1.172  14.756  0.5015 -0.7205 -2.5687
 4481TIP3    H234935   2.980   1.291  14.753  0.9749 -0.9510  0.2527
 4482TIP3   OH234936   1.564   1.554   5.089 -0.1155 -0.9285 -0.4247
 4482TIP3    H134937   1.603   1.627   5.040 -3.0806  0.3359 -1.1751
 4482TIP3    H234938   1.556   1.587   5.179  2.0042 -1.8562  0.1484
 4483TIP3   OH234939   4.258   2.957  12.333  0.0727  0.6387  0.6253
 4483TIP3    H134940   4.242   2.906  12.254  1.1428 -1.9976  2.0100
 4483TIP3    H234941   4.189   3.023  12.333 -1.6802 -1.0730 -1.0645
 4484TIP3   OH234942   4.837   4.179  11.879  0.5532  0.1971 -0.4774
 4484TIP3    H134943   4.800   4.164  11.792  1.1296 -2.6805 -0.3233
 4484TIP3    H234944   4.871   4.269  11.875  0.7400  0.1053 -3.2998
 4485TIP3   OH234945   6.458   4.913   2.806  0.7732  0.3634  0.4357
 4485TIP3    H134946   6.500   4.930   2.721  1.8841  1.2357  1.1276
 4485TIP3    H234947   6.484   4.823   2.827  0.3382  0.0759 -0.2269
 4486TIP3   OH234948   2.231   5.538  15.967 -0.3204 -0.2825 -0.0842
 4486TIP3    H134949   2.212   5.632  15.958  1.1707  0.1066  0.4805
 4486TIP3    H234950   2.183   5.512  16.046 -0.3664  0.1224  0.0242
 4487TIP3   OH234951   0.417   5.792   4.690  0.3428  0.1307 -0.2672
 4487TIP3    H134952   0.425   5.881   4.655 -1.2288  0.1532 -0.6369
 4487TIP3    H234953   0.346   5.798   4.755  0.1761 -0.8608 -0.3409
 4488TIP3   OH234954   2.749   1.798  15.141  0.5490  0.5093 -0.5419
 4488TIP3    H134955   2.832   1.798  15.189  0.2695  0.7987 -0.0414
 4488TIP3    H234956   2.760   1.864  15.073  1.3213 -0.6331 -1.5518
 4489TIP3   OH234957   0.188   1.565  13.261  0.0999  0.3774 -0.0869
 4489TIP3    H134958   0.104   1.606  13.244  0.7992  1.6530 -0.5687
 4489TIP3    H234959   0.166   1.475  13.286 -1.3782  0.6345 -0.3802
 4490TIP3   OH234960   2.244   0.861   5.536 -0.1547 -0.2549 -0.1045
 4490TIP3    H134961   2.212   0.853   5.446 -3.0127 -0.7569  0.8503
 4490TIP3    H234962   2.188   0.929   5.575  2.2935  1.3484  0.8420
 4491TIP3   OH234963   6.248   0.461   2.389 -0.1070  0.3654  0.4093
 4491TIP3    H134964   6.260   0.549   2.354  0.6709 -0.2208 -0.8626
 4491TIP3    H234965   6.303   0.405   2.334 -0.2890 -0.8691  1.4306
 4492TIP3   OH234966   3.520   2.019  16.181  0.3034  0.8291 -0.4073
 4492TIP3    H134967   3.590   2.043  16.242  0.1862  0.7103 -0.2275
 4492TIP3    H234968   3.444   2.068  16.211 -0.0962 -0.1993  0.3152
 4493TIP3   OH234969   2.699   2.720   5.061  0.0109  0.5380 -0.1291
 4493TIP3    H134970   2.687   2.626   5.053 -1.1501  0.6195  0.3936
 4493TIP3    H234971   2.784   2.730   5.103 -0.4084 -0.3277  0.9749
 4494TIP3   OH234972   6.838   2.495  14.953 -0.2767 -0.1487 -0.1229
 4494TIP3    H134973   6.916   2.443  14.931  0.9030  0.1788  2.8407
 4494TIP3    H234974   6.779   2.433  14.996 -1.2258 -0.1432 -1.3568
 4495TIP3   OH234975   1.452   2.421   2.008 -0.0703  0.1166 -0.0151
 4495TIP3    H134976   1.529   2.376   1.972  0.5706  0.3878  0.9940
 4495TIP3    H234977   1.476   2.443   2.097 -0.4526  2.2620 -0.3915
 4496TIP3   OH234978   6.159   0.624   4.769 -0.8658  0.5039  0.1236
 4496TIP3    H134979   6.182   0.717   4.776  0.0260  0.2139  1.3124
 4496TIP3    H234980   6.220   0.579   4.828 -2.6488 -0.6157  1.2293
 4497TIP3   OH234981   1.790   6.144   4.517  0.2481 -0.3748  0.0349
 4497TIP3    H134982   1.748   6.194   4.587  0.1987  0.1512 -0.3648
 4497TIP3    H234983   1.754   6.056   4.525 -0.8913  0.0462 -0.2614
 4498TIP3   OH234984   2.488   6.357   3.991  0.4156  0.4661  0.0835
 4498TIP3    H134985   2.540   6.367   3.911 -1.2234 -0.8541 -1.2225
 4498TIP3    H234986   2.462   6.446   4.014 -1.3753  0.7038 -2.4912
 4499TIP3   OH234987   3.376   2.782  14.642  0.6861 -0.0147  0.2597
 4499TIP3    H134988   3.294   2.830  14.649  1.2940  0.9057  1.4712
 4499TIP3    H234989   3.387   2.740  14.727  2.5388  1.7300  0.9695
 4500TIP3   OH234990   0.784   4.913  14.859  0.4536 -0.0914  0.2997
 4500TIP3    H134991   0.840   4.855  14.910  0.1951 -0.7247 -0.1276
 4500TIP3    H234992   0.826   4.999  14.866  0.9906 -0.3825  0.7096
 4501TIP3   OH234993   3.140   2.710   5.912 -0.0335 -0.3589 -0.3784
 4501TIP3    H134994   3.155   2.621   5.880  0.3788 -0.4081 -0.0633
 4501TIP3    H234995   3.048   2.711   5.938  0.0586 -0.8095 -0.0224
 4502TIP3   OH234996   2.861   0.610  15.631  0.1674  0.0576  0.2564
 4502TIP3    H134997   2.898   0.565  15.707  0.5686  0.2311  0.1677
 4502TIP3    H234998   2.769   0.623  15.654  0.4561  0.8266  1.0678
 4503TIP3   OH234999   5.612   3.544  11.600  0.0438 -0.4431 -0.3208
 4503TIP3    H135000   5.583   3.536  11.509  0.4059 -0.9166 -0.4002
 4503TIP3    H235001   5.624   3.453  11.629  1.5444 -0.2653 -0.3300
 4504TIP3   OH235002   1.366   6.648  12.885 -0.1992 -0.7280  0.3069
 4504TIP3    H135003   1.365   6.628  12.792 -0.4919  0.0114  0.1437
 4504TIP3    H235004   1.289   6.704  12.898 -0.3780 -1.1252  1.0636
 4505TIP3   OH235005   0.750   3.460   2.863  0.1679  0.3457 -0.1834
 4505TIP3    H135006   0.816   3.530   2.862  0.3781  0.1728  0.7307
 4505TIP3    H235007   0.667   3.506   2.875  0.4966  0.3643  2.8097
 4506TIP3   OH235008   6.627   2.966  11.147  0.5589 -0.1429  0.1426
 4506TIP3    H135009   6.700   2.965  11.086 -0.0625  2.0448 -0.7197
 4506TIP3    H235010   6.555   2.923  11.101  0.5101  0.1790 -0.0773
 4507TIP3   OH235011   3.723   5.523   2.883 -0.0918 -0.4453 -0.0819
 4507TIP3    H135012   3.669   5.590   2.840  0.7201 -1.4106 -2.7717
 4507TIP3    H235013   3.811   5.561   2.885 -0.5320  0.7743  3.5335
 4508TIP3   OH235014   3.496   3.649  12.876  0.1900 -0.0715  0.0108
 4508TIP3    H135015   3.465   3.561  12.897 -2.0374  0.7648  0.5501
 4508TIP3    H235016   3.473   3.662  12.784 -0.5152  0.3164  0.2316
 4509TIP3   OH235017   6.428   0.806  11.612  0.1253  0.2034 -0.3662
 4509TIP3    H135018   6.466   0.783  11.697 -0.1398 -1.7467 -0.7330
 4509TIP3    H235019   6.406   0.899  11.620 -1.8824 -0.4156  2.4619
 4510TIP3   OH235020   1.203   5.815   0.200  0.4038 -0.2652  0.5911
 4510TIP3    H135021   1.207   5.879   0.272  1.3205  0.3243  0.0518
 4510TIP3    H235022   1.204   5.869   0.121  2.1553 -0.9341  0.0980
 4511TIP3   OH235023   2.775   3.063  15.475 -0.0222  0.3608  0.0792
 4511TIP3    H135024   2.767   2.983  15.527 -1.0382  0.6340  0.3635
 4511TIP3    H235025   2.870   3.079  15.470  0.1263  1.0348  2.9993
 4512TIP3   OH235026   0.780   2.466  11.503  0.0225 -0.2495 -0.2820
 4512TIP3    H135027   0.739   2.495  11.584  1.0674 -0.6583  0.4114
 4512TIP3    H235028   0.805   2.375  11.519  2.0450  0.2509 -0.3108
 4513TIP3   OH235029   4.827   1.486  11.002 -0.5473  0.3036  0.1233
 4513TIP3    H135030   4.791   1.556  10.946 -0.6260  0.5706  0.5032
 4513TIP3    H235031   4.899   1.449  10.951 -1.5481 -0.4529 -0.7982
 4514TIP3   OH235032   4.858   0.861   4.660  0.6269  0.0967  0.0590
 4514TIP3    H135033   4.793   0.925   4.687  0.8111 -0.4263  1.8651
 4514TIP3    H235034   4.932   0.914   4.629  0.2323  0.7166  0.1531
 4515TIP3   OH235035   0.982   5.338  12.707 -0.0327 -0.0902 -0.0359
 4515TIP3    H135036   0.910   5.364  12.765 -0.2352 -0.5967 -0.0561
 4515TIP3    H235037   1.044   5.294  12.764 -0.8827 -1.8576 -0.4168
 4516TIP3   OH235038   3.925   5.441  16.490 -0.1031 -0.3788  0.0736
 4516TIP3    H135039   3.858   5.376  16.512  1.3058 -2.3721 -1.1188
 4516TIP3    H235040   3.973   5.456  16.571 -1.8958  1.0715  0.9404
 4517TIP3   OH235041   6.714   3.617  14.726 -0.3416  0.0927 -0.4441
 4517TIP3    H135042   6.765   3.536  14.729 -2.0101 -1.1859 -3.1009
 4517TIP3    H235043   6.734   3.661  14.810  4.0518 -0.8381 -0.7291
 4518TIP3   OH235044   2.417   1.729   6.074  0.4779  0.1797 -0.5519
 4518TIP3    H135045   2.426   1.817   6.109 -0.1426  0.6119 -1.4593
 4518TIP3    H235046   2.402   1.674   6.151  0.2314  0.9492 -0.0401
 4519TIP3   OH235047   3.825   4.799   0.407 -0.3839 -0.1500 -0.0087
 4519TIP3    H135048   3.769   4.738   0.357  0.4993 -0.4841 -0.6072
 4519TIP3    H235049   3.788   4.798   0.495 -0.8093 -1.0311 -0.1844
 4520TIP3   OH235050   5.178   2.577  12.584  0.1219  0.5166  0.0357
 4520TIP3    H135051   5.116   2.514  12.547  0.6879 -0.3033  0.4767
 4520TIP3    H235052   5.227   2.610  12.508  1.4761 -1.3643  0.0221
 4521TIP3   OH235053   0.193   5.859   4.847  0.0752  0.0749  0.4917
 4521TIP3    H135054   0.211   5.871   4.940 -0.6648 -1.2878  0.8491
 4521TIP3    H235055   0.114   5.910   4.831  0.1709  0.2640  0.6199
 4522TIP3   OH235056   4.718   2.029   5.017  0.6343 -0.0869  0.5637
 4522TIP3    H135057   4.805   2.034   5.057  0.4792 -2.4926  1.3500
 4522TIP3    H235058   4.670   1.966   5.070 -1.1158  0.0334 -0.7632
 4523TIP3   OH235059   6.179   6.545  15.160 -0.0362  0.2760  0.5709
 4523TIP3    H135060   6.202   6.635  15.139 -0.0813  0.1317 -0.1125
 4523TIP3    H235061   6.100   6.528  15.108 -0.6524  0.1885  1.5135
 4524TIP3   OH235062   1.258   0.596   2.940  0.3877  0.2713 -0.1644
 4524TIP3    H135063   1.327   0.641   2.890  1.4433 -0.0814  0.9400
 4524TIP3    H235064   1.304   0.527   2.987 -0.8906 -0.5987 -0.1501
 4525TIP3   OH235065   5.701   4.279   4.981  0.1878 -0.0584  1.1456
 4525TIP3    H135066   5.608   4.296   4.998  0.4614  0.2682  2.4046
 4525TIP3    H235067   5.741   4.365   4.976  0.3007 -0.1687 -0.2963
 4526TIP3   OH235068   3.149   2.556   2.970  0.2290 -0.0768 -0.0656
 4526TIP3    H135069   3.121   2.528   3.057  1.5373 -0.4127  0.2653
 4526TIP3    H235070   3.204   2.485   2.938 -0.4852 -0.1018 -1.3169
 4527TIP3   OH235071   6.825   0.678  14.093  0.4314  0.0587 -0.0191
 4527TIP3    H135072   6.801   0.586  14.094 -1.0108  0.4018 -0.3745
 4527TIP3    H235073   6.895   0.684  14.028 -0.7822 -0.5035 -1.4189
 4528TIP3   OH235074   4.175   1.409   3.704 -0.2579  0.3809  0.5482
 4528TIP3    H135075   4.169   1.487   3.760 -0.4557 -0.1222  1.2398
 4528TIP3    H235076   4.086   1.400   3.667  0.0838  1.2017 -0.5470
 4529TIP3   OH235077   1.837   5.532   1.794 -0.4070 -0.0417 -0.3251
 4529TIP3    H135078   1.872   5.603   1.740 -0.8557  0.5973  0.2131
 4529TIP3    H235079   1.846   5.454   1.739  0.1630  0.4142 -0.8953
 4530TIP3   OH235080   2.869   0.301   5.186  1.3352 -0.0671  0.3849
 4530TIP3    H135081   2.799   0.366   5.194  2.2532  1.2130 -1.4020
 4530TIP3    H235082   2.940   0.336   5.240  3.4153  2.8303 -3.6707
 4531TIP3   OH235083   2.785   5.291   5.632 -0.6360 -0.6100 -0.2836
 4531TIP3    H135084   2.852   5.240   5.587  0.1783  0.3071 -0.1273
 4531TIP3    H235085   2.790   5.262   5.723 -1.5011 -1.6268 -0.5304
 4532TIP3   OH235086   0.566   3.643   1.296 -0.0169  0.1878 -0.4753
 4532TIP3    H135087   0.515   3.612   1.222  0.2533 -0.3671 -0.4301
 4532TIP3    H235088   0.502   3.688   1.352  0.0678  2.1799 -1.8769
 4533TIP3   OH235089   4.524   5.744   4.780 -0.0003 -0.0281  0.3216
 4533TIP3    H135090   4.499   5.664   4.733  1.0632  0.0324 -0.3840
 4533TIP3    H235091   4.610   5.766   4.745  0.0352  1.0294  1.0370
 4534TIP3   OH235092   0.475   1.455  13.568 -0.4929  0.2714 -0.5296
 4534TIP3    H135093   0.436   1.372  13.539 -0.2519 -0.3906  0.9429
 4534TIP3    H235094   0.401   1.507  13.598 -0.4022 -0.7524  1.6947
 4535TIP3   OH235095   4.007   3.099   3.678  0.0705 -0.4701  0.0953
 4535TIP3    H135096   4.064   3.122   3.605 -0.2996 -0.3704 -0.1689
 4535TIP3    H235097   4.061   3.045   3.735  0.3401 -0.6202 -0.2950
 4536TIP3   OH235098   0.432   2.084   5.240 -0.3360  0.0388 -0.4695
 4536TIP3    H135099   0.399   2.168   5.272 -2.1719 -0.8807  0.1817
 4536TIP3    H235100   0.458   2.101   5.149 -0.1994  1.4068 -0.1915
 4537TIP3   OH235101   0.082   5.504   4.194 -0.4018 -0.2943  0.7052
 4537TIP3    H135102   0.067   5.586   4.148  0.5996  0.1065  1.0647
 4537TIP3    H235103   0.079   5.527   4.287 -1.7467 -0.9730  0.8608
 4538TIP3   OH235104   4.891   2.412  13.431  0.1468  0.1015  0.6489
 4538TIP3    H135105   4.842   2.351  13.486  1.3476 -0.9846  0.5631
 4538TIP3    H235106   4.929   2.357  13.362  1.1807  0.9594  0.5077
 4539TIP3   OH235107   2.557   1.843   5.382  0.0526 -0.0503  0.0890
 4539TIP3    H135108   2.525   1.825   5.471 -0.4124 -3.7396 -0.6694
 4539TIP3    H235109   2.650   1.822   5.386  0.6246  2.3036  0.2374
 4540TIP3   OH235110   1.486   6.377  13.660  0.4472 -0.4877  0.0052
 4540TIP3    H135111   1.507   6.291  13.698  2.1057  0.2058  0.7521
 4540TIP3    H235112   1.555   6.392  13.596  0.1802  0.3058 -0.1045
 4541TIP3   OH235113   0.052   2.297  14.163 -0.4078 -0.3548  0.1992
 4541TIP3    H135114   0.126   2.333  14.214 -0.9498  0.3138  0.5239
 4541TIP3    H235115   0.078   2.310  14.072  0.2802 -0.9612  0.2912
 4542TIP3   OH235116   0.861   2.968   0.733  0.6252  0.0656 -0.3959
 4542TIP3    H135117   0.831   2.911   0.804  1.6721 -0.5478 -0.4232
 4542TIP3    H235118   0.896   3.045   0.777 -0.1727  0.4073 -0.3310
 4543TIP3   OH235119   6.636   3.424  11.557  0.4351 -0.0603  0.4671
 4543TIP3    H135120   6.601   3.471  11.481  1.1781  1.3421  0.9592
 4543TIP3    H235121   6.721   3.391  11.528  0.5118  0.0719  0.5415
 4544TIP3   OH235122   2.734   2.308  12.709  0.5022  0.2030  0.4528
 4544TIP3    H135123   2.722   2.239  12.774  0.2646 -0.4691 -0.2866
 4544TIP3    H235124   2.665   2.372  12.729  1.8832  1.1924  2.3197
 4545TIP3   OH235125   2.327   1.957   3.321 -0.2887 -0.5947 -0.5644
 4545TIP3    H135126   2.231   1.958   3.313 -0.7423 -1.4993  3.1225
 4545TIP3    H235127   2.348   2.037   3.369  0.5371 -1.4666  0.5661
 4546TIP3   OH235128   5.778   2.215  14.143  0.1488  0.0202  0.6956
 4546TIP3    H135129   5.772   2.272  14.066 -0.4447  0.6083  1.1603
 4546TIP3    H235130   5.870   2.191  14.148 -0.0148 -1.0115 -0.8842
 4547TIP3   OH235131   6.751   4.848   5.016  0.4808 -0.1016 -0.5112
 4547TIP3    H135132   6.661   4.817   5.003  0.2639 -0.0027  0.6406
 4547TIP3    H235133   6.803   4.768   5.020  0.1214 -0.2952  1.0001
 4548TIP3   OH235134   1.000   6.537   1.859 -0.3508 -0.2723  0.4935
 4548TIP3    H135135   0.917   6.498   1.885 -0.3445  0.9644  2.5993
 4548TIP3    H235136   1.052   6.463   1.827 -2.4896 -0.9547 -1.7813
 4549TIP3   OH235137   1.585   2.348   0.195 -0.6970 -0.5860  0.3660
 4549TIP3    H135138   1.584   2.321   0.103 -0.0275  0.9521 -0.1300
 4549TIP3    H235139   1.515   2.413   0.201  0.5824  0.8166  0.4319
 4550TIP3   OH235140   4.122   3.799  15.438 -0.0843 -1.0494 -0.4997
 4550TIP3    H135141   4.184   3.754  15.496 -1.8055 -0.2466  2.1887
 4550TIP3    H235142   4.131   3.891  15.460 -0.2805 -0.6191 -2.1261
 4551TIP3   OH235143   3.495   3.586   1.949 -0.0785 -0.1747  0.2267
 4551TIP3    H135144   3.557   3.519   1.979  0.7619  0.8192  0.7668
 4551TIP3    H235145   3.548   3.665   1.939 -0.7847  0.1005 -1.7204
 4552TIP3   OH235146   1.755   4.663   4.929 -0.4784  0.6295  0.3393
 4552TIP3    H135147   1.728   4.592   4.987  0.4077  1.3551  1.7031
 4552TIP3    H235148   1.683   4.725   4.931 -1.0105  0.0508 -0.4022
 4553TIP3   OH235149   5.603   5.106  13.500 -0.1455 -0.1158  1.2844
 4553TIP3    H135150   5.670   5.038  13.508  0.8072  0.6782  0.3382
 4553TIP3    H235151   5.650   5.188  13.515 -0.5797  0.5671 -0.8161
 4554TIP3   OH235152   2.722   0.519  11.763  0.2307 -0.8136 -0.3355
 4554TIP3    H135153   2.722   0.586  11.832 -0.5914  0.6828 -1.7223
 4554TIP3    H235154   2.784   0.551  11.698  0.0686 -1.5659 -0.8658
 4555TIP3   OH235155   4.240   1.850  14.241 -0.1153  0.8139 -0.2770
 4555TIP3    H135156   4.268   1.834  14.151  2.2170  0.3196  0.4737
 4555TIP3    H235157   4.183   1.927  14.235 -2.0578 -0.6854 -2.4632
 4556TIP3   OH235158   2.764   2.187  12.450  0.3040  0.3472 -0.1193
 4556TIP3    H135159   2.731   2.173  12.539  0.2323 -0.1566 -0.2246
 4556TIP3    H235160   2.729   2.273  12.425 -0.1430  0.2389  0.1238
 4557TIP3   OH235161   2.290   3.221   0.438  0.4884 -0.1486  0.4502
 4557TIP3    H135162   2.284   3.262   0.524  2.3642 -0.1561  0.6200
 4557TIP3    H235163   2.341   3.283   0.386 -1.2958  0.2456 -0.9327
 4558TIP3   OH235164   0.916   1.693  13.694  0.0562 -0.1633 -0.1773
 4558TIP3    H135165   0.922   1.607  13.653 -1.3617 -1.3169  1.8649
 4558TIP3    H235166   1.007   1.716  13.714  0.5934 -0.4360 -2.0891
 4559TIP3   OH235167   2.532   6.607  12.961 -0.1466 -0.1040 -0.0940
 4559TIP3    H135168   2.506   6.671  12.895  0.5821  2.0293  1.5753
 4559TIP3    H235169   2.628   6.606  12.957 -0.0227  0.9606  1.6786
 4560TIP3   OH235170   1.702   0.474   5.836  0.5403 -0.2909 -0.3832
 4560TIP3    H135171   1.626   0.422   5.863  1.4890 -1.2858  0.4407
 4560TIP3    H235172   1.743   0.501   5.918  2.2621 -1.5469 -0.7839
 4561TIP3   OH235173   6.677   6.069   1.018 -0.0099  0.0714  0.4147
 4561TIP3    H135174   6.759   6.025   0.995 -0.9570 -1.4957 -0.1434
 4561TIP3    H235175   6.626   6.002   1.064 -0.4030  1.4747  2.1128
 4562TIP3   OH235176   3.726   2.001   3.389 -0.1664 -0.0072 -0.1064
 4562TIP3    H135177   3.692   2.089   3.369  0.8623  0.7154  1.2227
 4562TIP3    H235178   3.749   2.004   3.481 -1.4544 -2.1574  0.3621
 4563TIP3   OH235179   3.502   5.453   3.231  0.1417  0.3687 -0.1188
 4563TIP3    H135180   3.407   5.455   3.226 -0.0152 -2.8132 -0.4221
 4563TIP3    H235181   3.522   5.477   3.321 -1.4466 -4.0934  1.6958
 4564TIP3   OH235182   5.454   3.151  16.374  0.3484  0.2069  0.6049
 4564TIP3    H135183   5.367   3.187  16.394  0.1070 -0.9694  1.8151
 4564TIP3    H235184   5.504   3.165  16.454  1.3357  0.9672 -0.1169
 4565TIP3   OH235185   5.462   4.362   6.806  0.1066  0.4413 -0.0614
 4565TIP3    H135186   5.497   4.451   6.800  0.6256  0.2345 -0.1922
 4565TIP3    H235187   5.445   4.337   6.715 -0.0688  0.4173 -0.0222
 4566TIP3   OH235188   0.875   3.778  13.966 -0.1909  0.7024 -0.0464
 4566TIP3    H135189   0.937   3.836  14.009  0.8100 -0.8969  0.7225
 4566TIP3    H235190   0.810   3.837  13.928  0.4160  2.2825  1.2749
 4567TIP3   OH235191   2.143   5.985   4.904 -0.2774  0.1224  0.6270
 4567TIP3    H135192   2.174   6.057   4.849  0.7006  0.5335  1.6487
 4567TIP3    H235193   2.111   5.919   4.843  1.4657  0.2347 -0.4800
 4568TIP3   OH235194   1.960   5.751   5.423  0.5687  0.2438  0.5630
 4568TIP3    H135195   1.899   5.808   5.469  0.7821  1.0832 -0.1900
 4568TIP3    H235196   1.908   5.674   5.400 -0.1819  0.9028  0.0178
 4569TIP3   OH235197   4.040   3.454  11.188  0.2700  0.0358  0.4650
 4569TIP3    H135198   3.967   3.427  11.132  1.6314  0.2034 -1.4575
 4569TIP3    H235199   4.009   3.535  11.230 -0.8479 -0.1965  0.1211
 4570TIP3   OH235200   2.785   6.583   4.829  0.1317 -0.0529  0.0663
 4570TIP3    H135201   2.828   6.527   4.893  0.5292 -0.4003 -0.4896
 4570TIP3    H235202   2.767   6.665   4.875  0.6397 -0.2069  0.5405
 4571TIP3   OH235203   4.885   1.565  14.294  0.2034  0.4112  0.2137
 4571TIP3    H135204   4.860   1.657  14.287  0.1067  0.2569 -2.4681
 4571TIP3    H235205   4.802   1.519  14.304 -0.0352  0.4529 -1.3006
 4572TIP3   OH235206   6.805   4.764  16.775 -0.8181  0.0803  0.6181
 4572TIP3    H135207   6.870   4.725  16.717 -1.7570 -2.9971  1.4457
 4572TIP3    H235208   6.846   4.844  16.806  0.4495  0.9426 -2.7848
 4573TIP3   OH235209   5.391   5.041  12.357  0.3508 -0.3048  0.0634
 4573TIP3    H135210   5.436   5.118  12.391 -1.2178  0.0045  1.5295
 4573TIP3    H235211   5.338   5.009  12.430 -1.1488 -1.1682 -1.3332
 4574TIP3   OH235212   1.735   6.645  10.956 -0.5270 -0.3107  0.1184
 4574TIP3    H135213   1.706   6.614  10.870 -1.3142 -2.3214  1.0245
 4574TIP3    H235214   1.823   6.678  10.942 -0.8208 -0.1818 -1.5423
 4575TIP3   OH235215   5.310   4.983   0.265  0.0163  0.0779 -1.0231
 4575TIP3    H135216   5.370   5.044   0.223  1.0160 -0.2433 -0.0963
 4575TIP3    H235217   5.339   4.897   0.237  0.6468 -0.1333  0.2273
 4576TIP3   OH235218   3.936   6.086   1.310  0.0687  0.2897  0.3350
 4576TIP3    H135219   3.978   6.020   1.254 -1.0389 -0.4038  0.2811
 4576TIP3    H235220   3.859   6.041   1.346  0.3592  0.9439  1.8561
 4577TIP3   OH235221   0.717   5.546  13.677 -0.4764  0.0167 -0.2518
 4577TIP3    H135222   0.653   5.567  13.608 -2.0205  0.5884  1.2859
 4577TIP3    H235223   0.795   5.598  13.653 -1.6409  1.7274 -0.5649
 4578TIP3   OH235224   6.467   5.923   1.106 -0.6225 -0.6267  0.1471
 4578TIP3    H135225   6.417   5.982   1.162  2.1663  1.9778  0.1594
 4578TIP3    H235226   6.472   5.841   1.155  1.3912  1.4033  3.7420
 4579TIP3   OH235227   6.569   2.711  16.560  0.2149  0.2238 -0.6032
 4579TIP3    H135228   6.494   2.766  16.581 -0.5331 -0.7064 -0.7706
 4579TIP3    H235229   6.537   2.621  16.573  1.5888 -0.1710  0.3003
 4580TIP3   OH235230   1.558   6.449   1.764 -0.8278 -0.1656  0.3491
 4580TIP3    H135231   1.558   6.378   1.829  1.1444 -0.5738 -0.0532
 4580TIP3    H235232   1.649   6.477   1.758 -0.4755 -1.4614 -3.6272
 4581TIP3   OH235233   1.280   4.829   1.031  0.1018 -0.0860  0.2326
 4581TIP3    H135234   1.310   4.751   0.985  0.5453 -0.0650  0.4789
 4581TIP3    H235235   1.216   4.869   0.972 -1.4506 -1.5668  0.8305
 4582TIP3   OH235236   4.318   1.413   3.313 -0.2554  0.0136  0.5539
 4582TIP3    H135237   4.349   1.365   3.390 -0.3590  0.4619  0.8743
 4582TIP3    H235238   4.231   1.376   3.296 -0.3916  0.1829  0.8816
 4583TIP3   OH235239   5.377   2.335   0.998  0.4120 -0.1135 -0.4346
 4583TIP3    H135240   5.374   2.347   0.903 -2.7491 -0.6707 -0.5151
 4583TIP3    H235241   5.433   2.258   1.011  1.5349  0.4392 -1.7277
 4584TIP3   OH235242   0.390   5.724   4.412 -0.1030 -0.6206  0.4023
 4584TIP3    H135243   0.294   5.725   4.406 -0.0663  0.3678 -0.1876
 4584TIP3    H235244   0.414   5.812   4.439  0.7050 -0.4958 -0.6340
 4585TIP3   OH235245   2.271   1.093   2.172  0.1276  0.4867  0.3293
 4585TIP3    H135246   2.306   1.180   2.153 -0.4676  0.9509  1.3181
 4585TIP3    H235247   2.196   1.084   2.114  0.9679  0.0867 -0.7248
 4586TIP3   OH235248   4.805   2.497   2.755  0.2418 -0.1723 -0.0349
 4586TIP3    H135249   4.770   2.558   2.820 -0.8238 -0.7683 -0.0372
 4586TIP3    H235250   4.829   2.419   2.805 -0.5029 -0.6007 -0.3245
 4587TIP3   OH235251   4.099   2.738   4.004 -0.0113 -0.5605  0.4967
 4587TIP3    H135252   4.164   2.792   3.959 -0.0950  0.2557  1.3486
 4587TIP3    H235253   4.044   2.800   4.051 -0.7118 -1.3257  0.7055
 4588TIP3   OH235254   1.568   1.200  12.970 -0.1072 -0.0816  0.2985
 4588TIP3    H135255   1.493   1.158  13.013  0.6337  0.2895  2.0693
 4588TIP3    H235256   1.531   1.272  12.920 -1.1131 -1.1083 -0.4697
 4589TIP3   OH235257   4.212   3.226  13.325 -0.0126  0.2979 -0.0939
 4589TIP3    H135258   4.136   3.231  13.383  0.7139 -0.1814  0.9347
 4589TIP3    H235259   4.281   3.187  13.379  0.8491  0.3389 -1.1258
 4590TIP3   OH235260   4.145   6.823   3.992 -0.3648 -0.0451  0.3272
 4590TIP3    H135261   4.187   6.838   3.908 -0.0235  1.3837  0.7178
 4590TIP3    H235262   4.113   6.733   3.988  0.1505 -0.1837 -1.0964
 4591TIP3   OH235263   5.559   5.376  11.010  0.4874  0.1131  0.0649
 4591TIP3    H135264   5.529   5.467  11.019 -1.2688 -0.3937 -0.2706
 4591TIP3    H235265   5.628   5.367  11.075 -0.4112  1.2383  1.2257
 4592TIP3   OH235266   4.656   1.183   2.019  0.5859  0.0095 -0.0549
 4592TIP3    H135267   4.664   1.095   1.983  2.7487  0.2715 -0.3408
 4592TIP3    H235268   4.570   1.214   1.990  0.0101 -1.7995 -0.3684
 4593TIP3   OH235269   0.165   4.963   3.972 -0.3572  0.2152  0.4022
 4593TIP3    H135270   0.105   4.897   3.938  0.7121 -0.4194 -0.3215
 4593TIP3    H235271   0.175   4.941   4.064 -1.1538  0.2856  0.5168
 4594TIP3   OH235272   1.939   5.748  15.251  0.3582  0.2247  0.1410
 4594TIP3    H135273   1.964   5.659  15.276  0.3082  0.2003  0.1021
 4594TIP3    H235274   1.846   5.754  15.272  0.9113  1.1476  2.7990
 4595TIP3   OH235275   1.441   4.981  14.042  0.2543  0.8776 -0.5213
 4595TIP3    H135276   1.520   5.011  13.995  0.7888  1.4648  0.7078
 4595TIP3    H235277   1.398   5.061  14.071  0.0790  0.5315  0.2108
 4596TIP3   OH235278   5.580   3.882   3.238  0.1899 -0.2844 -0.9959
 4596TIP3    H135279   5.603   3.914   3.151 -1.4962  2.6223 -0.5076
 4596TIP3    H235280   5.510   3.817   3.222  0.3504 -0.2587 -1.8228
 4597TIP3   OH235281   2.081   1.426  17.137 -0.2816  0.4917  0.3978
 4597TIP3    H135282   2.017   1.487  17.101  0.1161  0.7011  0.0446
 4597TIP3    H235283   2.032   1.344  17.148 -0.1504  0.0779 -1.7145
 4598TIP3   OH235284   2.385   2.161  11.785 -0.2677 -0.1254 -0.0707
 4598TIP3    H135285   2.449   2.126  11.847 -2.1146  0.1632  2.1336
 4598TIP3    H235286   2.350   2.083  11.741  1.5532 -0.2830 -1.3601
 4599TIP3   OH235287   4.161   1.372   0.119 -0.0055 -0.0977  0.3806
 4599TIP3    H135288   4.162   1.366   0.024  0.7124 -0.1887  0.3897
 4599TIP3    H235289   4.069   1.389   0.141 -0.1238  0.2292 -0.3390
 4600TIP3   OH235290   5.957   1.886  10.908  0.1392  0.5083 -0.1201
 4600TIP3    H135291   6.051   1.884  10.925 -0.0406  0.8668  0.9862
 4600TIP3    H235292   5.950   1.931  10.823  0.9347  1.0741  0.0937
 4601TIP3   OH235293   6.206   1.089  12.301  0.3791 -0.1675  0.2569
 4601TIP3    H135294   6.134   1.072  12.241  1.6534 -1.5906 -0.9496
 4601TIP3    H235295   6.232   1.179  12.282 -0.7852  0.2304  0.4371
 4602TIP3   OH235296   2.970   5.100  11.621 -0.4233  0.2897 -0.5895
 4602TIP3    H135297   2.923   5.108  11.704 -3.2909 -1.4745 -1.8937
 4602TIP3    H235298   3.059   5.074  11.645 -1.2434 -0.3949  1.9121
 4603TIP3   OH235299   0.975   0.253   3.761  0.4144  0.0770  0.3524
 4603TIP3    H135300   0.971   0.341   3.800  2.4055  0.3473  0.0890
 4603TIP3    H235301   0.989   0.195   3.836 -2.7708 -0.3323  0.7598
 4604TIP3   OH235302   6.120   5.715  16.261 -0.1709 -0.0019 -0.0048
 4604TIP3    H135303   6.099   5.757  16.178  4.4230  0.9753 -0.9195
 4604TIP3    H235304   6.163   5.634  16.237  3.6377  1.4856  1.0971
 4605TIP3   OH235305   0.717   4.937   0.354 -0.1847  0.0336  0.6901
 4605TIP3    H135306   0.648   4.871   0.355  1.0841 -1.3401  1.2404
 4605TIP3    H235307   0.734   4.953   0.262  0.7657 -1.8546  0.4810
 4606TIP3   OH235308   5.904   3.934   5.743  0.2946  0.1327  0.0049
 4606TIP3    H135309   5.864   3.960   5.661 -0.2947 -0.8525 -0.0326
 4606TIP3    H235310   5.835   3.889   5.791  0.3716  1.4416  1.4313
 4607TIP3   OH235311   0.044   1.314  11.490  0.1158 -0.3284 -0.2573
 4607TIP3    H135312   0.021   1.352  11.575  0.8264  0.4665 -0.4058
 4607TIP3    H235313  -0.025   1.342  11.431 -0.5028 -1.0744  0.0964
 4608TIP3   OH235314   3.615   6.486  11.758 -0.3609 -0.3825 -0.0368
 4608TIP3    H135315   3.556   6.545  11.712 -0.1468  0.0024  0.1736
 4608TIP3    H235316   3.629   6.414  11.697  1.1187  0.8306 -1.2085
 4609TIP3   OH235317   1.630   1.584  14.667  0.4045 -0.1291  0.0426
 4609TIP3    H135318   1.653   1.601  14.759 -1.9469  0.9581  0.4948
 4609TIP3    H235319   1.711   1.603  14.619  0.8264  2.6078  1.5866
 4610TIP3   OH235320   3.398   6.722  15.528 -0.4396  0.5855  0.0472
 4610TIP3    H135321   3.441   6.663  15.589 -1.2323 -1.0248 -0.8898
 4610TIP3    H235322   3.462   6.792  15.513  1.8385 -1.6027 -1.1615
 4611TIP3   OH235323   4.615   1.545  16.559  0.2767  1.0361  0.4963
 4611TIP3    H135324   4.667   1.469  16.533 -2.4079 -0.3743 -1.2526
 4611TIP3    H235325   4.570   1.517  16.638 -1.1590  0.4959 -0.4695
 4612TIP3   OH235326   6.331   1.516  11.523 -0.5063  0.0598 -0.3832
 4612TIP3    H135327   6.247   1.498  11.481 -1.2047  2.8764 -0.3969
 4612TIP3    H235328   6.364   1.594  11.478  0.2279  1.3121  2.1437
 4613TIP3   OH235329   4.749   6.444  13.397  0.3172 -0.8066  0.3955
 4613TIP3    H135330   4.770   6.437  13.490 -0.9153 -0.1552  0.7543
 4613TIP3    H235331   4.695   6.524  13.391  1.1068 -0.3473 -1.0094
 4614TIP3   OH235332   2.497   3.567   5.845 -0.1027 -0.0478  0.8446
 4614TIP3    H135333   2.422   3.516   5.815  0.0997 -0.2146  0.6156
 4614TIP3    H235334   2.522   3.620   5.769 -0.4690  0.5832  1.1571
 4615TIP3   OH235335   4.151   3.102   2.424  0.0672  0.1040  0.1336
 4615TIP3    H135336   4.213   3.079   2.494 -2.5486 -3.8029  1.4773
 4615TIP3    H235337   4.073   3.132   2.470 -0.5121  0.9952 -1.3573
 4616TIP3   OH235338   6.510   5.032   0.119 -0.1094 -0.1939 -0.1399
 4616TIP3    H135339   6.507   5.126   0.134 -0.1716 -0.6313  3.3326
 4616TIP3    H235340   6.465   4.994   0.195  2.4022 -3.1134  0.0750
 4617TIP3   OH235341   4.287   3.116   3.046 -0.1835  0.7272 -0.0302
 4617TIP3    H135342   4.283   3.210   3.065  0.8912  0.8552 -0.4114
 4617TIP3    H235343   4.303   3.111   2.952 -1.1282  0.1391 -0.1752
 4618TIP3   OH235344   0.917   3.386  13.053 -0.0811 -0.0179  0.1465
 4618TIP3    H135345   0.842   3.422  13.100 -0.8557 -0.5662 -0.6390
 4618TIP3    H235346   0.916   3.433  12.969 -0.0248 -0.5923 -0.1775
 4619TIP3   OH235347   1.310   1.424  14.134 -0.0429  0.2270 -0.9719
 4619TIP3    H135348   1.337   1.502  14.182  0.1494 -0.7477  0.5785
 4619TIP3    H235349   1.309   1.355  14.200 -1.1710 -0.8815 -2.0961
 4620TIP3   OH235350   3.886   0.437   2.974 -0.3066  0.6534 -0.4940
 4620TIP3    H135351   3.982   0.442   2.973 -0.0517 -2.5062 -0.2102
 4620TIP3    H235352   3.863   0.425   2.882 -0.3406  0.2711 -0.4349
 4621TIP3   OH235353   2.363   1.347   2.184  0.2317 -0.1295  0.1450
 4621TIP3    H135354   2.410   1.374   2.105 -0.5220  0.8636  0.0106
 4621TIP3    H235355   2.428   1.349   2.253  0.5507  0.5433 -0.1648
 4622TIP3   OH235356   4.065   3.383   1.098  0.5700 -0.3217 -0.3229
 4622TIP3    H135357   4.025   3.467   1.117  1.7581  0.1454  0.2115
 4622TIP3    H235358   4.115   3.397   1.017  0.2395 -0.7049 -0.6020
 4623TIP3   OH235359   0.767   3.619  16.794  0.3969  0.4834 -0.0378
 4623TIP3    H135360   0.826   3.664  16.734 -0.0637  1.7721  0.4547
 4623TIP3    H235361   0.699   3.683  16.815  0.8221  0.2553  2.2699
 4624TIP3   OH235362   1.237   6.298   3.483  0.4396  1.0996  0.2525
 4624TIP3    H135363   1.166   6.257   3.432  0.9005  0.4833  0.0925
 4624TIP3    H235364   1.202   6.383   3.508  0.1494  1.3764 -1.0090
 4625TIP3   OH235365   4.714   6.097   2.125 -0.0933  0.0422 -0.1858
 4625TIP3    H135366   4.782   6.056   2.179 -1.7927 -2.6389  0.0927
 4625TIP3    H235367   4.755   6.105   2.039  1.8468  2.1773  0.8195
 4626TIP3   OH235368   2.174   0.565  15.358  0.7582 -0.8082  0.2903
 4626TIP3    H135369   2.132   0.600  15.437  0.2215 -0.8089  0.0112
 4626TIP3    H235370   2.219   0.486  15.388 -1.6523 -2.3381  0.1502
 4627TIP3   OH235371   5.593   3.789   1.619  0.3830  0.0752 -0.0823
 4627TIP3    H135372   5.546   3.769   1.538  0.2417  1.8052 -0.4596
 4627TIP3    H235373   5.686   3.783   1.595  0.3419  0.6379 -0.4092
 4628TIP3   OH235374   2.045   5.723   4.587  0.1282 -0.3214  0.0293
 4628TIP3    H135375   2.137   5.703   4.608 -0.1855 -0.4653  1.3423
 4628TIP3    H235376   2.007   5.751   4.670 -0.8249  0.5261 -0.6754
 4629TIP3   OH235377   5.029   1.623   1.983  0.3754  0.3275  0.6967
 4629TIP3    H135378   4.998   1.698   1.932  0.0898 -0.2806 -0.0446
 4629TIP3    H235379   5.046   1.555   1.918 -1.7805 -1.0925  1.5069
 4630TIP3   OH235380   0.854   4.610  10.837 -0.0321 -0.1314 -0.2154
 4630TIP3    H135381   0.893   4.634  10.752  1.4612 -0.9436  0.2097
 4630TIP3    H235382   0.876   4.518  10.848 -0.6796 -0.1728  0.8191
 4631TIP3   OH235383   2.001   1.559  14.952  0.1961 -0.4880  0.5810
 4631TIP3    H135384   2.037   1.632  15.003 -0.1432  0.3300 -0.3275
 4631TIP3    H235385   2.074   1.498  14.942  0.5406 -0.1789  1.1569
 4632TIP3   OH235386   3.399   2.432  11.577  0.9182 -0.6222 -0.2705
 4632TIP3    H135387   3.315   2.467  11.548  1.7758  0.4591 -1.5637
 4632TIP3    H235388   3.412   2.469  11.664 -0.6594 -2.1062  0.6519
 4633TIP3   OH235389   0.805   0.003   4.318 -0.1033  0.1118  0.4941
 4633TIP3    H135390   0.896   0.002   4.288  0.0044 -0.0802  0.8221
 4633TIP3    H235391   0.779   0.095   4.314  0.3988  0.2901  1.2876
 4634TIP3   OH235392   3.582   2.573   2.655  0.2889  0.0636 -0.0592
 4634TIP3    H135393   3.544   2.563   2.568  0.0844 -0.6608  0.1121
 4634TIP3    H235394   3.523   2.632   2.700  0.2137  0.1736 -0.2998
 4635TIP3   OH235395   1.430   4.434   0.301  0.3159  0.1200  0.0973
 4635TIP3    H135396   1.471   4.504   0.249  1.5441  0.4082  1.3837
 4635TIP3    H235397   1.497   4.366   0.307 -0.2118 -0.3861  0.3923
 4636TIP3   OH235398   1.027   3.894  15.170 -0.6754  0.2270 -0.0044
 4636TIP3    H135399   1.070   3.841  15.103 -0.7984 -1.1676  0.9816
 4636TIP3    H235400   1.018   3.981  15.130 -0.3696 -0.4587 -1.6249
 4637TIP3   OH235401   1.266   0.850  17.021 -0.1705  0.7110 -0.2824
 4637TIP3    H135402   1.198   0.905  17.061  1.1243  1.1750  1.4062
 4637TIP3    H235403   1.249   0.763  17.055  1.3869  1.2414  2.0498
 4638TIP3   OH235404   4.756   4.778   5.266  0.1921 -0.0182 -0.7198
 4638TIP3    H135405   4.741   4.869   5.291  0.6521  0.0752 -0.7634
 4638TIP3    H235406   4.763   4.781   5.170 -1.1417 -0.3084 -0.8451
 4639TIP3   OH235407   3.205   2.819   2.980  0.1494  0.3577  0.0446
 4639TIP3    H135408   3.130   2.846   2.926  0.3721  0.9859  0.0486
 4639TIP3    H235409   3.193   2.724   2.991  0.2954  0.1411 -1.4211
 4640TIP3   OH235410   4.256   5.502   4.281 -0.5515  0.1421  0.4799
 4640TIP3    H135411   4.351   5.497   4.288 -0.3531  1.3469 -0.7951
 4640TIP3    H235412   4.227   5.411   4.278  0.6378 -0.2454 -0.0200
 4641TIP3   OH235413   3.008   5.206  13.086 -0.3206 -0.3244 -1.1001
 4641TIP3    H135414   2.933   5.245  13.041 -0.3012 -1.3588 -2.0757
 4641TIP3    H235415   3.080   5.215  13.024  1.1068  2.9680  0.7662
 4642TIP3   OH235416   1.832   0.232   2.419  0.2514 -0.2857  0.0071
 4642TIP3    H135417   1.924   0.256   2.426 -0.1225  0.7855  2.0324
 4642TIP3    H235418   1.820   0.164   2.485  0.2187 -2.7741 -2.3938
 4643TIP3   OH235419   0.791   0.870  12.419  0.4860  0.0990 -0.5612
 4643TIP3    H135420   0.749   0.863  12.333  2.0706 -0.8447 -1.3076
 4643TIP3    H235421   0.731   0.826  12.479  0.1870 -0.8292 -1.5096
 4644TIP3   OH235422   5.576   1.336   3.981 -0.0725  0.4031 -0.0045
 4644TIP3    H135423   5.528   1.255   3.999 -0.8295  0.4558 -1.6164
 4644TIP3    H235424   5.565   1.350   3.887  0.6837  1.9825  0.1115
 4645TIP3   OH235425   2.160   1.588   0.830 -0.0149  0.2206 -0.3540
 4645TIP3    H135426   2.248   1.608   0.798  0.5405  0.5362  1.2912
 4645TIP3    H235427   2.174   1.525   0.901 -1.0987  0.4296  0.0621
 4646TIP3   OH235428   1.249   0.716  15.014  0.3222  0.5288  0.0282
 4646TIP3    H135429   1.326   0.767  15.039  0.5719  0.2709 -0.2038
 4646TIP3    H235430   1.256   0.706  14.919  0.2623  0.0974  0.0648
 4647TIP3   OH235431   4.193   4.691  15.754  0.5249 -0.3281  0.2402
 4647TIP3    H135432   4.215   4.607  15.796 -0.3619 -0.8781 -0.3716
 4647TIP3    H235433   4.106   4.712  15.787 -1.0647 -1.7358 -2.6452
 4648TIP3   OH235434   4.352   6.807  13.592 -0.3095  0.2636  0.1870
 4648TIP3    H135435   4.418   6.777  13.655 -0.4365  0.5300  0.4467
 4648TIP3    H235436   4.285   6.740  13.593 -0.6138  0.5719  0.7984
 4649TIP3   OH235437   5.498   5.725   3.378 -0.1839  0.7893 -0.0780
 4649TIP3    H135438   5.480   5.700   3.287  1.1665  1.6019 -0.6101
 4649TIP3    H235439   5.444   5.667   3.430 -0.9948  0.3009 -1.4064
 4650TIP3   OH235440   4.932   6.410   4.120 -0.1983 -0.4243 -0.7134
 4650TIP3    H135441   4.849   6.454   4.101 -0.6698 -1.0172 -0.1147
 4650TIP3    H235442   4.966   6.383   4.035 -0.0393  0.8430 -1.0597
 4651TIP3   OH235443   6.473   2.306  13.871  0.1894 -0.0492  0.1159
 4651TIP3    H135444   6.561   2.293  13.835  0.5492 -0.8863  1.2385
 4651TIP3    H235445   6.471   2.250  13.948 -1.3113  0.0380  0.1529
 4652TIP3   OH235446   4.423   1.889  14.713  0.0695 -0.2492  0.0504
 4652TIP3    H135447   4.512   1.925  14.718  0.3214 -0.9355  0.6382
 4652TIP3    H235448   4.396   1.905  14.623  0.2112  1.3197  0.2583
 4653TIP3   OH235449   2.676   6.123   2.738  0.3988 -0.5295 -0.2239
 4653TIP3    H135450   2.722   6.206   2.750 -0.5065  0.2021 -1.5507
 4653TIP3    H235451   2.627   6.110   2.819 -0.2512  0.7780 -0.3807
 4654TIP3   OH235452   3.876   0.615   3.542 -0.0559 -0.3481 -0.0791
 4654TIP3    H135453   3.823   0.535   3.531 -1.4442  0.5807 -0.3553
 4654TIP3    H235454   3.856   0.667   3.465  1.1897  0.0862 -0.1168
 4655TIP3   OH235455   2.936   5.922   1.410  0.1653  0.0426 -0.4296
 4655TIP3    H135456   2.948   5.912   1.505 -1.9376  2.0112  0.1185
 4655TIP3    H235457   3.018   5.961   1.380  0.3755  0.6132  0.8121
 4656TIP3   OH235458   6.796   0.046   5.420  0.3041  0.4487  0.0383
 4656TIP3    H135459   6.739   0.055   5.497 -1.0965  1.3045 -1.0452
 4656TIP3    H235460   6.759  -0.028   5.372  0.9151  0.1811 -0.0186
 4657TIP3   OH235461   2.639   5.888   2.592 -0.1005  0.2829  0.4936
 4657TIP3    H135462   2.554   5.853   2.619  0.0050  1.2769  2.2191
 4657TIP3    H235463   2.647   5.971   2.638  0.4920  1.7138 -1.9978
 4658TIP3   OH235464   4.929   1.270   4.652  0.0760  0.4672 -0.0974
 4658TIP3    H135465   4.981   1.189   4.654 -1.9130 -0.8949  1.5064
 4658TIP3    H235466   4.991   1.339   4.673  1.8041 -0.6366 -1.2733
 4659TIP3   OH235467   2.471   2.120   1.657 -0.3189 -0.5348  0.2437
 4659TIP3    H135468   2.557   2.133   1.696  0.1292 -0.7066 -0.6552
 4659TIP3    H235469   2.440   2.209   1.637 -0.8612 -0.3927  1.5841
 4660TIP3   OH235470   6.383   2.156  11.219  0.3162 -0.4738  0.1275
 4660TIP3    H135471   6.302   2.189  11.180  0.9901  0.7144 -0.3307
 4660TIP3    H235472   6.401   2.075  11.172 -0.7488 -0.9048  0.4352
 4661TIP3   OH235473   6.726   5.087  15.221  0.6594  0.6175  1.4055
 4661TIP3    H135474   6.665   5.084  15.295  0.5747 -2.4162  1.3374
 4661TIP3    H235475   6.813   5.095  15.262  0.6519 -1.4778  1.9399
 4662TIP3   OH235476   2.628   4.433   4.231  0.5343 -0.2680 -0.1138
 4662TIP3    H135477   2.671   4.485   4.299  1.4879  1.0835 -1.6692
 4662TIP3    H235478   2.572   4.372   4.279  2.3609 -0.4607  1.9207
 4663TIP3   OH235479   5.076   3.462  15.681 -0.2076  0.4518  0.3949
 4663TIP3    H135480   5.145   3.399  15.660  1.1994  1.3346  2.1929
 4663TIP3    H235481   5.121   3.536  15.721 -2.0951  1.5597  0.6081
 4664TIP3   OH235482   3.496   6.195   1.183 -0.0693  0.0072  0.5815
 4664TIP3    H135483   3.442   6.116   1.169  1.0785 -0.6012 -0.7171
 4664TIP3    H235484   3.445   6.266   1.144 -0.1080 -0.5065 -0.3354
 4665TIP3   OH235485   6.000   5.860   0.981  0.0105  0.8340 -0.3405
 4665TIP3    H135486   6.053   5.938   0.966  0.4644  0.8872  1.2710
 4665TIP3    H235487   6.061   5.787   0.966  0.2209  0.8669  0.2942
 4666TIP3   OH235488   5.098   5.651   0.625  0.1947 -0.2333  0.6975
 4666TIP3    H135489   5.182   5.682   0.593  0.3908 -1.4076  0.0181
 4666TIP3    H235490   5.053   5.619   0.546 -1.4527  1.5675  0.8180
 4667TIP3   OH235491   5.671   0.314  10.706 -0.6196  0.1636 -0.0464
 4667TIP3    H135492   5.717   0.230  10.706  0.0219  0.5061 -0.3212
 4667TIP3    H235493   5.740   0.379  10.720 -1.3920  0.5165  2.7377
 4668TIP3   OH235494   2.997   2.289   0.850  0.3931 -0.3628  0.2693
 4668TIP3    H135495   2.940   2.356   0.889 -0.0806  0.1864 -1.2925
 4668TIP3    H235496   2.936   2.230   0.805  1.0518  0.6449 -2.0601
 4669TIP3   OH235497   0.786   1.822  12.972 -0.3328  0.3464  0.3356
 4669TIP3    H135498   0.778   1.727  12.970  2.8252 -0.0876  1.6115
 4669TIP3    H235499   0.731   1.849  13.046  1.5529 -1.0374  2.3856
 4670TIP3   OH235500   0.412   5.518   2.504 -0.1430 -0.0202  0.1899
 4670TIP3    H135501   0.427   5.530   2.410  0.7519 -0.2757  0.2915
 4670TIP3    H235502   0.347   5.585   2.527 -1.0361 -0.5260 -0.7784
 4671TIP3   OH235503   0.493   1.158   1.811 -0.5836 -0.0672 -0.1580
 4671TIP3    H135504   0.486   1.130   1.902  1.1154  1.4299  0.4861
 4671TIP3    H235505   0.565   1.222   1.810 -1.1559  0.6518 -2.3815
 4672TIP3   OH235506   0.104   2.697  14.191 -0.3786  0.1040  0.6479
 4672TIP3    H135507   0.043   2.722  14.260 -0.1999  0.2109  0.7667
 4672TIP3    H235508   0.143   2.615  14.221  0.8237  0.9210  1.3916
 4673TIP3   OH235509   2.871   6.536   4.576 -0.0972  0.2579  0.1129
 4673TIP3    H135510   2.814   6.544   4.653  0.4937  0.2329  0.5663
 4673TIP3    H235511   2.960   6.546   4.611  0.1278  1.4210 -0.7358
 4674TIP3   OH235512   5.738   1.118  15.303 -0.1625 -0.0268 -0.7379
 4674TIP3    H135513   5.793   1.188  15.339 -0.7567  0.4907 -0.8254
 4674TIP3    H235514   5.695   1.159  15.228  1.3072 -1.1621 -2.2767
 4675TIP3   OH235515   2.396   2.473  12.310  0.3448  0.4352  0.3045
 4675TIP3    H135516   2.343   2.468  12.389 -1.1982  1.4813 -0.6013
 4675TIP3    H235517   2.357   2.545  12.259  1.8048  0.3546 -1.0272
 4676TIP3   OH235518   6.652   1.306  14.201 -0.3385  0.7291 -0.3356
 4676TIP3    H135519   6.619   1.332  14.288  1.6585  1.0042  0.3948
 4676TIP3    H235520   6.704   1.381  14.172 -0.0704  0.1910 -1.2783
 4677TIP3   OH235521   5.603   6.021   5.196  0.1111  0.0418 -0.5928
 4677TIP3    H135522   5.690   5.993   5.224  0.4991  0.0532 -1.7509
 4677TIP3    H235523   5.560   5.941   5.165 -0.3481  0.0145  0.0862
 4678TIP3   OH235524   5.943   0.853  12.904  0.0317 -0.4186 -0.1908
 4678TIP3    H135525   5.849   0.839  12.894  0.1118 -0.0716 -1.7780
 4678TIP3    H235526   5.983   0.771  12.877  0.1861 -0.7654  1.0417
 4679TIP3   OH235527   4.043   4.322  15.940  0.2017 -0.0295 -0.4061
 4679TIP3    H135528   4.087   4.270  15.873  2.1285 -0.6276  1.2106
 4679TIP3    H235529   4.095   4.403  15.945 -1.2922  1.0235 -1.1682
 4680TIP3   OH235530   4.474   1.308  13.675  0.2209  0.2920 -0.0205
 4680TIP3    H135531   4.449   1.392  13.714 -1.1012  0.4173 -1.0511
 4680TIP3    H235532   4.527   1.333  13.599 -0.6005  0.2237 -0.6205
 4681TIP3   OH235533   1.481   2.052   2.159  0.1335 -0.2341  0.6139
 4681TIP3    H135534   1.424   2.052   2.082  1.6213 -1.3376 -0.5192
 4681TIP3    H235535   1.420   2.056   2.233 -1.3241  1.2528 -0.5818
 4682TIP3   OH235536   6.371   3.088   2.226 -0.4775 -0.4407  0.5369
 4682TIP3    H135537   6.454   3.124   2.258 -1.8611  3.2325  0.5429
 4682TIP3    H235538   6.384   3.081   2.131  0.9146 -3.4179  0.8465
 4683TIP3   OH235539   3.978   0.430  13.683  0.0188  0.0544 -0.4676
 4683TIP3    H135540   3.891   0.429  13.722  1.2520 -0.0702  2.5213
 4683TIP3    H235541   4.003   0.522  13.681 -0.5146  0.1963 -2.2843
 4684TIP3   OH235542   0.453   1.181   6.068 -0.1946 -0.1721 -0.3330
 4684TIP3    H135543   0.544   1.153   6.054 -0.9248 -2.4304 -0.9057
 4684TIP3    H235544   0.430   1.227   5.987 -0.1898 -1.4245 -1.0701
 4685TIP3   OH235545   5.292   4.136   4.764 -0.2527  0.3623  0.1399
 4685TIP3    H135546   5.338   4.151   4.681  0.7539  0.2126  0.6566
 4685TIP3    H235547   5.316   4.211   4.818  1.1659 -0.7724  1.1622
 4686TIP3   OH235548   1.664   0.072  15.721  0.4129 -0.3966  0.6536
 4686TIP3    H135549   1.646   0.130  15.647  0.5383 -0.2050  0.7742
 4686TIP3    H235550   1.740   0.111  15.765 -0.7818  0.5719  1.9829
 4687TIP3   OH235551   4.854   1.214  14.679 -0.6198  0.2741 -0.2641
 4687TIP3    H135552   4.760   1.212  14.694 -0.6214  1.3054 -0.0614
 4687TIP3    H235553   4.882   1.124  14.692 -1.2675  0.3252  1.8905
 4688TIP3   OH235554   5.831   3.526  17.146 -0.1874 -0.4408 -0.3791
 4688TIP3    H135555   5.778   3.603  17.167 -1.3092 -0.8105 -1.6707
 4688TIP3    H235556   5.778   3.452  17.176  1.7176 -0.7609  2.6679
 4689TIP3   OH235557   3.326   3.446   2.806  0.1527  0.2337 -0.0690
 4689TIP3    H135558   3.238   3.414   2.787 -0.7080  1.7528  1.1287
 4689TIP3    H235559   3.353   3.490   2.726 -1.0985  1.6174  0.2166
 4690TIP3   OH235560   5.391   1.356  13.099  0.4617 -0.8660  0.0115
 4690TIP3    H135561   5.435   1.404  13.029 -1.1739 -0.8440 -1.0459
 4690TIP3    H235562   5.387   1.266  13.067 -0.6440 -0.7793 -0.1244
 4691TIP3   OH235563   2.709   1.891   1.455  0.2647  0.6559  0.4783
 4691TIP3    H135564   2.771   1.890   1.382  0.2869  1.0160  0.4903
 4691TIP3    H235565   2.763   1.871   1.532  0.5602  1.9520  0.6286
 4692TIP3   OH235566   5.050   2.589   3.450 -0.2618 -0.3483  0.1772
 4692TIP3    H135567   5.043   2.507   3.499 -0.3182 -1.5497 -1.7219
 4692TIP3    H235568   4.971   2.638   3.474 -1.5090 -1.9386 -0.4477
 4693TIP3   OH235569   5.227   5.294   3.558 -0.4342  0.2901  0.1000
 4693TIP3    H135570   5.199   5.210   3.522  0.6094 -0.1079  0.1812
 4693TIP3    H235571   5.321   5.284   3.574 -0.4202  1.2412  0.7533
 4694TIP3   OH235572   4.951   5.433   2.619 -0.0202 -0.0867 -0.4291
 4694TIP3    H135573   4.957   5.338   2.617  2.8257 -0.0270 -0.0261
 4694TIP3    H235574   4.904   5.457   2.540 -0.0021 -1.8043 -0.9876
 4695TIP3   OH235575   1.457   2.777   4.486  0.1069  0.1109 -0.3647
 4695TIP3    H135576   1.499   2.846   4.538  0.2854  0.3215 -0.7853
 4695TIP3    H235577   1.364   2.788   4.501  0.1533  0.2290 -0.1606
 4696TIP3   OH235578   0.186   2.389  16.466  0.2254 -0.8567 -0.5004
 4696TIP3    H135579   0.246   2.438  16.409 -0.1837 -1.0010 -1.0688
 4696TIP3    H235580   0.100   2.423  16.444  0.1514 -0.0642  0.9007
 4697TIP3   OH235581   1.297   5.324   2.295 -0.6205  0.4188  0.6800
 4697TIP3    H135582   1.282   5.395   2.232 -2.0657 -0.2994  0.1800
 4697TIP3    H235583   1.219   5.269   2.288 -0.7176  0.1881  2.9414
 4698TIP3   OH235584   3.743   1.700   5.588 -0.0575 -0.5706  0.0740
 4698TIP3    H135585   3.662   1.655   5.608  0.4662 -1.8936 -0.6964
 4698TIP3    H235586   3.728   1.740   5.502  0.4142 -1.6316 -0.5182
 4699TIP3   OH235587   5.476   0.842   2.690 -0.0724 -0.0943  0.5800
 4699TIP3    H135588   5.502   0.852   2.599 -1.1880 -0.7725  0.1596
 4699TIP3    H235589   5.427   0.759   2.692 -0.3590  0.0829  1.7174
 4700TIP3   OH235590   4.259   5.958   4.504 -0.1322  0.1673  0.4755
 4700TIP3    H135591   4.208   5.877   4.497 -0.6190  0.5502 -0.4562
 4700TIP3    H235592   4.343   5.937   4.463  0.0080 -0.0745  0.8757
 4701TIP3   OH235593   5.903   4.208   5.863 -0.3061  0.6369 -0.3847
 4701TIP3    H135594   5.877   4.129   5.816 -1.6847  0.9488 -0.1940
 4701TIP3    H235595   5.867   4.280   5.811 -0.6727  1.0455  0.4162
 4702TIP3   OH235596   3.796   1.095  16.489  0.2301  0.2872 -0.3507
 4702TIP3    H135597   3.802   1.133  16.401 -0.5763  0.4293 -0.3485
 4702TIP3    H235598   3.886   1.066  16.509  0.7279  1.6033 -0.6096
 4703TIP3   OH235599   2.898   0.262  10.978  0.5196 -0.2878  0.2187
 4703TIP3    H135600   2.965   0.273  10.909  0.9460  3.5165  1.0165
 4703TIP3    H235601   2.831   0.208  10.937  2.3573 -1.1131 -1.9418
 4704TIP3   OH235602   6.472   6.022  15.426 -0.3145  0.0480 -0.1526
 4704TIP3    H135603   6.423   6.037  15.507  1.2139 -0.5118  0.9184
 4704TIP3    H235604   6.498   5.930  15.431  0.4721  0.2233 -0.9029
 4705TIP3   OH235605   5.749   1.571  11.736  0.2845  0.1168  0.1629
 4705TIP3    H135606   5.772   1.622  11.658 -0.3889 -0.8260 -0.6751
 4705TIP3    H235607   5.832   1.541  11.771  0.5666  0.1225 -0.4868
 4706TIP3   OH235608   3.822   3.956   5.313  0.0376 -0.1156  0.4603
 4706TIP3    H135609   3.900   3.968   5.259  1.0309 -2.2313  1.3115
 4706TIP3    H235610   3.847   3.989   5.399  0.2098 -1.3055  0.8790
 4707TIP3   OH235611   2.395   5.234   5.387  0.2251  0.7008  0.1806
 4707TIP3    H135612   2.347   5.166   5.436  1.1210  0.0364  0.1603
 4707TIP3    H235613   2.328   5.276   5.333 -0.1752 -0.9735 -0.6957
 4708TIP3   OH235614   3.169   2.403  12.190 -0.0298  0.2580 -0.3323
 4708TIP3    H135615   3.182   2.429  12.282  0.2052 -0.6663 -0.1008
 4708TIP3    H235616   3.111   2.471  12.155 -0.4512  0.4021  0.6083
 4709TIP3   OH235617   2.991   3.805   3.047  0.1300  0.0626  0.3536
 4709TIP3    H135618   2.974   3.849   2.963 -0.4945  3.3139  2.0462
 4709TIP3    H235619   3.084   3.821   3.064  1.1889 -3.4427 -1.0780
 4710TIP3   OH235620   0.582   2.045   5.500 -0.2977 -0.0715  0.0853
 4710TIP3    H135621   0.537   2.055   5.416 -1.6922  0.8247  0.9070
 4710TIP3    H235622   0.645   1.975   5.485  0.4884  1.0122 -2.1133
 4711TIP3   OH235623   2.742   5.288  15.310  0.5987  0.3451  0.0345
 4711TIP3    H135624   2.712   5.199  15.329 -0.1395  0.6641  0.3719
 4711TIP3    H235625   2.705   5.308  15.225  1.6728 -0.0707 -0.5460
 4712TIP3   OH235626   0.838   4.642   2.374  0.2147  0.8107  0.2058
 4712TIP3    H135627   0.746   4.626   2.396  0.0784  1.4654  0.1309
 4712TIP3    H235628   0.842   4.735   2.354  0.5493  0.4529 -1.5064
 4713TIP3   OH235629   2.102   2.900   4.923  0.2172  0.2225 -0.4538
 4713TIP3    H135630   2.116   2.880   4.831  2.8290 -1.7516  0.2480
 4713TIP3    H235631   2.006   2.901   4.933 -0.1599  0.8235 -3.1656
 4714TIP3   OH235632   1.040   0.680   2.803 -0.0302 -0.1576  0.3370
 4714TIP3    H135633   0.977   0.626   2.850  1.4663 -1.7490  0.5789
 4714TIP3    H235634   1.118   0.680   2.857  0.7448  0.4120 -0.7375
 4715TIP3   OH235635   1.487   3.359  12.756  0.2430 -0.2073  0.3892
 4715TIP3    H135636   1.413   3.359  12.816  0.3009  0.3026  0.4708
 4715TIP3    H235637   1.556   3.311  12.802 -0.0721 -0.7879  0.2635
 4716TIP3   OH235638   4.548   0.890   0.885  0.3867  0.1022 -0.0318
 4716TIP3    H135639   4.454   0.906   0.892  0.3095 -0.6203  0.6565
 4716TIP3    H235640   4.566   0.893   0.791 -0.3973 -0.1674 -0.1900
 4717TIP3   OH235641   3.191   2.796  16.683 -0.1978 -0.1446  0.2299
 4717TIP3    H135642   3.250   2.730  16.720  1.5679  1.3942  0.2985
 4717TIP3    H235643   3.132   2.817  16.755 -1.6075 -2.4778 -0.1550
 4718TIP3   OH235644   5.939   5.854  14.802  0.7038  0.2702 -0.2947
 4718TIP3    H135645   5.975   5.922  14.745  0.4687  0.0943 -0.6552
 4718TIP3    H235646   5.860   5.894  14.839 -0.0572 -0.1888 -1.3723
 4719TIP3   OH235647   3.868   5.317   0.789 -0.2209  0.0117  0.5997
 4719TIP3    H135648   3.879   5.287   0.879  1.0941  3.6959  1.8867
 4719TIP3    H235649   3.914   5.401   0.786  1.4320 -0.7179 -4.0531
 4720TIP3   OH235650   0.481   2.747  13.813 -0.5897  0.8381 -0.4610
 4720TIP3    H135651   0.509   2.658  13.833  1.5171  1.7258  0.7689
 4720TIP3    H235652   0.397   2.757  13.859 -1.6174 -0.9140 -1.8112
 4721TIP3   OH235653   4.135   0.337   5.111 -0.1853  0.5950  0.1671
 4721TIP3    H135654   4.146   0.294   5.026  1.1703  1.3752 -0.0837
 4721TIP3    H235655   4.199   0.294   5.168 -2.1952 -1.0601  1.3047
 4722TIP3   OH235656   5.304   2.266   3.658 -0.1851  0.5779  0.8148
 4722TIP3    H135657   5.270   2.302   3.740  1.9750  0.8302  1.6621
 4722TIP3    H235658   5.237   2.205   3.629 -1.3818  1.1197  2.3252
 4723TIP3   OH235659   1.789   1.681   5.857  0.1995 -1.1661 -0.0105
 4723TIP3    H135660   1.710   1.717   5.816  0.9224  0.6034  0.0584
 4723TIP3    H235661   1.757   1.614   5.917 -1.1651 -1.1675 -0.7098
 4724TIP3   OH235662   1.993   2.574   2.989 -0.5482  0.1399  0.2230
 4724TIP3    H135663   2.050   2.648   2.971 -1.1387  0.4499 -0.4347
 4724TIP3    H235664   1.995   2.564   3.084 -0.2139  0.8018  0.2885
 4725TIP3   OH235665   0.233   3.571   2.163  0.3048  0.8742 -0.1883
 4725TIP3    H135666   0.295   3.624   2.114 -0.6022  0.3682 -2.0165
 4725TIP3    H235667   0.154   3.572   2.109  0.0668 -1.8336 -0.0377
 4726TIP3   OH235668   0.468   4.325  16.299  0.2924  0.1487 -0.0120
 4726TIP3    H135669   0.541   4.301  16.242  0.4408 -0.3829  0.3919
 4726TIP3    H235670   0.407   4.371  16.242  0.5877 -0.0863 -0.5253
 4727TIP3   OH235671   4.950   1.068  11.896  0.6061 -0.0053 -0.1597
 4727TIP3    H135672   4.924   1.160  11.898  0.7010  0.0275 -0.4957
 4727TIP3    H235673   4.901   1.030  11.823  0.6367 -0.1999 -0.0797
 4728TIP3   OH235674   3.971   2.221   4.760  0.1769 -0.4580  0.7711
 4728TIP3    H135675   3.908   2.247   4.828  0.0792  0.2900  0.4103
 4728TIP3    H235676   3.962   2.289   4.693 -1.6234 -2.5267 -1.2456
 4729TIP3   OH235677   6.398   2.381   2.207  0.3738  0.3059 -0.4761
 4729TIP3    H135678   6.365   2.418   2.125 -1.3245  1.6044  0.7269
 4729TIP3    H235679   6.423   2.457   2.260  0.6374 -0.4645  0.5402
 4730TIP3   OH235680   0.027   0.135  14.484  0.8734 -0.7049  0.4479
 4730TIP3    H135681  -0.006   0.143  14.573  1.5953 -0.8221  0.7342
 4730TIP3    H235682   0.040   0.225  14.455  0.9006 -0.6704  0.5649
 4731TIP3   OH235683   6.250   1.974  15.759  0.1074  0.2269 -0.0686
 4731TIP3    H135684   6.333   1.941  15.792  0.0519  0.3645  0.2059
 4731TIP3    H235685   6.255   2.069  15.772  0.0475  0.2740 -0.3682
 4732TIP3   OH235686   1.472   2.317   3.523  0.3474 -0.4899 -0.1755
 4732TIP3    H135687   1.479   2.231   3.482  0.8005 -1.5415  1.9196
 4732TIP3    H235688   1.378   2.331   3.536  0.3305 -1.7765  1.4850
 4733TIP3   OH235689   4.791   1.012  10.525  0.5832 -0.0595 -0.0618
 4733TIP3    H135690   4.852   1.000  10.453  1.7739 -0.4296  0.9774
 4733TIP3    H235691   4.740   1.090  10.501  1.6360  0.4087 -0.8245
 4734TIP3   OH235692   2.149   3.950  11.234 -0.1585 -0.1332 -0.3790
 4734TIP3    H135693   2.144   3.867  11.281  1.1251  0.0243  0.0782
 4734TIP3    H235694   2.078   3.946  11.169 -2.5499 -0.0204  2.0350
 4735TIP3   OH235695   2.214   6.108  13.171  0.1924 -0.2494 -0.6297
 4735TIP3    H135696   2.303   6.138  13.151  0.5805  1.2699  2.6418
 4735TIP3    H235697   2.220   6.013  13.173  0.9820 -0.3226 -3.2465
 4736TIP3   OH235698   0.589   1.906   0.713  0.2629  0.0010  0.0976
 4736TIP3    H135699   0.534   1.857   0.652  0.9926 -1.5590  0.6364
 4736TIP3    H235700   0.553   1.885   0.799  1.9053 -1.4004  0.4977
 4737TIP3   OH235701   2.964   6.282   6.311  0.1310  0.4777  0.1594
 4737TIP3    H135702   2.879   6.270   6.268 -0.8135  1.8472  1.5242
 4737TIP3    H235703   2.966   6.375   6.333  0.8789 -0.0268  2.4326
 4738TIP3   OH235704   3.516   6.408  13.425  0.3692  0.3272  0.8705
 4738TIP3    H135705   3.590   6.466  13.407 -0.0226  0.9120  1.1330
 4738TIP3    H235706   3.503   6.360  13.343  1.7634 -0.6227  1.1741
 4739TIP3   OH235707   5.826   0.379  16.617 -0.0943 -0.2732  0.1747
 4739TIP3    H135708   5.742   0.378  16.571 -0.4976  0.1239  0.8711
 4739TIP3    H235709   5.854   0.470  16.615 -1.5856  0.4047  3.1884
 4740TIP3   OH235710   1.977   4.790  14.044 -0.3932 -0.4651 -0.4981
 4740TIP3    H135711   1.930   4.861  14.088 -0.6480 -0.5861 -0.5757
 4740TIP3    H235712   1.946   4.710  14.087  2.0924 -0.3967  1.7157
 4741TIP3   OH235713   6.284   6.423   5.725  0.2845  0.1847  0.2049
 4741TIP3    H135714   6.369   6.447   5.688  0.5399 -1.0530 -0.0417
 4741TIP3    H235715   6.280   6.328   5.718 -1.4768  0.2674 -0.5605
 4742TIP3   OH235716   3.586   4.853   1.855 -0.2128 -0.3776 -0.5518
 4742TIP3    H135717   3.531   4.792   1.805  0.4563 -0.3844 -1.3060
 4742TIP3    H235718   3.550   4.939   1.835 -0.6548 -0.4598 -0.1300
 4743TIP3   OH235719   1.171   3.886  11.633  0.2641 -0.0641 -0.0234
 4743TIP3    H135720   1.111   3.952  11.667  2.6136  1.6400  1.0076
 4743TIP3    H235721   1.197   3.835  11.710 -0.5134 -1.4077 -0.6106
 4744TIP3   OH235722   3.745   4.050   0.094  0.3469 -0.3263 -0.8754
 4744TIP3    H135723   3.658   4.085   0.074 -0.2118 -1.0780  0.1610
 4744TIP3    H235724   3.776   4.101   0.169 -0.2783 -1.6666  0.3500
 4745TIP3   OH235725   1.058   6.109   2.484 -0.3456  0.1230 -0.3468
 4745TIP3    H135726   1.123   6.175   2.459 -0.7962  0.4485 -0.6723
 4745TIP3    H235727   1.091   6.074   2.567  1.1605 -0.9396 -1.3224
 4746TIP3   OH235728   3.721   2.930  14.542 -0.2770 -0.0464 -0.7921
 4746TIP3    H135729   3.774   2.882  14.478 -1.1338 -0.6098 -1.0982
 4746TIP3    H235730   3.654   2.974  14.489 -0.0436  0.7787 -0.4247
 4747TIP3   OH235731   5.884   0.827   2.617  0.0826  0.0572  0.4888
 4747TIP3    H135732   5.868   0.883   2.693 -0.1931 -0.3504  0.7347
 4747TIP3    H235733   5.837   0.871   2.545  0.3580  0.4525  0.5455
 4748TIP3   OH235734   2.075   0.078   0.981  0.4212 -0.4078  0.0141
 4748TIP3    H135735   2.153   0.025   0.995  0.7613 -0.0790 -0.5987
 4748TIP3    H235736   2.074   0.139   1.055  0.8852 -0.2516 -0.1035
 4749TIP3   OH235737   6.171   6.479   0.120  0.2513 -0.8938 -0.0312
 4749TIP3    H135738   6.104   6.466   0.053  0.0760  1.0196 -0.2814
 4749TIP3    H235739   6.122   6.499   0.200  0.4931 -1.8628  0.3739
 4750TIP3   OH235740   2.588   4.244   0.688 -0.4901  0.1546 -0.1503
 4750TIP3    H135741   2.658   4.180   0.673 -0.1513  0.4584  0.0933
 4750TIP3    H235742   2.507   4.196   0.674 -0.2390  0.4192 -3.0954
 4751TIP3   OH235743   6.652   3.552  16.863 -1.0851  0.4264  0.0871
 4751TIP3    H135744   6.705   3.517  16.791 -0.0001  2.1270  0.0073
 4751TIP3    H235745   6.580   3.490  16.872  0.2579 -1.3169 -0.6160
 4752TIP3   OH235746   3.969   4.619   0.692 -0.3154 -0.3460 -0.0182
 4752TIP3    H135747   3.928   4.542   0.651 -0.2682  0.1108 -0.9550
 4752TIP3    H235748   4.035   4.582   0.751 -0.7014 -1.0350 -0.0019
 4753TIP3   OH235749   1.139   0.941  13.929 -0.2349  0.3812  0.0553
 4753TIP3    H135750   1.204   1.011  13.931 -0.7193  0.8703 -0.8427
 4753TIP3    H235751   1.191   0.861  13.927  0.6101  0.7462 -4.9732
 4754TIP3   OH235752   0.963   5.029  17.093  0.7430 -0.2377 -0.0454
 4754TIP3    H135753   1.053   4.997  17.087  1.2901  1.4140 -1.4048
 4754TIP3    H235754   0.950   5.048  17.186  1.6127 -0.9893  0.2408
 4755TIP3   OH235755   4.678   6.034  14.036 -1.0624 -0.0850 -0.5573
 4755TIP3    H135756   4.705   5.970  14.102 -1.7702 -1.5149 -1.5843
 4755TIP3    H235757   4.636   6.104  14.085 -0.1207 -0.3241  0.6192
 4756TIP3   OH235758   6.640   0.117  13.460 -0.3820  0.1998  0.3898
 4756TIP3    H135759   6.696   0.191  13.484 -2.9919  2.0218  1.3693
 4756TIP3    H235760   6.574   0.154  13.401 -1.3151 -1.5237  0.2763
 4757TIP3   OH235761   4.251   2.553   4.130  0.0220 -0.3465  0.1159
 4757TIP3    H135762   4.221   2.519   4.214 -0.0281  0.6803  0.5268
 4757TIP3    H235763   4.181   2.612   4.102  0.3824 -0.1033 -0.2849
 4758TIP3   OH235764   4.541   2.885  16.782 -0.0008 -0.1782  0.0327
 4758TIP3    H135765   4.502   2.962  16.741 -2.2389 -1.4329 -0.3816
 4758TIP3    H235766   4.601   2.850  16.715 -1.4007 -0.5547 -1.0857
 4759TIP3   OH235767   2.288   5.343   0.772 -0.4240 -0.1369  0.3381
 4759TIP3    H135768   2.234   5.399   0.715 -0.0876  0.1377  0.2878
 4759TIP3    H235769   2.249   5.256   0.764 -1.1857  0.1595  0.7010
 4760TIP3   OH235770   4.140   1.388  13.821 -0.4159 -0.0157 -0.2414
 4760TIP3    H135771   4.159   1.295  13.805  1.8553  0.1125  1.3717
 4760TIP3    H235772   4.219   1.434  13.794 -0.6717  1.2305  1.0374
 4761TIP3   OH235773   2.693   6.658  14.478 -0.3247 -0.0491 -0.1165
 4761TIP3    H135774   2.606   6.696  14.469 -0.3970  0.3255  1.7213
 4761TIP3    H235775   2.677   6.567  14.500 -0.2514 -0.0032  0.1257
 4762TIP3   OH235776   0.900   1.149   4.221 -0.2326  0.5353  0.5341
 4762TIP3    H135777   0.905   1.228   4.168  1.1678 -0.1122 -0.3633
 4762TIP3    H235778   0.842   1.091   4.172 -0.6152  0.7071  0.7821
 4763TIP3   OH235779   6.655   4.067   2.085 -0.0713 -0.6974 -0.5504
 4763TIP3    H135780   6.671   4.086   1.993  0.5766  0.0162 -0.3008
 4763TIP3    H235781   6.690   3.979   2.098  1.0054 -0.3103 -0.7110
 4764TIP3   OH235782   3.139   1.244  15.107  0.0586  0.0755 -0.4922
 4764TIP3    H135783   3.126   1.182  15.035 -2.5674 -0.3963  0.2722
 4764TIP3    H235784   3.074   1.312  15.091  1.5174  1.5886 -0.1876
 4765TIP3   OH235785   1.340   4.683   5.149  0.0598 -0.2197 -0.2822
 4765TIP3    H135786   1.345   4.610   5.211 -0.8172 -0.0084  0.0529
 4765TIP3    H235787   1.402   4.660   5.080  2.0411  0.1314  1.2740
 4766TIP3   OH235788   2.999   1.342  13.395 -0.4877  0.5397 -0.0596
 4766TIP3    H135789   3.077   1.342  13.451  0.0464 -0.2404 -0.7792
 4766TIP3    H235790   2.951   1.264  13.422  0.2889 -0.4236 -1.3565
 4767TIP3   OH235791   2.187   6.006  14.141 -0.0992  0.2076 -0.5753
 4767TIP3    H135792   2.131   6.034  14.069 -0.5327 -1.3673 -0.8962
 4767TIP3    H235793   2.251   5.948  14.100 -1.2909 -1.9565  0.4810
 4768TIP3   OH235794   5.731   6.545  13.517 -0.1169 -0.4285 -0.3758
 4768TIP3    H135795   5.802   6.486  13.492 -1.4436 -2.3505  0.1524
 4768TIP3    H235796   5.774   6.622  13.552  1.6951 -1.1275 -0.9682
 4769TIP3   OH235797   5.927   3.259  14.921  0.1325 -0.0296  0.3455
 4769TIP3    H135798   5.916   3.354  14.933 -1.3994 -0.0337 -0.7818
 4769TIP3    H235799   5.908   3.244  14.828 -0.7604 -1.5859  0.7425
 4770TIP3   OH235800   6.074   2.807  16.756 -0.2288  0.2283  0.0679
 4770TIP3    H135801   6.082   2.881  16.695  1.0031 -0.0612 -0.1584
 4770TIP3    H235802   6.103   2.842  16.840 -0.4714  0.2221  0.1555
 4771TIP3   OH235803   4.073   1.746   5.125 -0.8081 -0.1238  0.4402
 4771TIP3    H135804   4.087   1.832   5.085 -0.6226 -0.1674  0.4131
 4771TIP3    H235805   3.985   1.720   5.096 -1.5179  0.7405  1.6792
 4772TIP3   OH235806   4.777   2.399  12.271 -0.2185  0.0859  0.4579
 4772TIP3    H135807   4.830   2.363  12.201  0.6732 -0.0630  1.1831
 4772TIP3    H235808   4.743   2.323  12.318  0.1832  0.1751  0.9049
 4773TIP3   OH235809   2.063   4.674  11.572  0.4476  0.0005  0.2518
 4773TIP3    H135810   2.142   4.621  11.563  0.5393  0.2514 -0.4709
 4773TIP3    H235811   1.999   4.614  11.611  0.8360 -0.3552  0.3572
 4774TIP3   OH235812   3.275   0.756  12.971 -0.1704  0.1994 -0.3781
 4774TIP3    H135813   3.256   0.674  13.018  0.1656  0.0750 -0.4546
 4774TIP3    H235814   3.339   0.731  12.905  1.0523  0.8016  0.5427
 4775TIP3   OH235815   0.401   1.356  12.083 -0.8710  0.0242  0.0722
 4775TIP3    H135816   0.463   1.373  12.154 -1.2877 -0.0844  0.4661
 4775TIP3    H235817   0.326   1.316  12.126 -0.9622 -0.4187 -0.4896
 4776TIP3   OH235818   5.586   2.218   2.206 -0.2229  0.3554  0.3598
 4776TIP3    H135819   5.658   2.236   2.267  1.2572  0.5169 -1.3553
 4776TIP3    H235820   5.616   2.253   2.122 -2.3265  0.4335 -0.4337
 4777TIP3   OH235821   1.489   6.307   3.644  0.0094  0.1551 -0.6927
 4777TIP3    H135822   1.514   6.216   3.660  0.4009  0.3671 -0.0880
 4777TIP3    H235823   1.400   6.301   3.609 -0.2263 -0.4229 -0.0222
 4778TIP3   OH235824   0.546   2.203  12.956 -0.0599  0.7248 -0.5986
 4778TIP3    H135825   0.569   2.163  12.872 -2.0021  0.9303 -1.2717
 4778TIP3    H235826   0.619   2.262  12.976  2.5752 -2.4699  0.0704
 4779TIP3   OH235827   4.112   1.961   2.708  0.0551  0.4309  0.2785
 4779TIP3    H135828   4.037   1.936   2.762  1.4971 -0.1719  2.0989
 4779TIP3    H235829   4.114   1.896   2.638 -1.4063  0.7774 -0.1298
 4780TIP3   OH235830   1.200   4.834   1.909 -0.3699  0.6440 -0.1431
 4780TIP3    H135831   1.258   4.758   1.911 -1.4823 -0.2650 -1.0732
 4780TIP3    H235832   1.233   4.891   1.978  1.7145  0.2385 -0.7401
 4781TIP3   OH235833   3.344   3.899  12.904 -0.2199 -0.2025 -0.2708
 4781TIP3    H135834   3.411   3.837  12.875 -1.2360 -1.1739 -0.6017
 4781TIP3    H235835   3.323   3.873  12.993 -1.0642 -0.7350 -0.6079
 4782TIP3   OH235836   3.668   2.532   3.952 -0.9192  0.3373  0.5190
 4782TIP3    H135837   3.618   2.605   3.990 -1.8333  0.1598 -0.2957
 4782TIP3    H235838   3.673   2.467   4.022 -4.6529 -1.0143 -0.2349
 4783TIP3   OH235839   4.917   4.617   6.201  0.1241  0.4963  0.1878
 4783TIP3    H135840   4.824   4.639   6.202 -0.1449 -0.2629 -1.8134
 4783TIP3    H235841   4.951   4.651   6.283 -2.2673 -0.8090  1.8372
 4784TIP3   OH235842   5.554   5.434   1.407 -0.5037 -0.3917  0.5453
 4784TIP3    H135843   5.519   5.355   1.450 -0.4555 -1.0685 -0.6097
 4784TIP3    H235844   5.481   5.466   1.353 -0.2144 -0.2184  0.2500
 4785TIP3   OH235845   4.539   2.542  12.944  0.0950  0.0053  0.5746
 4785TIP3    H135846   4.456   2.495  12.959  0.4620 -0.0236  2.6942
 4785TIP3    H235847   4.606   2.475  12.954  0.4616  0.2725 -0.0105
 4786TIP3   OH235848   4.176   5.111   5.389  0.2802  0.4166  0.1366
 4786TIP3    H135849   4.260   5.072   5.414  0.5021  0.6198 -0.2690
 4786TIP3    H235850   4.126   5.115   5.470  0.8949  0.8437  0.5070
 4787TIP3   OH235851   0.385   2.811  14.961  0.6708  0.5577  0.2659
 4787TIP3    H135852   0.318   2.879  14.966  0.9426  0.7965  0.7094
 4787TIP3    H235853   0.466   2.854  14.989  1.2682  0.5980 -1.3814
 4788TIP3   OH235854   2.923   2.366  13.499 -0.7539 -0.1510  0.4233
 4788TIP3    H135855   2.885   2.373  13.587 -1.2422  1.5895  0.1080
 4788TIP3    H235856   3.005   2.319  13.513  0.1177  1.6973  2.1557
 4789TIP3   OH235857   1.190   0.761   4.163  0.0589 -0.3084  0.5820
 4789TIP3    H135858   1.211   0.847   4.199 -0.2161 -0.2762  0.6663
 4789TIP3    H235859   1.242   0.756   4.082  2.4070 -1.2675  2.0494
 4790TIP3   OH235860   0.827   3.899  15.482 -0.2968 -0.1057 -0.3148
 4790TIP3    H135861   0.780   3.823  15.516 -0.5371 -0.0754 -0.5729
 4790TIP3    H235862   0.818   3.891  15.387 -0.5296  0.3748 -0.3346
 4791TIP3   OH235863   2.450   2.878  14.955  0.1735 -0.0246 -0.3446
 4791TIP3    H135864   2.487   2.966  14.952 -2.2850  1.0863 -0.4326
 4791TIP3    H235865   2.470   2.841  14.869  1.4409  0.3340 -0.2169
 4792TIP3   OH235866   4.674   3.826   5.908  0.0886 -0.2595  0.0115
 4792TIP3    H135867   4.693   3.920   5.913  0.1113 -0.3018  1.1360
 4792TIP3    H235868   4.656   3.810   5.816  0.4627  0.7769 -0.2627
 4793TIP3   OH235869   2.142   5.113  12.000 -0.3865 -0.6056 -0.1992
 4793TIP3    H135870   2.099   5.183  11.950  1.4474  0.8963  0.2067
 4793TIP3    H235871   2.178   5.055  11.933 -2.1475 -1.3636 -0.5449
 4794TIP3   OH235872   4.107   3.615   3.627 -0.6158  0.4255  0.8971
 4794TIP3    H135873   4.067   3.696   3.660  0.9751  0.8789  1.8339
 4794TIP3    H235874   4.100   3.622   3.532 -1.3896  1.2001  0.9974
 4795TIP3   OH235875   1.199   5.349   4.234 -0.0579 -0.1167 -0.1432
 4795TIP3    H135876   1.137   5.366   4.163 -3.0462  0.5057  2.4458
 4795TIP3    H235877   1.150   5.299   4.299  2.0309  0.6948  2.2379
 4796TIP3   OH235878   5.668   0.881  16.845 -0.1384  0.6493  0.3722
 4796TIP3    H135879   5.631   0.831  16.918 -0.8130  0.1009 -0.3317
 4796TIP3    H235880   5.762   0.874  16.857 -0.2355 -0.0106  0.8134
 4797TIP3   OH235881   0.023   2.483   3.136  0.0694 -0.2868 -0.4793
 4797TIP3    H135882   0.065   2.397   3.138 -2.0484 -1.3859 -0.9927
 4797TIP3    H235883   0.064   2.527   3.061 -0.1660 -1.6009 -1.4173
 4798TIP3   OH235884   3.983   5.323   5.722  0.3245  0.2111 -0.2285
 4798TIP3    H135885   4.021   5.239   5.698  0.5613  0.0612  0.6312
 4798TIP3    H235886   3.939   5.353   5.642  3.2471  0.9889 -1.6634
 4799TIP3   OH235887   2.001   6.089  14.766 -0.2922  0.9781  0.3509
 4799TIP3    H135888   2.012   6.163  14.825  0.7885  0.2212  1.1338
 4799TIP3    H235889   1.932   6.036  14.807 -1.9946  2.1269 -0.8621
 4800TIP3   OH235890   4.026   6.228   2.007  0.0859 -0.2053 -0.0148
 4800TIP3    H135891   3.963   6.240   1.936 -1.3732 -0.6344  1.1566
 4800TIP3    H235892   4.041   6.133   2.010  0.7890 -0.1092 -0.2716
 4801TIP3   OH235893   1.985   4.784   5.502  1.0286  0.1027 -0.0521
 4801TIP3    H135894   2.078   4.781   5.481  0.9325  2.8622 -1.3597
 4801TIP3    H235895   1.965   4.878   5.509 -1.7797 -0.3647 -0.5030
 4802TIP3   OH235896   1.191   6.379   5.077  0.2250  0.2189 -0.9261
 4802TIP3    H135897   1.128   6.326   5.125  0.5778  1.9490  1.6334
 4802TIP3    H235898   1.144   6.408   4.999 -1.4777 -0.1321 -0.0768
 4803TIP3   OH235899   6.587   6.607   4.356  0.7246 -0.5266  0.5532
 4803TIP3    H135900   6.656   6.595   4.290 -0.3315  0.6992 -0.8452
 4803TIP3    H235901   6.634   6.630   4.436  2.0000 -1.1289  0.0030
 4804TIP3   OH235902   3.000   4.498  14.782 -0.2392  0.1343  0.0704
 4804TIP3    H135903   2.971   4.433  14.718 -0.8579  1.1739 -0.7480
 4804TIP3    H235904   2.928   4.505  14.844  0.3781 -0.9041  0.9284
 4805TIP3   OH235905   1.891   1.774  16.819 -0.1279 -0.1562  0.5146
 4805TIP3    H135906   1.961   1.818  16.772 -0.8051  0.5273  0.1162
 4805TIP3    H235907   1.816   1.834  16.812 -0.4928 -0.4405  1.7179
 4806TIP3   OH235908   1.734   1.354  16.276 -0.4250  0.4796  0.4943
 4806TIP3    H135909   1.749   1.413  16.350  0.6680  0.6121  0.1890
 4806TIP3    H235910   1.784   1.393  16.204 -1.3682  0.2900 -0.2919
 4807TIP3   OH235911   0.317   3.590   5.710 -0.0733  0.2621  0.2618
 4807TIP3    H135912   0.393   3.549   5.750  0.2816 -0.8056 -1.4166
 4807TIP3    H235913   0.246   3.576   5.773  0.7871  0.0195  1.1980
 4808TIP3   OH235914   1.692   5.703  15.907 -0.2902  0.5039 -0.3215
 4808TIP3    H135915   1.600   5.708  15.932 -0.9890  1.7317 -2.8866
 4808TIP3    H235916   1.738   5.754  15.974 -0.9572 -2.5143  2.7136
 4809TIP3   OH235917   3.246   6.301   2.191  0.1587  0.2384  0.0644
 4809TIP3    H135918   3.232   6.392   2.165 -0.6109  0.2191  0.3948
 4809TIP3    H235919   3.162   6.258   2.174  0.5908 -0.4721 -0.3212
 4810TIP3   OH235920   5.072   0.587  13.656 -0.0181  0.0236 -0.3503
 4810TIP3    H135921   5.163   0.594  13.686 -0.3988  1.8950  0.5100
 4810TIP3    H235922   5.064   0.654  13.588 -0.7634 -0.1308 -0.4270
 4811TIP3   OH235923   5.122   2.535  10.804 -0.1179  0.1928 -0.5269
 4811TIP3    H135924   5.061   2.604  10.829  1.3929  0.6961  2.1530
 4811TIP3    H235925   5.185   2.578  10.747  0.3797  0.8834  0.5179
 4812TIP3   OH235926   1.683   2.095  12.041  0.0292 -0.1649 -0.2711
 4812TIP3    H135927   1.609   2.040  12.017 -1.0027  0.4139  1.4332
 4812TIP3    H235928   1.669   2.117  12.133  2.4867 -0.2810  0.2097
 4813TIP3   OH235929   6.489   1.302  16.523  0.2098  0.3958 -0.1489
 4813TIP3    H135930   6.491   1.291  16.618 -0.4455 -0.1809 -0.1925
 4813TIP3    H235931   6.517   1.217  16.489  1.4076  0.9088 -0.4716
 4814TIP3   OH235932   1.958   6.841  14.866 -0.0448  0.4044 -0.3072
 4814TIP3    H135933   2.034   6.801  14.908 -0.8097  0.3970  1.1395
 4814TIP3    H235934   1.887   6.831  14.930 -1.6926 -0.9728 -2.2322
 4815TIP3   OH235935   1.875   4.262  16.023  1.0043  0.8854  0.1449
 4815TIP3    H135936   1.926   4.288  16.099 -1.4865  2.0963  1.4952
 4815TIP3    H235937   1.864   4.167  16.033  1.7445  0.8310  0.5685
 4816TIP3   OH235938   0.321   0.453   1.648 -0.1761 -0.1555  0.3747
 4816TIP3    H135939   0.313   0.469   1.554 -0.9602  1.6723  0.7094
 4816TIP3    H235940   0.368   0.530   1.681  0.6829 -1.0828  1.4059
 4817TIP3   OH235941   0.197   4.074   1.775 -0.3415 -0.5877 -0.0661
 4817TIP3    H135942   0.206   4.077   1.680  2.5344 -0.5703  0.1195
 4817TIP3    H235943   0.287   4.071   1.808 -1.1672  1.1274  2.7287
 4818TIP3   OH235944   0.253   6.279   5.259  0.0181  0.1704  0.5581
 4818TIP3    H135945   0.322   6.342   5.279 -0.5593  0.7699  0.7216
 4818TIP3    H235946   0.279   6.199   5.304  0.4331  0.4943  0.9020
 4819TIP3   OH235947   2.674   4.434  14.198  0.1628  0.2512  0.0483
 4819TIP3    H135948   2.752   4.410  14.248 -0.3896 -1.7150  0.0565
 4819TIP3    H235949   2.663   4.362  14.136 -2.1806 -0.0269  0.6907
 4820TIP3   OH235950   0.134   1.554   4.016 -0.1716 -0.1010 -0.3664
 4820TIP3    H135951   0.132   1.489   4.086 -1.7020 -1.6182 -1.7161
 4820TIP3    H235952   0.059   1.611   4.034 -0.7207 -0.6457 -0.8547
 4821TIP3   OH235953   0.746   3.288  16.312  0.2227 -0.0704  0.1125
 4821TIP3    H135954   0.671   3.345  16.296 -0.2131 -1.1207 -1.8531
 4821TIP3    H235955   0.779   3.315  16.398 -0.3331  2.6833 -0.4635
 4822TIP3   OH235956   4.477   5.846  12.129  0.3662  0.2353  0.2007
 4822TIP3    H135957   4.514   5.896  12.056 -0.4409  0.7683  0.1409
 4822TIP3    H235958   4.545   5.782  12.152  0.8444  0.4259 -0.6544
 4823TIP3   OH235959   2.409   1.769  13.612  0.5778  0.5816  0.1579
 4823TIP3    H135960   2.320   1.767  13.648 -0.0332  2.3503 -1.1241
 4823TIP3    H235961   2.412   1.848  13.559  3.0679  0.7918  0.4717
 4824TIP3   OH235962   2.599   5.893  12.540 -0.2469 -0.2476  0.3453
 4824TIP3    H135963   2.597   5.855  12.628 -0.0081 -0.0054  0.4562
 4824TIP3    H235964   2.522   5.951  12.537  0.9010  1.4054  1.1528
 4825TIP3   OH235965   1.988   4.142   4.783 -0.1299  0.4155  0.2316
 4825TIP3    H135966   2.021   4.059   4.750 -1.1216  0.7102 -1.6768
 4825TIP3    H235967   2.053   4.171   4.847  3.0809  0.6873 -2.8414
 4826TIP3   OH235968   1.693   0.411  11.398 -0.0281  0.6306 -0.3795
 4826TIP3    H135969   1.606   0.423  11.361  0.0991  0.3543 -0.7679
 4826TIP3    H235970   1.743   0.367  11.330  0.6683  1.5568 -0.4774
 4827TIP3   OH235971   6.147   2.444  12.151  0.1120 -0.1996 -0.5345
 4827TIP3    H135972   6.100   2.521  12.182 -0.9080 -1.1169  0.2964
 4827TIP3    H235973   6.143   2.382  12.225 -0.2161 -1.5197 -1.6134
 4828TIP3   OH235974   2.212   1.123  11.033  0.5880 -0.3906  0.5620
 4828TIP3    H135975   2.198   1.090  10.945  2.4994  1.3648 -0.4824
 4828TIP3    H235976   2.124   1.136  11.069 -0.3704  1.9753 -2.3051
 4829TIP3   OH235977   4.825   4.796   3.428  0.1415 -0.0211  0.2641
 4829TIP3    H135978   4.829   4.721   3.486 -0.4925 -0.9671 -0.8739
 4829TIP3    H235979   4.907   4.844   3.444  0.0450 -0.3385  1.7859
 4830TIP3   OH235980   2.860   4.157   1.712 -0.5497 -0.2727  0.5863
 4830TIP3    H135981   2.799   4.152   1.785 -0.7933 -0.6754  0.3589
 4830TIP3    H235982   2.817   4.110   1.641  1.0724 -2.7941  1.1408
 4831TIP3   OH235983   0.368   2.641  13.420 -0.2305 -0.0235  0.6829
 4831TIP3    H135984   0.443   2.606  13.469 -0.3668 -3.2244 -1.1214
 4831TIP3    H235985   0.292   2.595  13.456 -0.8653  0.6259  0.1912
 4832TIP3   OH235986   0.563   5.485  15.724 -0.6844 -0.0528  0.0357
 4832TIP3    H135987   0.589   5.393  15.717  2.8376  0.7416  0.3601
 4832TIP3    H235988   0.611   5.528  15.653 -0.4977  1.7922  1.2285
 4833TIP3   OH235989   0.819   2.481  16.772  0.1012  0.0211  0.0342
 4833TIP3    H135990   0.749   2.417  16.774 -0.1462  0.2569  2.9178
 4833TIP3    H235991   0.774   2.566  16.765  0.2670  0.0484 -0.7895
 4834TIP3   OH235992   3.543   2.437  15.653 -0.4978  0.4452 -0.2391
 4834TIP3    H135993   3.540   2.343  15.667 -1.6720  0.6922  1.4227
 4834TIP3    H235994   3.621   2.451  15.598  0.4887 -1.3441  0.6351
 4835TIP3   OH235995   5.678   4.719  16.143  0.3585 -0.7990  0.1090
 4835TIP3    H135996   5.698   4.727  16.050 -2.4414  1.0374 -0.4858
 4835TIP3    H235997   5.615   4.647  16.148 -1.5076  0.7121  0.0469
 4836TIP3   OH235998   6.163   2.059  11.568 -0.0832 -0.6332 -0.5328
 4836TIP3    H135999   6.219   1.982  11.575 -1.1526 -1.4864 -1.1638
 4836TIP3    H236000   6.126   2.070  11.655  1.2823  0.1331 -0.0204
 4837TIP3   OH236001   6.034   6.832   1.780  0.2690  0.2810 -0.4269
 4837TIP3    H136002   6.095   6.818   1.852  1.4813  1.0407 -1.2870
 4837TIP3    H236003   6.087   6.823   1.701 -0.7425  0.9175 -1.1995
 4838TIP3   OH236004   3.702   6.405  13.951 -0.0716 -0.0047  0.5809
 4838TIP3    H136005   3.792   6.431  13.933  0.3707 -2.5491 -1.4664
 4838TIP3    H236006   3.706   6.360  14.036  1.3144 -2.8540 -0.8716
 4839TIP3   OH236007   6.713   4.206   4.662  0.0048 -0.0928  0.1469
 4839TIP3    H136008   6.676   4.225   4.748 -2.2794  0.1441 -0.8266
 4839TIP3    H236009   6.808   4.214   4.675 -0.1314 -1.6149  2.9941
 4840TIP3   OH236010   6.684   3.077   5.893 -0.0323 -0.0210 -0.0199
 4840TIP3    H136011   6.697   3.164   5.854 -0.5935 -0.1749 -0.5593
 4840TIP3    H236012   6.589   3.070   5.904  0.0937 -0.0736  1.1814
 4841TIP3   OH236013   2.222   3.567  11.976  0.1768  0.2530 -0.3099
 4841TIP3    H136014   2.265   3.554  11.891 -3.3084  0.7787 -2.3583
 4841TIP3    H236015   2.225   3.481  12.017  0.7998 -0.3643 -1.5773
 4842TIP3   OH236016   3.316   4.672  14.951  0.0766  0.3730  0.1032
 4842TIP3    H136017   3.275   4.662  15.036  0.2912  1.0899  0.2976
 4842TIP3    H236018   3.295   4.761  14.924  0.9172  0.5245 -0.0979
 4843TIP3   OH236019   1.414   3.514  13.580 -0.2276  0.1121  0.0256
 4843TIP3    H136020   1.375   3.434  13.615  1.4613 -0.7675 -0.0141
 4843TIP3    H236021   1.497   3.523  13.626  0.9271  0.2669 -1.9905
 4844TIP3   OH236022   2.922   6.659   2.714 -0.0945  0.2093 -0.0509
 4844TIP3    H136023   2.828   6.650   2.732 -0.2413  0.4060 -0.7080
 4844TIP3    H236024   2.946   6.742   2.757 -0.4961  0.8011 -0.9452
 4845TIP3   OH236025   1.758   4.052  12.701 -0.3237  0.4383 -0.9786
 4845TIP3    H136026   1.680   3.999  12.714  0.3349 -0.1949  0.6215
 4845TIP3    H236027   1.728   4.142  12.709 -0.4167  0.2448  3.5439
 4846TIP3   OH236028   3.388   0.601   0.772 -0.0629  0.2567  0.3306
 4846TIP3    H136029   3.398   0.571   0.862  0.2794  4.5492  1.9747
 4846TIP3    H236030   3.476   0.593   0.734  0.5268  1.1956  1.4469
 4847TIP3   OH236031   1.980   6.302  14.162 -1.2094 -0.1873  0.1086
 4847TIP3    H136032   1.953   6.297  14.254  0.6536  1.7906  0.8616
 4847TIP3    H236033   1.915   6.357  14.120 -1.3249  0.0304  0.5695
 4848TIP3   OH236034   4.087   2.913  16.461 -0.2030 -0.2757 -0.4401
 4848TIP3    H136035   4.036   2.993  16.472 -1.2305 -0.8902 -0.6453
 4848TIP3    H236036   4.108   2.885  16.550  1.5686  1.0723 -0.3782
 4849TIP3   OH236037   2.339   0.256  17.103  0.3284 -0.2644 -0.7363
 4849TIP3    H136038   2.427   0.289  17.120  0.4470  0.2277 -2.1631
 4849TIP3    H236039   2.323   0.193  17.173  1.7485 -0.2633 -0.3773
 4850TIP3   OH236040   0.688   2.767   3.956  0.0547  0.0987 -0.2541
 4850TIP3    H136041   0.687   2.702   3.886  0.9284 -0.8161  0.5443
 4850TIP3    H236042   0.731   2.843   3.917  0.3272 -0.3150 -0.7757
 4851TIP3   OH236043   1.184   6.186   4.100  0.1639 -0.0657 -0.6354
 4851TIP3    H136044   1.222   6.103   4.072  1.8268  0.2212  0.6473
 4851TIP3    H236045   1.256   6.248   4.099 -0.6550  0.9463  0.1392
 4852TIP3   OH236046   2.187   0.065  10.204 -0.1070  0.2466 -0.0667
 4852TIP3    H136047   2.093   0.079  10.218 -0.4711  0.6818 -2.5571
 4852TIP3    H236048   2.219   0.147  10.167  1.2782  0.0753  0.6598
 4853TIP3   OH236049   1.802   2.143   1.666  0.4620 -0.2549 -0.7749
 4853TIP3    H136050   1.731   2.201   1.636  0.5378 -1.3041 -3.2538
 4853TIP3    H236051   1.882   2.194   1.651  0.3732  0.0356 -0.2736
 4854TIP3   OH236052   0.926   6.032  15.565 -0.1722 -0.2789 -0.3298
 4854TIP3    H136053   0.946   6.124  15.544 -1.5317 -0.1049 -1.0363
 4854TIP3    H236054   0.947   6.024  15.658  0.7807  0.5080 -0.4574
 4855TIP3   OH236055   2.521   4.322   2.951 -0.1025  0.3260  0.1044
 4855TIP3    H136056   2.545   4.302   2.861  0.3770  1.4321 -0.0298
 4855TIP3    H236057   2.435   4.363   2.945  0.3115  1.2039  0.0511
 4856TIP3   OH236058   2.783   5.410  11.800  0.0420 -0.5212 -0.2919
 4856TIP3    H136059   2.849   5.345  11.825  0.2598 -0.2707 -0.2196
 4856TIP3    H236060   2.828   5.494  11.806 -0.0546 -0.4149 -1.0143
 4857TIP3   OH236061   0.060   3.200  14.956 -0.2201 -0.3381 -0.1758
 4857TIP3    H136062   0.117   3.239  15.022 -1.2373 -0.8116  1.0263
 4857TIP3    H236063  -0.014   3.166  15.006 -2.2305  1.3899 -1.7605
 4858TIP3   OH236064   3.895   1.671   2.447 -1.1115 -0.4822  0.4909
 4858TIP3    H136065   3.930   1.645   2.532 -2.1174 -2.3694  0.3915
 4858TIP3    H236066   3.943   1.617   2.384 -0.2260  1.0453 -0.2153
 4859TIP3   OH236067   0.061   5.429  15.994  0.1536 -0.1973  0.3594
 4859TIP3    H136068   0.137   5.483  15.975 -0.3979 -0.0595 -1.6526
 4859TIP3    H236069   0.075   5.349  15.943 -0.1644 -0.9744  1.4559
 4860TIP3   OH236070   4.064   3.158   4.576  0.2523  0.6776 -0.2836
 4860TIP3    H136071   4.088   3.237   4.624  2.0409  0.7146 -1.1426
 4860TIP3    H236072   4.096   3.174   4.487 -0.7281 -0.4049 -0.8528
 4861TIP3   OH236073   4.039   4.880   0.255  0.5852  0.1085 -0.4166
 4861TIP3    H136074   3.975   4.870   0.326  0.7219 -0.8270 -0.4019
 4861TIP3    H236075   4.122   4.896   0.300  1.3330 -3.6656 -0.0826
 4862TIP3   OH236076   3.260   3.771  16.397  1.0814  0.3482  0.0672
 4862TIP3    H136077   3.238   3.678  16.401  0.9823  0.3899  0.6299
 4862TIP3    H236078   3.197   3.809  16.336  0.6949  0.1638  0.3501
 4863TIP3   OH236079   4.031   5.060   4.469  0.4064  0.1782  0.2833
 4863TIP3    H136080   4.124   5.046   4.454  0.6873  0.8088  1.3812
 4863TIP3    H236081   4.018   5.045   4.562 -0.5267  0.4522  0.2139
 4864TIP3   OH236082   6.281   4.110   6.202 -0.6665  0.4366 -0.3597
 4864TIP3    H136083   6.226   4.061   6.263 -1.5342 -0.7675 -2.0442
 4864TIP3    H236084   6.300   4.049   6.131  2.0643  1.1116 -0.3431
 4865TIP3   OH236085   3.606   6.434   2.895  0.5612  0.1571 -0.3814
 4865TIP3    H136086   3.649   6.482   2.824  1.7598 -0.5065 -0.1300
 4865TIP3    H236087   3.628   6.484   2.974 -0.4614  0.6860 -0.4085
 4866TIP3   OH236088   1.015   6.375   3.212  0.0070  0.3586  0.1767
 4866TIP3    H136089   1.045   6.425   3.136  0.1649 -0.5794 -0.3825
 4866TIP3    H236090   1.043   6.285   3.195 -3.0184 -0.6035 -0.3292
 4867TIP3   OH236091   1.157   5.213   5.339  0.5474  0.4387 -0.3614
 4867TIP3    H136092   1.231   5.153   5.344 -1.0668 -1.5471  1.2106
 4867TIP3    H236093   1.165   5.268   5.417  0.0626 -0.1819  0.1335
 4868TIP3   OH236094   6.499   4.956  13.151  0.3335 -0.1220 -0.5649
 4868TIP3    H136095   6.485   4.944  13.245  0.3215 -0.9828 -0.6680
 4868TIP3    H236096   6.537   4.874  13.122  0.2240  0.0922 -1.3398
 4869TIP3   OH236097   5.672   4.021  14.276 -0.6381  0.1898 -1.4096
 4869TIP3    H136098   5.656   3.958  14.346 -0.5503  0.3405 -1.2519
 4869TIP3    H236099   5.751   4.068  14.304 -0.1845 -0.2377 -1.9583
 4870TIP3   OH236100   6.458   4.230   3.301 -0.1868 -0.4538  0.4991
 4870TIP3    H136101   6.488   4.179   3.225 -0.2389 -1.7577  1.3188
 4870TIP3    H236102   6.530   4.291   3.319  0.4955 -1.1896  0.3329
 4871TIP3   OH236103   3.769   1.162   4.123  0.2030  0.1985  0.0565
 4871TIP3    H136104   3.743   1.079   4.082  2.0152 -0.8071  0.8315
 4871TIP3    H236105   3.772   1.142   4.217  0.4141  1.2337  0.2800
 4872TIP3   OH236106   3.348   5.203   0.940 -0.0796 -0.1394 -0.3032
 4872TIP3    H136107   3.399   5.184   1.019 -1.2855 -0.7185  0.3625
 4872TIP3    H236108   3.399   5.164   0.869  1.2277  0.7392  0.1099
 4873TIP3   OH236109   5.945   5.645  15.345  0.0185 -0.0553 -0.3341
 4873TIP3    H136110   6.023   5.686  15.382 -0.5575 -0.2531  1.1844
 4873TIP3    H236111   5.877   5.711  15.353 -0.7835 -1.0404  1.6100
 4874TIP3   OH236112   2.265   1.038  13.474  0.1079 -0.2790  0.2402
 4874TIP3    H136113   2.262   1.133  13.465  1.0831 -0.1009  1.5018
 4874TIP3    H236114   2.177   1.014  13.502 -0.0334  0.3068  0.3091
 4875TIP3   OH236115   5.938   1.815  14.029 -0.4890 -0.3403  0.4267
 4875TIP3    H136116   6.016   1.870  14.018 -0.6598  0.1187  1.3869
 4875TIP3    H236117   5.952   1.741  13.970  1.0719 -0.7113  1.2149
 4876TIP3   OH236118   2.089   3.076   1.206  0.0789  0.3165 -0.0395
 4876TIP3    H136119   2.145   3.009   1.245  1.1701  0.0486 -1.9163
 4876TIP3    H236120   2.079   3.142   1.274 -0.0211 -1.1660  1.4372
 4877TIP3   OH236121   1.794   1.596   2.734 -0.3196 -0.5150  0.3885
 4877TIP3    H136122   1.785   1.648   2.814  1.2975  0.2483  0.1100
 4877TIP3    H236123   1.705   1.566   2.715 -1.2179  1.5716  0.9635
 4878TIP3   OH236124   2.313   6.581   1.024 -0.5641  0.3722  0.0997
 4878TIP3    H136125   2.344   6.663   0.986 -0.2276  0.2377  0.0751
 4878TIP3    H236126   2.388   6.522   1.017 -0.0922  0.6745  2.0526
 4879TIP3   OH236127   1.073   1.109  16.093  0.5047 -0.3894  0.6631
 4879TIP3    H136128   1.121   1.108  16.009  1.2651  2.9198  0.9079
 4879TIP3    H236129   1.136   1.146  16.155 -0.7249 -0.8986  2.2655
 4880TIP3   OH236130   1.944   4.465   4.848  0.9822 -0.4843 -0.4527
 4880TIP3    H136131   1.891   4.535   4.888  0.5534 -1.0381 -0.0342
 4880TIP3    H236132   1.937   4.481   4.754  0.0754 -0.5365 -0.4047
 4881TIP3   OH236133   4.003   4.524   2.840 -0.3182  0.3871  0.2286
 4881TIP3    H136134   4.025   4.431   2.848 -0.2906  0.3513 -0.2157
 4881TIP3    H236135   3.913   4.530   2.872 -1.1684 -0.2108 -1.8661
 4882TIP3   OH236136   4.534   0.663  16.627 -0.6722 -0.6507  0.2933
 4882TIP3    H136137   4.517   0.584  16.576 -1.9529  0.4128 -0.9969
 4882TIP3    H236138   4.630   0.666  16.636 -0.4452 -1.1618 -1.5738
 4883TIP3   OH236139   1.751   0.117  14.691  0.6832  0.1757  0.3861
 4883TIP3    H136140   1.805   0.052  14.736 -0.9652 -1.1205  0.5988
 4883TIP3    H236141   1.712   0.168  14.762 -0.1248 -0.3735  0.3446
 4884TIP3   OH236142   6.262   4.292  13.581 -0.0169  0.3610  1.1177
 4884TIP3    H136143   6.186   4.342  13.611 -0.4622 -0.3686  1.2502
 4884TIP3    H236144   6.261   4.213  13.635 -0.0316 -0.3411  0.1251
 4885TIP3   OH236145   1.552   5.153  12.912 -0.3473 -0.1111 -0.2428
 4885TIP3    H136146   1.503   5.149  12.830 -1.0659 -1.0628  0.2195
 4885TIP3    H236147   1.492   5.118  12.978  0.0704  0.9961  0.7702
 4886TIP3   OH236148   4.513   0.889  16.829  0.3084 -0.3169  0.2039
 4886TIP3    H136149   4.529   0.897  16.735  0.9952  2.4173  0.4925
 4886TIP3    H236150   4.588   0.839  16.861  1.0373  0.3296 -0.4543
 4887TIP3   OH236151   4.374   4.497  13.923 -0.4137  0.1953 -0.3598
 4887TIP3    H136152   4.336   4.572  13.970  2.4068  1.8037 -0.4288
 4887TIP3    H236153   4.444   4.466  13.981 -0.4591 -1.3653 -1.0926
 4888TIP3   OH236154   0.760   1.859   0.055 -0.7189 -0.1815 -0.1651
 4888TIP3    H136155   0.728   1.947   0.036  1.2272  0.5954 -0.0125
 4888TIP3    H236156   0.712   1.833   0.134 -1.2945  0.7455 -0.1936
 4889TIP3   OH236157   4.222   2.935   4.675 -0.3010 -0.3323 -0.1196
 4889TIP3    H136158   4.153   2.989   4.637  1.1278  1.6977 -0.0299
 4889TIP3    H236159   4.298   2.993   4.677  0.5745 -1.4305  2.6981
 4890TIP3   OH236160   6.054   0.442   6.509 -0.2969 -0.2051 -0.1502
 4890TIP3    H136161   6.108   0.465   6.434 -3.3283 -0.3250 -2.5930
 4890TIP3    H236162   6.037   0.348   6.499 -0.9793 -0.1626  0.4770
 4891TIP3   OH236163   4.798   2.650  15.829  1.0011 -0.0674  0.0124
 4891TIP3    H136164   4.778   2.705  15.753 -1.5883 -2.0748 -0.9452
 4891TIP3    H236165   4.835   2.570  15.791  3.3816  0.3851  1.2506
 4892TIP3   OH236166   1.217   0.636   1.131  0.1018  0.3131 -0.6337
 4892TIP3    H136167   1.215   0.731   1.114 -0.1787  0.2372 -1.0439
 4892TIP3    H236168   1.142   0.622   1.189 -0.7789  0.1221 -1.7897
 4893TIP3   OH236169   4.476   4.260  13.297 -0.2874 -0.2653  0.6302
 4893TIP3    H136170   4.455   4.168  13.281  1.8359 -0.5630 -0.8691
 4893TIP3    H236171   4.454   4.274  13.389 -2.7211 -1.6195  0.3505
 4894TIP3   OH236172   4.394   2.237   0.445  0.0796 -0.1239  0.4192
 4894TIP3    H136173   4.417   2.161   0.498  1.1340 -0.9446 -1.1226
 4894TIP3    H236174   4.323   2.207   0.388 -2.1782  1.2154  2.3541
 4895TIP3   OH236175   2.079   4.035  13.754  0.7466  0.0043 -0.3666
 4895TIP3    H136176   2.110   3.970  13.692  1.2513 -1.2689  1.1534
 4895TIP3    H236177   2.157   4.081  13.783  0.8474 -0.8799  0.8883
 4896TIP3   OH236178   2.226   0.397  16.792 -0.3659  1.2359 -0.2679
 4896TIP3    H136179   2.211   0.437  16.878 -0.4953  2.3010 -0.7608
 4896TIP3    H236180   2.288   0.327  16.808 -2.5423 -0.5206  1.1806
 4897TIP3   OH236181   6.737   0.066  15.514 -0.7404  0.1360  0.1398
 4897TIP3    H136182   6.716   0.088  15.605  0.3395  1.3075  0.1276
 4897TIP3    H236183   6.726   0.148  15.466  0.0758 -0.1301 -0.5357
 4898TIP3   OH236184   3.021   1.552   1.536  0.2928  0.6691  0.1179
 4898TIP3    H136185   2.979   1.567   1.620 -1.8338  0.0488 -0.7834
 4898TIP3    H236186   2.975   1.610   1.475 -1.5332 -2.2459 -1.5269
 4899TIP3   OH236187   4.955   3.923   6.015 -0.7057 -0.0542  0.0660
 4899TIP3    H136188   4.916   3.977   5.947 -3.7089 -2.6810 -0.5497
 4899TIP3    H236189   4.986   3.845   5.970  0.0374 -0.5432  1.3461
 4900TIP3   OH236190   2.005   5.751  11.537  0.7308  0.2604  0.2637
 4900TIP3    H136191   2.043   5.663  11.534  0.8113  0.2988  0.1175
 4900TIP3    H236192   2.040   5.794  11.459 -0.0715  0.1137 -0.1802
 4901TIP3   OH236193   6.659   5.525  14.211  0.4742 -0.4841  0.6594
 4901TIP3    H136194   6.678   5.597  14.272 -0.0673 -0.9357  1.3861
 4901TIP3    H236195   6.728   5.529  14.146 -0.1866  1.4311  0.0110
 4902TIP3   OH236196   0.609   2.614  13.523  0.1673  0.3348  0.2302
 4902TIP3    H136197   0.594   2.538  13.578 -1.4170 -0.2386 -0.9174
 4902TIP3    H236198   0.676   2.586  13.460 -1.2115 -0.5580 -0.9083
 4903TIP3   OH236199   5.979   5.570  17.018 -0.4910  0.6547  0.0170
 4903TIP3    H136200   6.003   5.519  16.941 -0.7699 -0.7702  0.8349
 4903TIP3    H236201   5.885   5.583  17.010 -0.8885 -1.2537  1.0807
 4904TIP3   OH236202   0.409   6.153  11.201 -0.1120  0.5448 -0.2454
 4904TIP3    H136203   0.314   6.146  11.213 -0.4733  2.2939 -1.6807
 4904TIP3    H236204   0.420   6.173  11.108  1.9125 -2.9878 -0.9482
 4905TIP3   OH236205   0.732   2.051  12.381 -0.0110 -0.0235 -0.1750
 4905TIP3    H136206   0.796   2.014  12.442 -0.7203  0.6988  1.0417
 4905TIP3    H236207   0.654   1.997  12.391  0.0379 -0.2374 -0.8651
 4906TIP3   OH236208   5.128   2.044  12.029  0.1551 -0.3991  0.0408
 4906TIP3    H136209   5.096   1.983  12.095  0.4427 -0.0246  0.5346
 4906TIP3    H236210   5.078   2.022  11.950 -1.0290 -0.1003  0.6755
 4907TIP3   OH236211   3.272   5.595  11.840 -0.2338  0.1860 -0.3784
 4907TIP3    H136212   3.295   5.504  11.862 -1.0270 -0.0129 -0.3205
 4907TIP3    H236213   3.347   5.629  11.792  0.0767 -0.5006 -0.3833
 4908TIP3   OH236214   6.747   1.690   4.107 -0.4588  0.2074 -0.5611
 4908TIP3    H136215   6.751   1.786   4.098  0.7972  0.1447 -0.8472
 4908TIP3    H236216   6.736   1.675   4.201 -2.6882  0.6422 -0.6810
 4909TIP3   OH236217   6.811   2.458   1.771  0.0390 -0.0907 -0.0108
 4909TIP3    H136218   6.870   2.387   1.793  0.3343  0.4231  0.9378
 4909TIP3    H236219   6.736   2.416   1.729  0.0865 -0.9848  0.7815
 4910TIP3   OH236220   5.894   0.747  15.926  0.0298 -0.2895  0.2655
 4910TIP3    H136221   5.918   0.670  15.874 -0.7265  1.0556 -2.2738
 4910TIP3    H236222   5.977   0.793  15.939  0.2418 -0.6611  0.2480
 4911TIP3   OH236223   5.546   2.988  11.935  0.1734  0.4542  0.0462
 4911TIP3    H136224   5.560   2.906  11.888  1.6610  1.3783 -1.2368
 4911TIP3    H236225   5.494   2.963  12.011  2.1993 -2.0335  0.7812
 4912TIP3   OH236226   0.885   2.761   5.420  0.2299  0.0899  0.1080
 4912TIP3    H136227   0.831   2.835   5.443  1.0140  0.2778  1.4151
 4912TIP3    H236228   0.925   2.733   5.502  2.3772  0.1783 -0.8408
 4913TIP3   OH236229   2.741   6.594   4.313  0.1599 -0.1144  0.6401
 4913TIP3    H136230   2.670   6.550   4.267  1.2456 -1.0427 -0.2059
 4913TIP3    H236231   2.753   6.543   4.394 -0.2170  0.1355  0.8597
 4914TIP3   OH236232   3.571   3.281  14.051  0.5548  0.5018 -0.0065
 4914TIP3    H136233   3.578   3.185  14.053 -0.2822  0.4206 -0.5686
 4914TIP3    H236234   3.536   3.304  14.137  1.2434  0.3536  0.3216
 4915TIP3   OH236235   5.892   2.700   5.476  0.0872 -0.1776  0.0619
 4915TIP3    H136236   5.855   2.612   5.474  1.1430 -0.6951  1.7882
 4915TIP3    H236237   5.968   2.694   5.533  2.3972  1.0462 -2.6456
 4916TIP3   OH236238   3.996   5.804   1.244 -0.4905  0.3205 -0.3574
 4916TIP3    H136239   3.997   5.708   1.251 -0.2027  0.4111  1.3458
 4916TIP3    H236240   4.083   5.826   1.209 -0.7003 -0.0503 -1.1329
 4917TIP3   OH236241   1.852   0.850   5.066 -0.4883  0.0066  0.3808
 4917TIP3    H136242   1.921   0.834   5.002 -0.6529  0.1084  0.1740
 4917TIP3    H236243   1.878   0.931   5.110 -0.0908 -0.3651  0.8323
 4918TIP3   OH236244   0.042   5.686   3.112  0.2162  0.3337 -0.3965
 4918TIP3    H136245   0.008   5.775   3.121 -0.6800  0.0819 -1.1341
 4918TIP3    H236246   0.036   5.649   3.200 -0.0810  0.7655 -0.2321
 4919TIP3   OH236247   2.193   0.050   2.627  0.1048  0.0386 -0.0541
 4919TIP3    H136248   2.174   0.132   2.673 -1.5450 -0.4935  0.2634
 4919TIP3    H236249   2.221  -0.010   2.696  0.7177  0.1388 -0.2055
 4920TIP3   OH236250   6.799   0.133  10.728 -0.2633 -0.5204 -0.1491
 4920TIP3    H136251   6.770   0.042  10.728 -2.6147  0.0723  2.6514
 4920TIP3    H236252   6.771   0.167  10.643  0.2774 -2.2617 -1.0699
 4921TIP3   OH236253   3.809   4.848   3.363 -0.3040 -0.1572  0.0994
 4921TIP3    H136254   3.751   4.775   3.384  0.5519 -0.8428  0.1079
 4921TIP3    H236255   3.831   4.836   3.271  0.4331 -0.3361  0.2944
 4922TIP3   OH236256   4.822   2.358   0.937  0.0731 -0.4512 -0.5443
 4922TIP3    H136257   4.732   2.361   0.906  0.0811 -1.3087 -0.6900
 4922TIP3    H236258   4.862   2.285   0.889  0.6913 -0.4255 -0.0941
 4923TIP3   OH236259   5.697   0.713   3.096 -0.1526 -0.6337  0.2415
 4923TIP3    H136260   5.676   0.775   3.027 -3.0460 -1.9539 -0.1856
 4923TIP3    H236261   5.709   0.767   3.174 -1.0058  0.5726 -0.4353
 4924TIP3   OH236262   4.998   0.203  11.880  0.2975 -0.0822 -0.8444
 4924TIP3    H136263   4.955   0.123  11.850  0.2072 -0.1582 -0.5119
 4924TIP3    H236264   5.079   0.207  11.828  1.9641 -2.1256  1.3643
 4925TIP3   OH236265   5.052   1.068   0.897  0.2036 -0.7180 -0.4952
 4925TIP3    H136266   4.981   1.066   0.962  1.3783  0.4715  0.8889
 4925TIP3    H236267   5.009   1.043   0.815 -1.5892 -1.0872  0.4914
 4926TIP3   OH236268   6.625   3.889   5.495 -0.3187  0.0777  0.6455
 4926TIP3    H136269   6.577   3.809   5.518 -1.4335 -1.5447 -5.3598
 4926TIP3    H236270   6.711   3.858   5.467 -0.4515  1.0255 -0.9349
 4927TIP3   OH236271   2.640   2.424   5.022 -0.0065 -0.5211 -0.2872
 4927TIP3    H136272   2.552   2.422   4.984  0.6805 -1.6178 -1.8931
 4927TIP3    H236273   2.625   2.404   5.115 -1.3615 -1.8222 -0.7439
 4928TIP3   OH236274   5.277   3.323   2.926 -0.0480 -0.3100 -0.1637
 4928TIP3    H136275   5.267   3.272   3.007  0.6850 -0.1116  0.0662
 4928TIP3    H236276   5.328   3.267   2.868 -0.6535 -0.4876 -0.5205
 4929TIP3   OH236277   4.223   6.019  13.121 -0.4425  0.8545  0.5263
 4929TIP3    H136278   4.158   6.033  13.052 -0.0617  0.6683  0.1254
 4929TIP3    H236279   4.290   6.085  13.103 -0.3755  0.8496  0.7628
 4930TIP3   OH236280   1.692   2.337  13.733  0.8135  0.4757  0.3327
 4930TIP3    H136281   1.637   2.405  13.694  0.0638  0.4966  1.4037
 4930TIP3    H236282   1.673   2.259  13.681  0.1044  0.5872  0.4151
 4931TIP3   OH236283   2.735   1.219   2.500  0.0854  0.4389 -0.1309
 4931TIP3    H136284   2.676   1.161   2.549  0.4836  0.0732 -0.0859
 4931TIP3    H236285   2.818   1.172   2.496 -0.1481  0.0999 -1.8238
 4932TIP3   OH236286   1.334   4.179   2.561  0.2780 -0.0938  0.2584
 4932TIP3    H136287   1.259   4.176   2.502  1.7365 -2.2081 -1.6563
 4932TIP3    H236288   1.324   4.101   2.616  1.4306 -0.8649 -0.5752
 4933TIP3   OH236289   4.906   6.794  12.931 -0.0279 -0.3401 -0.5704
 4933TIP3    H136290   4.960   6.791  12.852  0.1197 -2.0981 -0.4275
 4933TIP3    H236291   4.963   6.763  13.001 -0.4014  0.4525  0.1111
 4934TIP3   OH236292   0.249   2.521  16.964 -0.3685 -0.4330  0.2369
 4934TIP3    H136293   0.247   2.468  17.044  0.5896 -0.0618  0.5211
 4934TIP3    H236294   0.331   2.569  16.969 -1.4356  1.4928  0.2385
 4935TIP3   OH236295   2.037   5.987  12.539  0.5338  0.3464 -0.5802
 4935TIP3    H136296   2.119   5.992  12.587  0.4980 -1.6827 -0.2158
 4935TIP3    H236297   1.992   5.911  12.576 -1.3597  1.1962 -1.0169
 4936TIP3   OH236298   4.196   3.379   5.152  0.7791 -0.0160 -0.2248
 4936TIP3    H136299   4.145   3.330   5.216 -0.3795  0.0500 -1.0730
 4936TIP3    H236300   4.136   3.447   5.121  1.6174  0.5055 -0.7422
 4937TIP3   OH236301   3.672   5.630   0.529  0.0609  0.6366 -0.6431
 4937TIP3    H136302   3.601   5.662   0.586  1.6183  0.0161  1.8159
 4937TIP3    H236303   3.644   5.543   0.502  0.0923  0.1525  0.7921
 4938TIP3   OH236304   4.101   6.769   2.431 -0.0082  0.5363  0.0636
 4938TIP3    H136305   4.146   6.686   2.416 -1.7068 -0.5374  0.6651
 4938TIP3    H236306   4.137   6.828   2.365  1.5407 -0.5453 -0.1034
 4939TIP3   OH236307   5.693   1.800  13.741  0.3841 -0.1980 -0.0462
 4939TIP3    H136308   5.685   1.838  13.829  0.5101  1.3610 -0.6758
 4939TIP3    H236309   5.781   1.822  13.713 -0.6698  2.2893 -1.8228
 4940TIP3   OH236310   4.190   0.459   3.034 -0.6152 -0.2670 -0.5095
 4940TIP3    H136311   4.247   0.438   2.960  1.0987 -2.0603  1.1754
 4940TIP3    H236312   4.237   0.526   3.082  0.6620 -2.3658  1.3636
 4941TIP3   OH236313   3.120   3.903   5.480  0.3098  0.1541 -0.0429
 4941TIP3    H136314   3.193   3.850   5.512  0.2196  0.1362  0.1401
 4941TIP3    H236315   3.072   3.927   5.560 -0.3062 -0.4605 -0.2104
 4942TIP3   OH236316   6.359   6.530  15.895  0.1287  1.0650 -0.0595
 4942TIP3    H136317   6.372   6.617  15.857  0.5779  0.7812 -0.5763
 4942TIP3    H236318   6.275   6.537  15.941  0.2060  1.7955 -0.0106
 4943TIP3   OH236319   2.688   3.628  12.796 -0.1874 -0.3111  0.6021
 4943TIP3    H136320   2.753   3.619  12.727 -0.2292 -3.2020  0.8556
 4943TIP3    H236321   2.604   3.618  12.751 -0.2823 -0.6205  0.8451
 4944TIP3   OH236322   6.623   6.790  14.727 -0.1575  0.2184 -0.1404
 4944TIP3    H136323   6.650   6.708  14.768  0.6608  0.1284 -0.8411
 4944TIP3    H236324   6.530   6.777  14.709 -0.7248  0.4938  2.2113
 4945TIP3   OH236325   3.764   0.894   3.387 -0.2245  0.7176 -0.4656
 4945TIP3    H136326   3.725   0.811   3.362  0.7524  0.2964 -0.5998
 4945TIP3    H236327   3.739   0.906   3.479  1.1031 -0.5995  0.1039
 4946TIP3   OH236328   1.417   3.258  15.257  0.0260  0.3651  0.2940
 4946TIP3    H136329   1.357   3.312  15.204 -0.7071  0.0409  0.7767
 4946TIP3    H236330   1.417   3.173  15.213  0.6246  0.5460 -0.0608
 4947TIP3   OH236331   1.286   3.131   5.810  0.1441 -0.5395  0.3283
 4947TIP3    H136332   1.321   3.189   5.878  0.4602 -2.3051  1.7619
 4947TIP3    H236333   1.308   3.043   5.841 -1.5350 -1.4918 -1.0499
 4948TIP3   OH236334   2.144   5.509  12.264 -0.8942  0.0616 -0.4317
 4948TIP3    H136335   2.233   5.485  12.240 -0.7289 -2.6466  2.2560
 4948TIP3    H236336   2.155   5.580  12.327 -0.5678 -0.4155  0.0661
 4949TIP3   OH236337   5.109   6.425  10.655  0.4208  0.0496 -0.0807
 4949TIP3    H136338   5.068   6.339  10.644  1.0116 -0.2165 -0.2136
 4949TIP3    H236339   5.201   6.411  10.634  0.3249  0.9533 -1.2080
 4950TIP3   OH236340   3.309   4.814   1.832 -0.0484  0.0949  0.0534
 4950TIP3    H136341   3.337   4.847   1.917  1.7584  0.3291 -0.5827
 4950TIP3    H236342   3.237   4.871   1.807  0.8757  1.4808  0.4479
 4951TIP3   OH236343   4.507   2.270   1.836 -0.2103  0.3459  0.1019
 4951TIP3    H136344   4.548   2.246   1.753  0.2590 -1.1200  0.7230
 4951TIP3    H236345   4.550   2.214   1.901 -1.7355  0.2591  1.0916
 4952TIP3   OH236346   1.863   1.182  12.995 -0.1243  0.3673 -0.1952
 4952TIP3    H136347   1.768   1.199  12.998 -0.4332 -0.9988 -1.1849
 4952TIP3    H236348   1.890   1.220  12.911  0.1527  0.5047 -0.0418
 4953TIP3   OH236349   4.686   5.436  15.452  0.0946 -0.1932 -0.1771
 4953TIP3    H136350   4.766   5.383  15.438  2.3060  2.4200  1.6010
 4953TIP3    H236351   4.683   5.495  15.376  0.7987  0.7500  0.5069
 4954TIP3   OH236352   4.168   3.752  11.215  0.2816  0.3928  0.1511
 4954TIP3    H136353   4.197   3.716  11.131 -0.4469 -0.0963  0.1050
 4954TIP3    H236354   4.249   3.761  11.266  0.6130 -0.2299 -0.2502
 4955TIP3   OH236355   6.359   4.783   3.830  0.5721  0.0107  0.1988
 4955TIP3    H136356   6.412   4.861   3.845 -1.3301  1.1476  1.4335
 4955TIP3    H236357   6.333   4.788   3.738 -0.4804  1.5194  0.5348
 4956TIP3   OH236358   3.438   6.513   0.321  0.6814  0.0177 -1.3114
 4956TIP3    H136359   3.433   6.564   0.240 -0.5309  1.0399 -0.6225
 4956TIP3    H236360   3.362   6.454   0.317 -0.8703  1.7695  0.1346
 4957TIP3   OH236361   5.770   2.404  17.123 -0.1579  0.0654 -0.4220
 4957TIP3    H136362   5.819   2.486  17.120 -0.1836  0.1730  1.3842
 4957TIP3    H236363   5.680   2.430  17.102 -0.4287  0.7497  1.4431
 4958TIP3   OH236364   3.452   4.802  10.692  0.1323  0.3061 -0.3024
 4958TIP3    H136365   3.525   4.862  10.710  0.0791  0.2706  0.0486
 4958TIP3    H236366   3.382   4.858  10.659 -0.1394  0.5424  0.6322
 4959TIP3   OH236367   2.791   6.361  12.920 -0.0185  0.4379  0.8716
 4959TIP3    H136368   2.866   6.322  12.874  1.2557  1.4461  2.0236
 4959TIP3    H236369   2.718   6.348  12.860  1.3307  0.5762 -0.8887
 4960TIP3   OH236370   6.472   4.875   4.196 -0.0434  0.2885  0.0477
 4960TIP3    H136371   6.412   4.936   4.153 -1.0358 -0.9488 -0.4008
 4960TIP3    H236372   6.423   4.841   4.270  1.3359  1.7127  1.7061
 4961TIP3   OH236373   5.470   2.010  14.354  0.0132 -0.0588 -0.5014
 4961TIP3    H136374   5.466   2.006  14.258 -0.4421 -1.5340 -0.4445
 4961TIP3    H236375   5.397   1.956  14.383  0.4997 -0.1138  0.6756
 4962TIP3   OH236376   2.559   4.584  13.870  0.0457  0.2479 -0.4803
 4962TIP3    H136377   2.517   4.670  13.875  0.7782  0.5916 -0.1335
 4962TIP3    H236378   2.627   4.586  13.937  0.6880 -0.2644 -1.0911
 4963TIP3   OH236379   3.225   2.699  11.123  0.4371 -0.4600 -0.1602
 4963TIP3    H136380   3.220   2.790  11.095 -0.4611  0.1081  1.6726
 4963TIP3    H236381   3.235   2.704  11.218  1.4067 -2.2744 -0.1268
 4964TIP3   OH236382   3.086   6.397  14.595  0.5509  0.2981 -0.5570
 4964TIP3    H136383   3.066   6.467  14.532  1.3455  2.2264  1.2082
 4964TIP3    H236384   3.040   6.423  14.675  2.2003 -0.3119  0.6374
 4965TIP3   OH236385   5.516   5.354   5.279  0.1294 -0.3164  0.1900
 4965TIP3    H136386   5.476   5.400   5.353  1.6394  0.9875  0.2532
 4965TIP3    H236387   5.610   5.353   5.299  0.3165 -2.0068 -0.6189
 4966TIP3   OH236388   0.489   3.693   5.322 -0.0553  0.2833 -0.2688
 4966TIP3    H136389   0.431   3.632   5.276 -1.1525  1.5042 -0.5429
 4966TIP3    H236390   0.446   3.710   5.405 -1.0992  2.5962 -1.1897
 4967TIP3   OH236391   6.409   1.895   3.010 -0.2785 -0.2861 -0.3539
 4967TIP3    H136392   6.424   1.841   3.087 -1.9070  0.5947  0.6409
 4967TIP3    H236393   6.418   1.835   2.936  1.7972 -1.0538  0.4494
 4968TIP3   OH236394   4.909   3.004  16.521  0.3188 -0.3962  0.3759
 4968TIP3    H136395   4.920   3.075  16.584 -3.6826 -0.4076  1.3883
 4968TIP3    H236396   4.983   3.013  16.461  1.0268  3.4380  1.5525
 4969TIP3   OH236397   0.911   4.773   0.451 -0.4956 -0.1073  0.6116
 4969TIP3    H136398   0.919   4.712   0.525 -1.1186 -0.3114  0.5232
 4969TIP3    H236399   0.819   4.800   0.454 -0.5131 -0.0940 -0.0721
 4970TIP3   OH236400   6.610   1.859   5.978 -0.4299 -0.3295  0.0522
 4970TIP3    H136401   6.560   1.899   5.907 -0.1648  0.7157  0.4344
 4970TIP3    H236402   6.546   1.847   6.048 -0.4941 -0.5050 -0.0365
 4971TIP3   OH236403   5.624   3.600   5.798 -0.4453  0.0884  0.1562
 4971TIP3    H136404   5.655   3.549   5.723  1.3817  1.4456 -0.0777
 4971TIP3    H236405   5.598   3.685   5.760 -0.1798  0.5378  0.9594
 4972TIP3   OH236406   2.691   6.212  13.975 -0.5242  0.0890  0.3018
 4972TIP3    H136407   2.626   6.212  14.045  0.8113  0.9967  1.6098
 4972TIP3    H236408   2.760   6.270  14.007  0.1123  0.5911 -1.8081
 4973TIP3   OH236409   2.343   6.667   4.818  0.5674  0.6113 -0.1412
 4973TIP3    H136410   2.264   6.716   4.796  0.1191  0.4425  1.0380
 4973TIP3    H236411   2.386   6.720   4.885  0.6142 -0.0900  0.3907
 4974TIP3   OH236412   4.220   0.797   2.649  0.0922  0.3181  0.1680
 4974TIP3    H136413   4.312   0.823   2.657 -0.0140  0.8231 -0.1577
 4974TIP3    H236414   4.196   0.825   2.560 -0.1389 -0.5722 -0.0564
 4975TIP3   OH236415   1.768   6.763   2.412 -0.0522  0.1133  0.3270
 4975TIP3    H136416   1.787   6.685   2.465  2.2803 -0.0657 -0.6259
 4975TIP3    H236417   1.855   6.796   2.387 -1.0176  2.2137 -0.4672
 4976TIP3   OH236418   3.541   6.499  15.973 -0.5178  0.1120 -0.1113
 4976TIP3    H136419   3.466   6.557  15.959  0.0678  0.9210  0.0221
 4976TIP3    H236420   3.616   6.550  15.943 -0.0339 -0.7328 -0.3533
 4977TIP3   OH236421   6.561   0.797  12.580 -0.0361 -0.2116  0.5114
 4977TIP3    H136422   6.592   0.753  12.501  0.9952  2.0225 -0.4301
 4977TIP3    H236423   6.534   0.884  12.549 -0.9288  0.2383  2.4154
 4978TIP3   OH236424   1.074   2.804   0.172  0.2022  0.2041 -0.1000
 4978TIP3    H136425   1.163   2.837   0.158  0.3493 -0.6726 -1.4488
 4978TIP3    H236426   1.047   2.842   0.256  1.3070  1.6314 -0.3457
 4979TIP3   OH236427   4.067   4.731  17.185  0.2806  0.5695  0.8489
 4979TIP3    H136428   4.059   4.825  17.168  2.6838  0.6490 -0.3450
 4979TIP3    H236429   4.092   4.725  17.277 -0.2665  1.0710  1.0338
 4980TIP3   OH236430   1.140   6.808  16.192  0.2492  0.3593 -0.1195
 4980TIP3    H136431   1.084   6.880  16.164 -0.2455 -0.3181 -0.9212
 4980TIP3    H236432   1.085   6.756  16.250  0.7673  0.8897  0.8693
 4981TIP3   OH236433   1.293   3.977   5.146 -0.4015 -0.1280  0.2908
 4981TIP3    H136434   1.225   3.988   5.212  0.7990  0.9518  1.3959
 4981TIP3    H236435   1.353   3.913   5.184 -1.8195 -2.8071 -1.5968
 4982TIP3   OH236436   1.439   2.496  13.832 -0.2993  0.3196  0.4188
 4982TIP3    H136437   1.529   2.526  13.824 -0.9310  1.8595 -1.6867
 4982TIP3    H236438   1.386   2.569  13.800 -2.3803 -0.2035  2.3851
 4983TIP3   OH236439   6.734   0.027  11.828  1.1032  0.3317  0.6868
 4983TIP3    H136440   6.776   0.105  11.791  0.7896  0.9614  1.6295
 4983TIP3    H236441   6.794  -0.045  11.806  0.6480  0.5445 -1.5713
 4984TIP3   OH236442   1.506   0.218  14.377  0.3534  0.1959 -0.1679
 4984TIP3    H136443   1.522   0.277  14.451 -0.4854 -0.3545  0.4602
 4984TIP3    H236444   1.581   0.159  14.377 -0.6461 -1.1520  1.5750
 4985TIP3   OH236445   3.243   5.668  11.133 -0.0315  0.5510 -0.4699
 4985TIP3    H136446   3.195   5.627  11.206  2.3654  0.8606  1.4243
 4985TIP3    H236447   3.321   5.613  11.123  1.4759  2.5604 -0.3015
 4986TIP3   OH236448   2.658   6.575  11.870  0.4738 -0.2904 -0.3044
 4986TIP3    H136449   2.602   6.645  11.903 -1.1616 -0.2741 -2.8611
 4986TIP3    H236450   2.674   6.598  11.778  2.3400 -1.7911 -0.4301
 4987TIP3   OH236451   5.165   4.623  14.197 -0.0157  0.0443 -0.7278
 4987TIP3    H136452   5.147   4.693  14.258 -1.0779  0.1099 -1.1018
 4987TIP3    H236453   5.216   4.559  14.247  0.3637  0.7521 -0.2004
 4988TIP3   OH236454   1.554   6.312  14.555  0.2170  0.1690  0.2778
 4988TIP3    H136455   1.490   6.361  14.607  0.8487  1.6337 -0.2726
 4988TIP3    H236456   1.628   6.298  14.615 -0.0954 -0.4151  0.5329
 4989TIP3   OH236457   5.342   0.432  13.707  0.7392 -0.5916 -0.6987
 4989TIP3    H136458   5.430   0.463  13.728  0.1495  0.5569  0.2360
 4989TIP3    H236459   5.330   0.355  13.762  0.6136  0.1676  0.3830
 4990TIP3   OH236460   2.263   0.067  16.923  0.2767 -0.2008  1.0883
 4990TIP3    H136461   2.282   0.152  16.962  0.3285  1.2598 -1.8321
 4990TIP3    H236462   2.315   0.004  16.974  2.7799  1.9395  1.3603
 4991TIP3   OH236463   2.358   1.512  16.915 -0.2336 -0.6078  0.0318
 4991TIP3    H136464   2.283   1.499  16.857  0.2511  0.0818 -0.7788
 4991TIP3    H236465   2.389   1.600  16.894  0.2818 -0.5530  0.9691
 4992TIP3   OH236466   2.851   4.541  15.918 -0.3461 -0.2879  0.0146
 4992TIP3    H136467   2.850   4.549  15.823  2.4946  0.4084 -0.0514
 4992TIP3    H236468   2.864   4.448  15.935  0.1394 -0.2884 -0.3377
 4993TIP3   OH236469   5.232   0.037   5.106  0.4595 -0.0128  0.1900
 4993TIP3    H136470   5.249  -0.030   5.039  1.5149  0.3429  0.0777
 4993TIP3    H236471   5.143   0.020   5.135  1.1768 -2.4142  1.2180
 4994TIP3   OH236472   0.075   5.300  16.441  1.1391 -0.2761 -0.0143
 4994TIP3    H136473   0.041   5.373  16.390  0.9465  0.0014  0.4988
 4994TIP3    H236474   0.141   5.259  16.385  1.0190  0.0994 -0.4289
 4995TIP3   OH236475   0.364   4.878  17.088 -0.1570 -0.0045 -0.1131
 4995TIP3    H136476   0.380   4.953  17.031 -1.5229  2.1538  2.1131
 4995TIP3    H236477   0.392   4.908  17.175 -2.1687 -1.4689  1.1291
 4996TIP3   OH236478   2.298   2.956   0.010 -0.4240 -0.2557  0.5679
 4996TIP3    H136479   2.258   2.915   0.086  0.2396  0.7064  1.4632
 4996TIP3    H236480   2.379   2.906  -0.004  0.7151  1.0725  2.0590
 4997TIP3   OH236481   2.973   4.543   4.032  0.2484  0.1403  0.1153
 4997TIP3    H136482   3.014   4.629   4.023 -0.2480  0.3033 -0.7404
 4997TIP3    H236483   2.964   4.531   4.126 -0.1739  1.2821  0.2456
 4998TIP3   OH236484   4.473   4.634   0.970 -0.5337  0.0225  0.1643
 4998TIP3    H136485   4.389   4.593   0.993 -0.5459  0.9957  2.0243
 4998TIP3    H236486   4.526   4.562   0.937 -0.8872 -1.3687  2.4116
 4999TIP3   OH236487   4.379   4.174  16.511 -0.2992  0.8075  0.0087
 4999TIP3    H136488   4.466   4.205  16.538 -0.5544  0.5822  1.1580
 4999TIP3    H236489   4.346   4.127  16.587 -0.8909 -0.2769 -0.8900
 5000TIP3   OH236490   1.046   2.789  12.485  0.4062 -0.0306 -0.1461
 5000TIP3    H136491   0.950   2.799  12.485  0.4770  0.7701  0.6549
 5000TIP3    H236492   1.061   2.711  12.431 -0.5708  0.8274 -1.7458
 5001TIP3   OH236493   5.092   0.275   1.076  0.0704 -0.5328  0.4644
 5001TIP3    H136494   5.009   0.286   1.028  0.3197  1.3425  0.3590
 5001TIP3    H236495   5.070   0.220   1.150 -0.8006 -1.7655 -0.6560
 5002TIP3   OH236496   5.893   6.314   5.753  0.0158 -1.0632  0.5043
 5002TIP3    H136497   5.910   6.330   5.660  2.3162 -1.6895  0.7484
 5002TIP3    H236498   5.959   6.365   5.799 -0.4101 -1.5905  1.7487
 5003TIP3   OH236499   4.648   5.265   3.279 -0.4952  0.3185 -0.2879
 5003TIP3    H136500   4.730   5.271   3.229 -0.3627  0.7274 -0.0288
 5003TIP3    H236501   4.580   5.258   3.212 -0.2797  0.3775 -0.5165
 5004TIP3   OH236502   3.624   4.010   0.346 -0.4875  0.2292  0.2856
 5004TIP3    H136503   3.536   4.025   0.311 -0.8467 -0.7883  0.7174
 5004TIP3    H236504   3.616   3.930   0.398  0.9688 -0.6079 -0.6922
 5005TIP3   OH236505   3.009   4.200  10.130 -0.4467  0.2659  0.1298
 5005TIP3    H136506   3.024   4.106  10.116  1.1137 -0.0218  2.9265
 5005TIP3    H236507   2.915   4.208  10.143 -0.6120 -0.8973 -0.2555
 5006TIP3   OH236508   0.989   3.300   2.410  0.1784  0.1509  0.3038
 5006TIP3    H136509   0.957   3.289   2.500 -1.2806  2.6740  0.1903
 5006TIP3    H236510   0.913   3.331   2.361  1.8421  2.6401 -0.8784
 5007TIP3   OH236511   1.915   5.476  12.556 -0.4162 -0.6379  0.5761
 5007TIP3    H136512   1.944   5.419  12.484  1.6903  1.1123 -0.0762
 5007TIP3    H236513   1.964   5.445  12.632 -0.2846 -0.5513  0.5274
 5008TIP3   OH236514   0.936   4.029   3.371 -0.1218 -0.0017  0.2663
 5008TIP3    H136515   0.940   4.075   3.455 -1.7151  0.7034 -0.0150
 5008TIP3    H236516   0.963   3.940   3.391  0.9177  0.5098  1.2436
 5009TIP3   OH236517   3.783   6.020  11.290  0.0812 -0.4041 -0.6772
 5009TIP3    H136518   3.794   5.934  11.250  0.3120 -0.1503 -1.1662
 5009TIP3    H236519   3.697   6.050  11.261  0.2857 -0.1820 -1.0536
 5010TIP3   OH236520   3.010   1.702   3.059  0.2981  0.6837 -0.9185
 5010TIP3    H136521   2.977   1.713   3.148  0.8649 -0.1281 -0.6079
 5010TIP3    H236522   3.069   1.776   3.045  0.1856  0.8250 -0.6327
 5011TIP3   OH236523   4.067   2.078  14.215 -0.2915 -0.1763  0.3530
 5011TIP3    H136524   4.027   2.164  14.211  2.7443  1.3286 -0.4931
 5011TIP3    H236525   4.042   2.036  14.132 -2.5262 -0.5782  1.1541
 5012TIP3   OH236526   0.289   2.242   4.502 -0.4651 -0.5621  0.3052
 5012TIP3    H136527   0.225   2.174   4.525 -1.5663 -0.7663 -2.8092
 5012TIP3    H236528   0.327   2.211   4.420  0.1462  1.8350 -0.3770
 5013TIP3   OH236529   5.748   6.668   0.319  0.2848 -0.3368  0.0453
 5013TIP3    H136530   5.753   6.620   0.236 -0.0759  0.1709 -0.2712
 5013TIP3    H236531   5.768   6.759   0.296  0.6661 -0.2746  0.5968
 5014TIP3   OH236532   6.047   6.444   5.218  0.2338 -0.2562  0.4657
 5014TIP3    H136533   6.110   6.504   5.177 -0.7657  0.9035  0.5730
 5014TIP3    H236534   6.041   6.370   5.158 -0.7742  1.1477 -1.2211
 5015TIP3   OH236535   0.124   4.697  11.504  0.0277  0.4942  0.4513
 5015TIP3    H136536   0.148   4.777  11.550 -1.2109  1.1963 -0.0538
 5015TIP3    H236537   0.194   4.635  11.524 -0.2637  0.8564  2.9807
 5016TIP3   OH236538   6.341   6.545  14.053  0.7810  0.1338  0.6535
 5016TIP3    H136539   6.289   6.466  14.070  1.3126 -0.3782 -0.0481
 5016TIP3    H236540   6.381   6.530  13.968  1.4516  0.8662  0.8271
 5017TIP3   OH236541   5.740   3.497  13.930 -0.2493  0.1476 -0.0459
 5017TIP3    H136542   5.779   3.525  14.013  1.0326  1.0141 -0.8947
 5017TIP3    H236543   5.815   3.489  13.870 -1.2784  1.1712 -1.5526
 5018TIP3   OH236544   2.210   5.056  10.895 -0.5048  0.7299  0.4498
 5018TIP3    H136545   2.266   4.983  10.867 -0.3703  1.0026 -0.0020
 5018TIP3    H236546   2.130   5.046  10.843 -0.8398  0.4081  1.0123
 5019TIP3   OH236547   4.390   4.144  11.528  0.0975  0.1105  0.3509
 5019TIP3    H136548   4.357   4.232  11.512  1.0763  0.2318 -1.2251
 5019TIP3    H236549   4.485   4.152  11.522  0.1699 -1.1957 -0.7084
 5020TIP3   OH236550   5.395   0.044   4.437 -0.4650 -0.1975 -0.3936
 5020TIP3    H136551   5.467  -0.019   4.443 -0.5686 -0.2150  0.7417
 5020TIP3    H236552   5.379   0.071   4.527 -0.6835  1.1733 -0.8296
 5021TIP3   OH236553   5.222   4.022  13.741  0.0568 -0.2452 -0.0413
 5021TIP3    H136554   5.297   4.032  13.800 -0.7264 -0.8030  1.0846
 5021TIP3    H236555   5.256   3.969  13.669  0.8141 -0.2855  0.3282
 5022TIP3   OH236556   5.411   1.440  13.512 -0.2260  0.4495  0.3848
 5022TIP3    H136557   5.444   1.461  13.424 -0.8305  1.3554  0.3531
 5022TIP3    H236558   5.430   1.518  13.564 -1.0954  0.4678  0.6968
 5023TIP3   OH236559   4.500   5.246   1.085  0.8827  0.3158 -0.0666
 5023TIP3    H136560   4.578   5.221   1.134  2.6259  0.6697 -2.4805
 5023TIP3    H236561   4.514   5.337   1.061 -0.3541  0.4278 -0.4316
 5024TIP3   OH236562   5.193   3.871  11.326 -0.0415 -0.2685 -0.1350
 5024TIP3    H136563   5.161   3.953  11.363 -0.3035 -0.2644 -0.3639
 5024TIP3    H236564   5.208   3.890  11.234  0.7328 -0.2449 -0.0096
 5025TIP3   OH236565   0.694   1.190  14.132  0.1411 -0.0432  0.8074
 5025TIP3    H136566   0.615   1.151  14.095  0.9862  0.2182 -1.4398
 5025TIP3    H236567   0.765   1.135  14.100  1.1790  1.9641 -0.5799
 5026TIP3   OH236568   2.014   2.691  14.395 -0.0980 -0.7267 -0.2976
 5026TIP3    H136569   2.095   2.741  14.408  0.3657 -1.3652 -0.6671
 5026TIP3    H236570   1.991   2.660  14.483 -2.6674  3.4498  0.7504
 5027TIP3   OH236571   6.192   5.112  16.977  0.0500  0.0332  0.4663
 5027TIP3    H136572   6.237   5.039  17.020 -0.0734  1.1593  2.6365
 5027TIP3    H236573   6.243   5.189  17.002  1.1061  0.6279 -3.0663
 5028TIP3   OH236574   4.783   4.511   5.352  0.1215 -0.1608 -0.4952
 5028TIP3    H136575   4.775   4.606   5.346  3.1841  0.4393  1.8594
 5028TIP3    H236576   4.809   4.483   5.265  2.2067  1.6938 -0.5568
 5029TIP3   OH236577   2.579   0.653   2.151 -0.0533  0.5803  0.2795
 5029TIP3    H136578   2.620   0.713   2.213 -1.9509  1.3971  0.8133
 5029TIP3    H236579   2.544   0.710   2.082  1.8154 -0.2845 -1.5141
 5030TIP3   OH236580   0.186   5.000   0.784  0.1408 -0.3355  0.1086
 5030TIP3    H136581   0.112   4.987   0.843 -1.5782  1.8404 -1.3700
 5030TIP3    H236582   0.244   5.060   0.831  0.4797 -1.2498  0.8739
 5031TIP3   OH236583   6.829   0.720  11.693 -0.0693 -0.4281  0.3171
 5031TIP3    H136584   6.865   0.743  11.778  0.7614  3.2042 -0.8758
 5031TIP3    H236585   6.904   0.717  11.634 -0.9366  0.1922 -0.8684
 5032TIP3   OH236586   4.009   3.561  13.447  0.2456 -0.1240  0.1674
 5032TIP3    H136587   4.024   3.566  13.352 -0.1316  1.1278  0.1575
 5032TIP3    H236588   3.971   3.473  13.460 -3.0343  0.8791 -1.3895
 5033TIP3   OH236589   4.494   5.236   3.060 -0.5229  0.3065  0.8266
 5033TIP3    H136590   4.531   5.149   3.041 -0.0636  0.9197 -1.3220
 5033TIP3    H236591   4.408   5.235   3.018  1.2142  2.3065 -3.3871
 5034TIP3   OH236592   4.590   3.567  12.444 -0.0576 -0.0420  0.0992
 5034TIP3    H136593   4.590   3.471  12.451  0.4067  0.0553  1.7698
 5034TIP3    H236594   4.507   3.594  12.482 -0.1439  0.2397 -0.2780
 5035TIP3   OH236595   4.959   6.028   2.222  0.2066 -0.0652  0.1822
 5035TIP3    H136596   4.939   6.113   2.262 -1.2889 -0.9418  1.3991
 5035TIP3    H236597   5.026   5.990   2.278 -0.8894 -0.6930  1.1283
 5036TIP3   OH236598   2.210   0.431  11.179  0.3735 -0.3584  0.3947
 5036TIP3    H136599   2.169   0.354  11.218 -1.1833 -0.0461 -0.5648
 5036TIP3    H236600   2.300   0.404  11.162 -0.2394 -2.1195 -0.2930
 5037TIP3   OH236601   1.873   3.000   3.784 -0.4179 -0.3132 -0.1207
 5037TIP3    H136602   1.841   2.949   3.859  0.4996  0.3913  0.7862
 5037TIP3    H236603   1.841   3.089   3.801 -0.2565 -0.1584 -0.6062
 5038TIP3   OH236604   0.221   3.634  14.854  0.3669 -0.1804  0.6222
 5038TIP3    H136605   0.199   3.626  14.762 -2.1037  1.9806  0.8997
 5038TIP3    H236606   0.256   3.548  14.878  0.4719 -0.9991 -2.1448
 5039TIP3   OH236607   1.526   2.375  10.780 -0.0383  0.2213  0.9932
 5039TIP3    H136608   1.570   2.458  10.799  0.4225  0.3929 -0.6481
 5039TIP3    H236609   1.582   2.309  10.821  0.5688  0.5959  0.7785
 5040TIP3   OH236610   6.124   6.518  11.403 -0.4161  0.2472  0.4853
 5040TIP3    H136611   6.070   6.483  11.473 -0.0553  0.6172  0.9522
 5040TIP3    H236612   6.190   6.572  11.447  0.4138 -0.2926 -0.0662
 5041TIP3   OH236613   2.783   6.378   2.778 -0.1839 -0.2414 -0.5122
 5041TIP3    H136614   2.750   6.468   2.773  0.7402  0.0341 -2.7982
 5041TIP3    H236615   2.877   6.386   2.764  0.0729 -1.5000  0.3527
 5042TIP3   OH236616   3.493   2.955  13.236  0.5465 -0.0625  0.6812
 5042TIP3    H136617   3.423   2.959  13.170  2.1757  0.4642 -1.1040
 5042TIP3    H236618   3.524   2.864  13.232  0.3356 -0.1535  1.0729
 5043TIP3   OH236619   5.750   5.800  12.164  0.4443  0.0932  0.1528
 5043TIP3    H136620   5.832   5.828  12.206  1.5435 -0.4171 -1.5771
 5043TIP3    H236621   5.765   5.709  12.140 -1.0639 -0.3497  0.7903
 5044TIP3   OH236622   2.122   1.810  13.062  0.3709 -0.0840 -0.5894
 5044TIP3    H136623   2.201   1.854  13.030  0.7206 -2.3072 -3.1311
 5044TIP3    H236624   2.061   1.814  12.989 -0.2711 -2.1143 -0.2093
 5045TIP3   OH236625   5.211   3.556  14.899 -0.2249 -0.7082 -0.1788
 5045TIP3    H136626   5.233   3.642  14.935 -0.0095 -0.9344  0.2219
 5045TIP3    H236627   5.248   3.558  14.810 -1.7481  0.2851 -0.8429
 5046TIP3   OH236628   6.037   0.498   2.824 -0.1119 -0.1925 -0.0442
 5046TIP3    H136629   5.968   0.435   2.847  1.3626 -1.5594  0.8878
 5046TIP3    H236630   6.078   0.520   2.908  1.7971 -0.9177 -0.7401
 5047TIP3   OH236631   2.575   4.653   5.194 -0.1935  0.0137 -0.0024
 5047TIP3    H136632   2.639   4.659   5.123  0.0635  0.8804  0.2876
 5047TIP3    H236633   2.535   4.739   5.198  0.0778  0.1032  1.1558
 5048TIP3   OH236634   3.793   3.957   2.401  0.3116 -0.4729 -0.3698
 5048TIP3    H136635   3.766   3.868   2.421  1.6238 -0.4187  1.9265
 5048TIP3    H236636   3.710   4.005   2.390 -0.4437 -1.4863  0.6957
 5049TIP3   OH236637   3.931   0.610   4.956 -0.7094 -0.0831  0.0603
 5049TIP3    H136638   3.898   0.521   4.970  0.4226 -0.6062 -0.5261
 5049TIP3    H236639   3.985   0.604   4.877  1.7637  0.4885  1.6182
 5050TIP3   OH236640   4.963   2.705   5.087  0.6722  0.2859 -0.4869
 5050TIP3    H136641   5.010   2.727   5.167  0.5590  1.2959 -0.6777
 5050TIP3    H236642   4.873   2.733   5.104 -0.0546 -2.1929  0.1068
 5051TIP3   OH236643   1.809   6.078  16.729  0.0120  0.4605 -0.0994
 5051TIP3    H136644   1.723   6.109  16.701 -0.0807  0.4555  0.1767
 5051TIP3    H236645   1.868   6.103  16.658 -0.0726  1.2038  0.0804
 5052TIP3   OH236646   5.231   4.893  17.165 -0.2782  0.3743 -0.2035
 5052TIP3    H136647   5.137   4.877  17.173 -0.4353 -0.8978 -3.1538
 5052TIP3    H236648   5.269   4.806  17.158  1.3692  0.8077  2.2372
 5053TIP3   OH236649   1.323   6.371  12.954  0.0721 -0.4506  0.2013
 5053TIP3    H136650   1.332   6.463  12.931  2.2984 -0.4850  0.6589
 5053TIP3    H236651   1.264   6.335  12.888 -2.0384  1.5538  0.8716
 5054TIP3   OH236652   0.930   6.522  13.480  0.5242 -0.0084 -0.2342
 5054TIP3    H136653   0.982   6.601  13.495 -0.4280  0.3956  1.0775
 5054TIP3    H236654   0.941   6.471  13.561  0.2639 -0.7188 -0.6401
 5055TIP3   OH236655   6.372   0.141  16.741  0.2404  0.3754  0.1800
 5055TIP3    H136656   6.391   0.093  16.660 -1.9095 -1.8161  0.8236
 5055TIP3    H236657   6.442   0.115  16.801 -1.6108 -3.5993  1.0156
 5056TIP3   OH236658   3.251   3.433  10.954  0.2549 -0.0997  0.2515
 5056TIP3    H136659   3.200   3.365  10.998  0.2304 -1.5196 -1.8396
 5056TIP3    H236660   3.277   3.394  10.871 -1.8752  3.2329 -2.2621
 5057TIP3   OH236661   1.619   2.368  11.443 -0.2501 -0.2451 -0.1512
 5057TIP3    H136662   1.657   2.443  11.398  1.3247 -1.3443 -0.7780
 5057TIP3    H236663   1.622   2.391  11.535  0.6822  0.2831 -0.2966
 5058TIP3   OH236664   4.800   1.108   0.953  0.6283  0.1961 -0.6013
 5058TIP3    H136665   4.777   1.128   0.863  0.3735  2.3643 -0.1082
 5058TIP3    H236666   4.727   1.141   1.005  0.9758 -0.6108  0.4531
 5059TIP3   OH236667   0.699   6.622  11.434 -0.0754  0.1398  0.2749
 5059TIP3    H136668   0.772   6.581  11.482 -0.3650  0.2027  0.7762
 5059TIP3    H236669   0.698   6.577  11.350  1.6678  1.3468 -0.4391
 5060TIP3   OH236670   4.210   1.626   3.852  0.2506  0.1045 -0.4353
 5060TIP3    H136671   4.254   1.707   3.878  0.8229 -0.1324 -0.6527
 5060TIP3    H236672   4.197   1.578   3.934  0.2455  0.2498 -0.3516
 5061TIP3   OH236673   3.809   4.593  11.200  0.1349  0.1457  0.2187
 5061TIP3    H136674   3.804   4.584  11.105  0.7652  0.6694  0.1261
 5061TIP3    H236675   3.865   4.670  11.214  0.6291 -0.3407  1.0200
 5062TIP3   OH236676   4.303   3.201  14.061 -0.2154  0.3179 -0.0288
 5062TIP3    H136677   4.253   3.273  14.098 -1.9299 -1.3836  1.1632
 5062TIP3    H236678   4.383   3.198  14.113 -0.1361  1.2950 -0.0678
 5063TIP3   OH236679   1.346   4.532  11.202  0.1413 -1.0278  0.2260
 5063TIP3    H136680   1.322   4.601  11.264  2.0051 -1.4246  1.4931
 5063TIP3    H236681   1.292   4.458  11.227  0.4188 -0.9852  0.9904
 5064TIP3   OH236682   6.381   0.462   4.953  0.2311  0.2227  0.0305
 5064TIP3    H136683   6.334   0.378   4.951  0.2717  0.1577  1.1537
 5064TIP3    H236684   6.415   0.468   5.043  1.8741  0.5379 -0.5734
 5065TIP3   OH236685   5.186   3.450   4.251  0.4531 -0.3565  0.5173
 5065TIP3    H136686   5.201   3.544   4.260  1.0456 -0.4918  1.1020
 5065TIP3    H236687   5.148   3.440   4.164  1.1880  0.3411  0.0925
 5066TIP3   OH236688   1.017   1.344  13.887 -0.0649  0.4120 -0.1161
 5066TIP3    H136689   0.983   1.413  13.943  0.1218  0.6111 -0.2450
 5066TIP3    H236690   0.989   1.369  13.799 -1.0210 -0.3006 -0.0345
 5067TIP3   OH236691   0.149   1.275   2.061  0.6257 -0.5935  0.1819
 5067TIP3    H136692   0.090   1.276   1.985  0.8636 -1.6486 -0.0378
 5067TIP3    H236693   0.091   1.274   2.137  0.3577 -0.9886 -0.0236
 5068TIP3   OH236694   0.320   3.178   0.625  0.0642 -0.0269  0.2598
 5068TIP3    H136695   0.278   3.108   0.575  2.6913 -1.3428 -0.3068
 5068TIP3    H236696   0.344   3.243   0.560 -0.5613  0.4590  0.5039
 5069TIP3   OH236697   1.561   4.040  12.361  0.1465  0.0125  0.3177
 5069TIP3    H136698   1.649   4.077  12.353 -0.9581  2.7287 -0.5274
 5069TIP3    H236699   1.522   4.087  12.435 -1.0618 -0.0643 -0.2506
 5070TIP3   OH236700   5.600   0.445  11.805  0.1331 -0.3135 -0.0009
 5070TIP3    H136701   5.542   0.456  11.730 -2.2545 -0.5313  1.6996
 5070TIP3    H236702   5.594   0.351  11.826  0.4980 -0.1884  0.6802
 5071TIP3   OH236703   2.501   2.632   0.867  0.1509 -0.2980  0.2015
 5071TIP3    H136704   2.506   2.549   0.821  0.2512  0.0935 -0.5004
 5071TIP3    H236705   2.567   2.688   0.824 -2.0617  1.1885 -1.4836
 5072TIP3   OH236706   2.309   6.131   4.376 -0.6621  0.1651  0.2154
 5072TIP3    H136707   2.279   6.110   4.288  0.8669 -1.6589  0.0617
 5072TIP3    H236708   2.232   6.166   4.421 -1.2309  2.1884 -2.1167
 5073TIP3   OH236709   4.150   3.444   2.180  0.2624 -0.0398  0.4733
 5073TIP3    H136710   4.125   3.405   2.096  0.3681  0.8770 -0.0037
 5073TIP3    H236711   4.069   3.446   2.231 -0.3518  1.5059 -0.4870
 5074TIP3   OH236712   3.715   4.298   2.616 -0.4393 -0.5617 -0.3632
 5074TIP3    H136713   3.807   4.299   2.588 -0.7024 -1.8669 -1.3861
 5074TIP3    H236714   3.678   4.377   2.577  0.5445  0.7924  1.2918
 5075TIP3   OH236715   0.884   4.233   5.112 -0.3050 -0.1746 -0.4878
 5075TIP3    H136716   0.835   4.288   5.172 -0.1118  0.3556 -0.8079
 5075TIP3    H236717   0.843   4.147   5.119 -0.8062  0.0836 -0.2116
 5076TIP3   OH236718   5.846   1.059   0.842  0.4409  0.5202  0.0368
 5076TIP3    H136719   5.808   0.975   0.815 -0.2349  1.3724 -1.8290
 5076TIP3    H236720   5.772   1.120   0.838  1.3878  1.6463 -0.9111
 5077TIP3   OH236721   2.269   5.064   0.006  0.1775  0.0732 -0.3443
 5077TIP3    H136722   2.251   5.152   0.039 -1.4012  0.2218 -1.4883
 5077TIP3    H236723   2.227   5.006   0.069 -1.2875  0.2804 -1.1042
 5078TIP3   OH236724   4.383   0.577  16.854 -0.4875 -0.0290  0.1285
 5078TIP3    H136725   4.453   0.630  16.816 -0.8545  0.5015  0.1784
 5078TIP3    H236726   4.423   0.534  16.929 -0.2191  0.2911  0.1709
 5079TIP3   OH236727   2.143   5.512   2.256  0.4365 -0.5646  0.6001
 5079TIP3    H136728   2.221   5.567   2.257  1.7207 -2.2726 -0.4571
 5079TIP3    H236729   2.102   5.531   2.171  0.5443 -0.8003  0.4962
 5080TIP3   OH236730   4.512   1.246   0.821 -0.0883  0.2861 -0.0253
 5080TIP3    H136731   4.575   1.312   0.848  0.8658 -0.4378 -0.4350
 5080TIP3    H236732   4.473   1.281   0.740  2.8886 -1.0930 -2.2367
 5081TIP3   OH236733   2.437   1.857   1.515 -0.0770 -0.1597  0.2866
 5081TIP3    H136734   2.412   1.921   1.583  0.6620  0.2984  0.1446
 5081TIP3    H236735   2.527   1.880   1.493  0.4877 -1.7570  0.7896
 5082TIP3   OH236736   6.379   2.589  17.110 -0.8580  0.9200 -0.1985
 5082TIP3    H136737   6.366   2.588  17.015 -0.3354 -0.5818 -0.2905
 5082TIP3    H236738   6.436   2.664  17.126 -0.1380  0.6088 -1.2089
 5083TIP3   OH236739   0.262   1.427   6.000 -0.3976  0.2900 -0.3434
 5083TIP3    H136740   0.217   1.438   6.083  1.2087 -0.3199  0.6451
 5083TIP3    H236741   0.355   1.433   6.021  0.4306 -4.9250 -1.0984
 5084TIP3   OH236742   5.104   4.193   0.968  0.4003  0.3141  0.5629
 5084TIP3    H136743   5.091   4.251   0.892  1.2027  0.0491  0.2219
 5084TIP3    H236744   5.066   4.242   1.041  1.3285  1.4072  0.3328
 5085TIP3   OH236745   0.509   5.210   0.358 -0.0638 -0.0756  0.3984
 5085TIP3    H136746   0.500   5.225   0.264  0.3729 -0.1933  0.3358
 5085TIP3    H236747   0.421   5.186   0.387 -0.1060 -0.5238 -0.0738
 5086TIP3   OH236748   0.281   4.226   3.423  0.0026 -0.1731  0.5403
 5086TIP3    H136749   0.314   4.288   3.358  0.8327 -0.2529  0.8702
 5086TIP3    H236750   0.210   4.273   3.467  2.6952  1.8953  3.0325
 5087TIP3   OH236751   1.430   0.169  11.223  0.7237  0.2509 -0.0401
 5087TIP3    H136752   1.505   0.115  11.199 -0.2004 -2.0505  1.8578
 5087TIP3    H236753   1.449   0.198  11.312 -1.3050 -1.8741  1.2075
 5088TIP3   OH236754   0.915   6.650   5.754  0.1726 -0.4220 -0.2281
 5088TIP3    H136755   0.953   6.736   5.771 -2.2546  0.9132 -1.1514
 5088TIP3    H236756   0.916   6.606   5.839  0.4674  0.9211  0.4863
 5089TIP3   OH236757   1.853   0.894  12.899 -0.0409 -0.3307  0.5450
 5089TIP3    H136758   1.764   0.916  12.872  0.2649  0.1830 -0.0860
 5089TIP3    H236759   1.884   0.973  12.944 -0.2012 -0.8245  1.5550
 5090TIP3   OH236760   2.591   5.341  10.491  0.3367  0.1922  0.1972
 5090TIP3    H136761   2.626   5.262  10.449  2.0618  0.1788  1.5781
 5090TIP3    H236762   2.561   5.395  10.418  1.5641 -0.6021 -0.9434
 5091TIP3   OH236763   6.042   3.382   5.129 -0.5319 -0.3801 -0.9369
 5091TIP3    H136764   6.024   3.300   5.174 -2.5482  0.7655  0.4742
 5091TIP3    H236765   6.045   3.448   5.198  0.6133  0.8420 -2.0799
 5092TIP3   OH236766   0.299   5.754  15.215  0.3363 -0.2130  0.8454
 5092TIP3    H136767   0.394   5.751  15.207  0.3868  2.7270 -1.2568
 5092TIP3    H236768   0.283   5.811  15.289  0.2385  0.2103  0.5020
 5093TIP3   OH236769   6.276   2.207   0.456 -0.5485  0.1528 -0.4462
 5093TIP3    H136770   6.187   2.211   0.491 -0.9922 -1.2406 -1.3364
 5093TIP3    H236771   6.285   2.118   0.421  1.8812 -0.4187  1.3286
 5094TIP3   OH236772   5.190   5.696   5.579  0.2532 -0.0222  0.1976
 5094TIP3    H136773   5.269   5.749   5.563  0.3422 -0.3644 -0.5160
 5094TIP3    H236774   5.130   5.756   5.623 -0.2148  1.1728 -1.9110
 5095TIP3   OH236775   4.825   1.505   6.506  0.1262  0.5442 -0.5673
 5095TIP3    H136776   4.751   1.526   6.564 -1.5142 -3.1972 -1.0060
 5095TIP3    H236777   4.885   1.455   6.561  0.7279  0.7460 -1.0334
 5096TIP3   OH236778   1.537   0.067  11.470  0.0852 -0.3303  0.3584
 5096TIP3    H136779   1.477   0.004  11.431  0.8327 -2.0929  1.9156
 5096TIP3    H236780   1.624   0.027  11.461  0.7343  0.9659  0.4678
 5097TIP3   OH236781   0.485   1.332   5.815  0.3098 -0.3019 -0.1619
 5097TIP3    H136782   0.529   1.254   5.781  1.5558 -0.6097  1.9667
 5097TIP3    H236783   0.552   1.375   5.868 -1.1061  0.8815  0.7290
 5098TIP3   OH236784   5.105   2.806   5.748 -0.2053 -0.3711  0.0667
 5098TIP3    H136785   5.035   2.820   5.684 -1.2637 -2.5767  0.6348
 5098TIP3    H236786   5.058   2.783   5.829  1.0786  2.2367  1.6918
 5099TIP3   OH236787   6.247   4.967  11.850 -0.0678 -0.6780 -0.0871
 5099TIP3    H136788   6.317   4.957  11.915  1.0379  1.5415 -0.8355
 5099TIP3    H236789   6.169   4.990  11.901 -0.1888 -2.6172  0.7070
 5100TIP3   OH236790   6.202   0.224   4.362 -0.2314  0.5215 -0.4510
 5100TIP3    H136791   6.248   0.251   4.442  0.1057  1.0169 -0.8094
 5100TIP3    H236792   6.122   0.278   4.361 -1.0603 -0.6241  0.3847
 5101TIP3   OH236793   0.483   5.126   1.057  0.3053  0.4144  0.0806
 5101TIP3    H136794   0.449   5.134   1.146 -1.1321  0.3048 -0.4313
 5101TIP3    H236795   0.425   5.179   1.004 -0.6076 -1.7352 -1.1949
 5102TIP3   OH236796   3.231   0.173   1.807  0.1412  0.1479  0.1809
 5102TIP3    H136797   3.310   0.207   1.849 -1.4338  1.7384  2.0545
 5102TIP3    H236798   3.214   0.235   1.735  1.2318 -0.9224 -1.0536
 5103TIP3   OH236799   1.692   0.207   3.272  0.1021  0.4304  0.1698
 5103TIP3    H136800   1.728   0.175   3.190 -1.6710 -0.0779 -0.4638
 5103TIP3    H236801   1.680   0.301   3.258 -0.7988  0.2389 -0.4146
 5104TIP3   OH236802   1.061   1.415  14.324  0.0591 -0.5396 -0.1213
 5104TIP3    H136803   1.038   1.357  14.251  1.9021  2.1281 -3.0811
 5104TIP3    H236804   1.157   1.417  14.324  0.0679  1.4863  0.6657
 5105TIP3   OH236805   5.647   5.776  12.721 -0.6205 -0.3176 -0.4406
 5105TIP3    H136806   5.555   5.757  12.703 -0.9494  2.6560 -2.7753
 5105TIP3    H236807   5.695   5.728  12.653 -0.5982 -0.5290 -0.2753
 5106TIP3   OH236808   1.537   4.601  17.107 -0.2849 -0.0614 -0.3047
 5106TIP3    H136809   1.534   4.689  17.070  0.9204 -0.5735 -1.7464
 5106TIP3    H236810   1.552   4.614  17.200 -2.8741  1.2893  0.0143
 5107TIP3   OH236811   6.278   3.166   0.588  0.1414 -0.4419 -0.3348
 5107TIP3    H136812   6.291   3.254   0.554 -0.3092  0.3853  1.5330
 5107TIP3    H236813   6.348   3.114   0.548  0.9685  0.9545 -0.7528
 5108TIP3   OH236814   5.374   2.531   5.297  0.4697  0.1106  0.1613
 5108TIP3    H136815   5.405   2.483   5.220 -0.8029  0.0342 -0.3267
 5108TIP3    H236816   5.347   2.464   5.359  0.0518  0.1816  0.0585
 5109TIP3   OH236817   0.811   5.073   4.628 -0.3527  0.7367 -0.3725
 5109TIP3    H136818   0.757   5.151   4.624  2.2921  2.8331  1.2658
 5109TIP3    H236819   0.842   5.069   4.718  1.7327 -0.6433 -1.0646
 5110TIP3   OH236820   2.222   6.294  13.389  0.8267  0.4034  0.5460
 5110TIP3    H136821   2.209   6.244  13.308  0.0779  0.0210  0.8925
 5110TIP3    H236822   2.243   6.228  13.455 -0.4094  0.4797  1.0626
 5111TIP3   OH236823   4.113   3.118   6.210  0.0467 -0.0357 -0.2192
 5111TIP3    H136824   4.024   3.151   6.225  0.6252  1.7524 -0.5610
 5111TIP3    H236825   4.130   3.136   6.118 -0.1802 -2.8246 -0.8924
 5112TIP3   OH236826   0.363   6.330  10.956  0.2269  0.0841  0.2940
 5112TIP3    H136827   0.316   6.394  10.902  0.0296 -1.2423 -1.1777
 5112TIP3    H236828   0.428   6.293  10.896  1.0968 -0.2927  1.4506
 5113TIP3   OH236829   2.148   5.111   3.375 -0.6385 -0.1113  0.5150
 5113TIP3    H136830   2.076   5.119   3.314 -0.0456 -0.1799 -0.2097
 5113TIP3    H236831   2.116   5.051   3.443 -0.5196 -1.9010 -0.9285
 5114TIP3   OH236832   3.195   6.640  14.449 -0.7427  0.1462  0.4228
 5114TIP3    H136833   3.166   6.693  14.523 -2.0156  0.5541 -0.3420
 5114TIP3    H236834   3.261   6.693  14.405  1.0433 -0.6502  1.9836
 5115TIP3   OH236835   4.032   6.207  12.253  0.0962 -0.3484  0.8297
 5115TIP3    H136836   4.020   6.123  12.298  0.2075 -0.4057  0.7526
 5115TIP3    H236837   4.126   6.211  12.233 -0.1570 -0.9459 -0.6123
 5116TIP3   OH236838   2.216   1.255   4.013  0.6249 -0.3011  0.1360
 5116TIP3    H136839   2.282   1.272   3.947 -0.9674 -0.8499 -1.6846
 5116TIP3    H236840   2.199   1.161   4.007 -0.4624 -0.1365  0.4008
 5117TIP3   OH236841   0.509   1.774   6.238 -0.5799  0.3285 -0.6294
 5117TIP3    H136842   0.488   1.858   6.278 -3.0455 -0.7275  0.5176
 5117TIP3    H236843   0.475   1.781   6.149 -3.9916 -0.4937  0.4711
 5118TIP3   OH236844   0.239   0.975   3.734 -0.4711  0.2636  0.2356
 5118TIP3    H136845   0.269   1.054   3.780 -2.0197  1.2874 -0.4602
 5118TIP3    H236846   0.218   0.914   3.805 -1.5040  1.3289  0.9015
 5119TIP3   OH236847   4.689   2.924  14.687 -0.3966 -0.4093 -0.2129
 5119TIP3    H136848   4.780   2.951  14.675 -0.2679 -0.4683  0.5591
 5119TIP3    H236849   4.660   2.973  14.764 -0.8245 -0.8424 -0.0941
 5120TIP3   OH236850   1.601   0.649  11.827  0.5401  0.1318 -0.2194
 5120TIP3    H136851   1.638   0.735  11.847 -0.2279  1.2239 -2.9922
 5120TIP3    H236852   1.506   0.662  11.827  0.3679 -0.9575  0.1945
 5121TIP3   OH236853   3.598   3.109   4.830 -0.2895 -0.0575 -0.0989
 5121TIP3    H136854   3.656   3.100   4.755  0.1261 -0.4874  0.2728
 5121TIP3    H236855   3.650   3.080   4.905 -0.9981 -0.5074  0.2296
 5122TIP3   OH236856   2.463   3.820   0.299  0.5092  0.1889 -0.0217
 5122TIP3    H136857   2.385   3.851   0.255  0.7643 -0.2862 -0.8286
 5122TIP3    H236858   2.506   3.763   0.235 -0.2231 -2.2994  1.5567
 5123TIP3   OH236859   6.621   1.958  16.870 -0.2025 -0.1534  0.7533
 5123TIP3    H136860   6.577   2.038  16.899 -2.5369 -0.4886 -1.4852
 5123TIP3    H236861   6.576   1.887  16.917  1.5445 -0.2474  2.3805
 5124TIP3   OH236862   5.217   1.689  17.175 -0.1278 -0.2339  0.5834
 5124TIP3    H136863   5.209   1.773  17.219 -1.0978  0.5415 -0.9648
 5124TIP3    H236864   5.161   1.630  17.226 -1.5634  0.7400  0.1955
 5125TIP3   OH236865   4.218   4.883   0.993  0.0567 -0.4109 -0.3732
 5125TIP3    H136866   4.230   4.849   1.082 -1.2623  1.2378  0.4986
 5125TIP3    H236867   4.175   4.812   0.946 -1.6544 -0.4124  1.0818
 5126TIP3   OH236868   2.809   5.110   3.482 -0.2206 -0.0638  0.7926
 5126TIP3    H136869   2.796   5.015   3.487 -0.3361 -0.1843 -1.0555
 5126TIP3    H236870   2.869   5.129   3.553 -0.0100 -1.5701  1.0664
 5127TIP3   OH236871   5.439   1.251  14.975 -0.3696 -0.2250 -0.5445
 5127TIP3    H136872   5.472   1.241  15.065  0.1944 -0.7067 -0.7927
 5127TIP3    H236873   5.351   1.286  14.985 -0.0107  0.5128  0.1688
 5128TIP3   OH236874   4.893   1.850   2.675  0.3237 -0.2006 -0.1518
 5128TIP3    H136875   4.803   1.860   2.706  1.3681 -0.0404  3.2668
 5128TIP3    H236876   4.914   1.758   2.690  0.6042 -0.3817 -1.4861
 5129TIP3   OH236877   3.184   0.387   5.891  0.1964 -0.0220  0.3066
 5129TIP3    H136878   3.277   0.387   5.910  0.4909 -2.5032 -0.7588
 5129TIP3    H236879   3.142   0.374   5.977  0.4494  4.8507  1.4453
 5130TIP3   OH236880   3.272   1.876  14.090  0.3836 -0.2055 -0.0985
 5130TIP3    H136881   3.304   1.818  14.159  1.3150  1.0542  0.5684
 5130TIP3    H236882   3.236   1.817  14.023  1.9317 -1.5654  0.2235
 5131TIP3   OH236883   5.551   5.297  16.366  0.0722 -0.3803  0.0043
 5131TIP3    H136884   5.526   5.207  16.386  1.2820 -0.5158  1.0524
 5131TIP3    H236885   5.595   5.291  16.281  1.7206 -1.1082  0.8597
 5132TIP3   OH236886   0.565   5.330   6.184  0.1705  0.2822  0.0383
 5132TIP3    H136887   0.542   5.261   6.246 -1.9503  0.9922  0.1181
 5132TIP3    H236888   0.646   5.299   6.143  0.3370 -1.3126  1.4514
 5133TIP3   OH236889   2.861   4.313  10.540  0.6424 -0.6438 -0.5315
 5133TIP3    H136890   2.925   4.296  10.610  1.7611  0.2500 -1.3108
 5133TIP3    H236891   2.813   4.390  10.570 -0.2653 -1.4513  0.1622
 5134TIP3   OH236892   1.586   3.907  11.181 -0.2179 -0.1057  0.6795
 5134TIP3    H136893   1.530   3.983  11.168 -0.7481 -0.7811 -1.2328
 5134TIP3    H236894   1.581   3.890  11.275 -2.1188  0.6914  0.7719
 5135TIP3   OH236895   1.166   5.667  11.107 -0.1555 -0.8272  0.4641
 5135TIP3    H136896   1.086   5.623  11.137 -0.9803  0.3924  0.1205
 5135TIP3    H236897   1.136   5.751  11.073  1.4825  0.6123  2.2936
 5136TIP3   OH236898   4.113   5.106  13.080  0.5927  0.2300  0.3272
 5136TIP3    H136899   4.087   5.118  12.989  1.4989  1.5814  0.2194
 5136TIP3    H236900   4.208   5.098  13.077  0.4745 -2.5369  0.9110
 5137TIP3   OH236901   2.148   1.263  16.925  0.3654 -0.2816  0.2170
 5137TIP3    H136902   2.155   1.322  17.000  0.4907 -1.3794  1.0955
 5137TIP3    H236903   2.053   1.253  16.911  0.3072 -1.1082  1.0943
 5138TIP3   OH236904   0.680   6.109   0.575 -0.0357 -0.2513 -0.0883
 5138TIP3    H136905   0.754   6.161   0.609 -0.5985  1.0326 -0.7532
 5138TIP3    H236906   0.717   6.022   0.560  0.1401 -1.1987  4.3406
 5139TIP3   OH236907   0.941   6.194  16.728 -0.1504 -0.6103 -0.7423
 5139TIP3    H136908   0.898   6.112  16.704 -1.3643  0.1008 -1.0902
 5139TIP3    H236909   0.901   6.218  16.812  0.5068 -0.5892 -0.4320
 5140TIP3   OH236910   2.344   1.909   4.100  0.2496  0.2645  0.3139
 5140TIP3    H136911   2.360   1.855   4.178 -1.2027  0.3529  0.6874
 5140TIP3    H236912   2.414   1.975   4.103  2.0386 -1.4947 -0.1211
 5141TIP3   OH236913   1.988   5.342  11.310 -0.1184 -0.8406 -0.1219
 5141TIP3    H136914   1.899   5.376  11.323 -0.4068 -1.9034  0.8926
 5141TIP3    H236915   2.045   5.405  11.354 -0.4298 -0.4369 -0.3031
 5142TIP3   OH236916   5.562   1.830   5.025  0.4207  0.2226  0.2669
 5142TIP3    H136917   5.585   1.818   4.933 -0.0266 -1.7722  0.3752
 5142TIP3    H236918   5.518   1.915   5.028  0.8969  0.5542 -1.2611
 5143TIP3   OH236919   1.429   4.811   3.814  0.4786  0.2845  0.3779
 5143TIP3    H136920   1.518   4.800   3.847  1.4550  1.9420 -1.4641
 5143TIP3    H236921   1.415   4.906   3.815 -1.5953  0.0236  1.3391
 5144TIP3   OH236922   3.625   4.240   5.833 -0.0490  0.1345 -0.4227
 5144TIP3    H136923   3.638   4.186   5.911  1.6679  0.6837 -0.2822
 5144TIP3    H236924   3.590   4.180   5.767  1.2256 -1.0340 -0.0913
 5145TIP3   OH236925   3.547   1.586  16.379 -0.5473 -0.3834 -0.2648
 5145TIP3    H136926   3.594   1.567  16.298 -0.5365 -1.8498  0.0683
 5145TIP3    H236927   3.548   1.682  16.385 -0.1475 -0.2717 -1.7467
 5146TIP3   OH236928   3.679   6.652  15.012 -0.2437 -0.6307 -0.0555
 5146TIP3    H136929   3.692   6.738  15.053 -2.2831  0.7541 -2.0647
 5146TIP3    H236930   3.597   6.619  15.049  0.4670 -1.7076  0.6161
 5147TIP3   OH236931   2.450   1.747  16.831 -0.5996 -0.0231  0.2934
 5147TIP3    H136932   2.485   1.757  16.743  0.6184 -0.1113  0.7485
 5147TIP3    H236933   2.445   1.836  16.865  0.1943 -0.0846  0.5938
 5148TIP3   OH236934   6.073   3.869  12.398 -0.0864 -0.8042 -0.7614
 5148TIP3    H136935   6.072   3.820  12.315 -0.1104  0.7867 -1.7297
 5148TIP3    H236936   6.153   3.920  12.395  1.0220 -2.3120  1.2081
 5149TIP3   OH236937   2.043   5.378  13.986 -0.2933 -0.2839 -0.2233
 5149TIP3    H136938   2.101   5.453  13.975 -1.7031  0.7814 -0.8716
 5149TIP3    H236939   2.062   5.344  14.073  1.5391 -0.2228 -0.5759
 5150TIP3   OH236940   5.914   1.255   4.689 -0.0235 -0.3230  0.3320
 5150TIP3    H136941   5.877   1.178   4.646 -1.6271  0.1656  0.7536
 5150TIP3    H236942   5.934   1.225   4.778  1.2125 -0.7495 -0.0727
 5151TIP3   OH236943   1.079   2.562  12.320  0.0705 -0.0787 -0.0488
 5151TIP3    H136944   0.989   2.555  12.350  0.1491  0.7057  0.4005
 5151TIP3    H236945   1.097   2.478  12.277 -0.6111 -0.5479  0.5619
 5152TIP3   OH236946   4.060   1.243   2.563  0.2020  0.7752  0.3397
 5152TIP3    H136947   4.078   1.213   2.652  0.4892 -1.7852 -0.5160
 5152TIP3    H236948   4.008   1.173   2.523  1.5848  0.9899 -2.0578
 5153TIP3   OH236949   2.488   3.579  15.371  0.2801  0.8573 -0.1432
 5153TIP3    H136950   2.409   3.609  15.417 -0.2210 -0.4613 -0.1026
 5153TIP3    H236951   2.491   3.484  15.387  0.8948  0.5983 -1.6209
 5154TIP3   OH236952   1.480   5.576  12.022  0.3415  0.0479 -0.4354
 5154TIP3    H136953   1.565   5.548  11.990  0.7505  0.1873  0.4702
 5154TIP3    H236954   1.498   5.659  12.066 -0.5765  0.9795 -1.7517
 5155TIP3   OH236955   4.749   2.816  14.114  0.3128  0.3661 -0.1751
 5155TIP3    H136956   4.661   2.789  14.137  0.3850  0.3383  0.0698
 5155TIP3    H236957   4.804   2.740  14.133  0.3407  0.2593 -0.6699
 5156TIP3   OH236958   6.327   0.032   3.707  0.3010 -0.0929  0.1751
 5156TIP3    H136959   6.381   0.049   3.630  1.2662  0.2852  0.9129
 5156TIP3    H236960   6.390   0.020   3.778 -0.5594 -0.6942  0.8606
 5157TIP3   OH236961   5.017   6.689  12.026  0.0113  0.7319 -0.1443
 5157TIP3    H136962   4.991   6.728  12.110  1.0111  0.5082  0.2857
 5157TIP3    H236963   5.113   6.693  12.026  0.0110  1.1108 -1.4744
 5158TIP3   OH236964   2.051   1.913  12.762  0.4461 -0.1893 -0.4252
 5158TIP3    H136965   1.961   1.928  12.732  0.6827  1.4217 -0.4352
 5158TIP3    H236966   2.073   1.826  12.729 -0.7208 -0.1435 -1.4087
 5159TIP3   OH236967   2.678   0.931  10.944  0.3784  0.1391  0.5322
 5159TIP3    H136968   2.773   0.930  10.930  0.2244  1.4764 -0.7412
 5159TIP3    H236969   2.643   0.983  10.872 -1.4038 -0.8623  0.6159
 5160TIP3   OH236970   6.662   4.708   5.673 -0.0599 -0.1130 -0.0254
 5160TIP3    H136971   6.746   4.753   5.684 -0.0616  0.3751 -1.7102
 5160TIP3    H236972   6.674   4.653   5.596 -1.0430 -0.6786  0.2044
 5161TIP3   OH236973   6.466   2.625  12.709  0.7477  1.3908  0.2422
 5161TIP3    H136974   6.444   2.566  12.781  0.1733  1.9770  0.5629
 5161TIP3    H236975   6.561   2.632  12.713  0.6831  1.9458  1.4037
 5162TIP3   OH236976   4.460   2.732   3.904 -0.3203 -0.4880  0.4138
 5162TIP3    H136977   4.393   2.667   3.882  0.3979 -1.0010 -0.3233
 5162TIP3    H236978   4.430   2.770   3.987 -1.4657 -0.7707  0.1493
 5163TIP3   OH236979   4.762   3.712  14.793 -0.0124  0.1494  0.4431
 5163TIP3    H136980   4.827   3.644  14.808 -0.2406 -0.1676  0.0027
 5163TIP3    H236981   4.706   3.709  14.870  1.5735  1.6976  1.7695
 5164TIP3   OH236982   6.726   2.017   1.652  0.5999 -0.0194  0.4920
 5164TIP3    H136983   6.759   1.931   1.627 -2.9062 -0.8748 -1.9058
 5164TIP3    H236984   6.737   2.071   1.574  0.4038  0.9785  1.1260
 5165TIP3   OH236985   1.238   5.295   0.361 -0.2517  0.0418  0.7229
 5165TIP3    H136986   1.320   5.344   0.365 -0.4915  0.4333  0.9611
 5165TIP3    H236987   1.201   5.315   0.275 -0.8186  1.0709  1.1802
 5166TIP3   OH236988   5.831   3.948   2.811 -0.4792 -0.4773  0.4908
 5166TIP3    H136989   5.824   3.896   2.731 -1.7896 -1.5652  1.2716
 5166TIP3    H236990   5.903   3.907   2.859  0.8333  0.6563 -0.4198
 5167TIP3   OH236991   2.423   5.236   1.500  0.1433  0.1187 -0.7519
 5167TIP3    H136992   2.333   5.237   1.469  0.4189 -0.6071 -1.6327
 5167TIP3    H236993   2.468   5.176   1.440  1.0402 -0.1256  0.1370
 5168TIP3   OH236994   1.799   6.599  14.872 -0.4798 -0.0714 -0.5723
 5168TIP3    H136995   1.723   6.613  14.816 -0.5211  1.5916 -0.1747
 5168TIP3    H236996   1.859   6.671  14.850  0.5798 -0.8164 -0.2310
 5169TIP3   OH236997   4.593   5.726   0.817 -0.6611  0.6324  0.5032
 5169TIP3    H136998   4.594   5.788   0.890 -0.2306  0.4422  0.6613
 5169TIP3    H236999   4.678   5.737   0.775 -0.5064  0.0321  0.6387
 5170TIP3   OH237000   2.083   1.129   1.897 -0.4440 -0.3519 -0.1803
 5170TIP3    H137001   2.100   1.218   1.866 -0.2707 -0.3986 -0.2198
 5170TIP3    H237002   2.097   1.074   1.821  0.5232 -0.5240  0.1072
 5171TIP3   OH237003   1.871   1.731   3.246  0.0616 -0.1452 -0.0698
 5171TIP3    H137004   1.930   1.672   3.201 -0.0280  1.0152 -1.8375
 5171TIP3    H237005   1.835   1.680   3.319  2.1571 -1.2917  0.2275
 5172TIP3   OH237006   5.050   3.163   2.070  0.2856 -0.3747  0.2461
 5172TIP3    H137007   4.983   3.109   2.028 -1.1908  0.2270  1.7479
 5172TIP3    H237008   5.050   3.245   2.020  1.2203 -1.0110 -0.8681
 5173TIP3   OH237009   3.819   5.941   1.062  0.2082 -0.2950 -0.7176
 5173TIP3    H137010   3.856   5.896   1.138 -0.9555  0.3934  0.2860
 5173TIP3    H237011   3.765   5.875   1.018 -0.0526 -0.3692 -0.2843
 5174TIP3   OH237012   4.431   2.690  16.553 -0.0748  0.0697  0.4871
 5174TIP3    H137013   4.526   2.686  16.560  0.0841  0.2899 -1.2115
 5174TIP3    H237014   4.399   2.661  16.639  1.5060 -0.2812  0.9810
 5175TIP3   OH237015   1.040   0.458   6.764  0.1870 -0.3329 -0.1255
 5175TIP3    H137016   1.052   0.553   6.765  0.1345 -0.3156  1.3291
 5175TIP3    H237017   0.948   0.445   6.743  0.1876 -0.0589 -0.2917
 5176TIP3   OH237018   5.593   3.458   2.110 -0.2468 -0.1395 -0.2125
 5176TIP3    H137019   5.527   3.526   2.127  1.6680  1.7016  0.2833
 5176TIP3    H237020   5.637   3.446   2.194  1.5713  0.4039 -1.0389
 5177TIP3   OH237021   5.664   6.228  14.296  0.2025  0.2188  0.4175
 5177TIP3    H137022   5.657   6.197  14.206  1.6744  1.3545 -0.1212
 5177TIP3    H237023   5.753   6.206  14.322  0.8859  2.7451  0.4524
 5178TIP3   OH237024   3.527   5.310  14.279  0.4022  0.0920 -0.1400
 5178TIP3    H137025   3.590   5.314  14.207  1.6390 -0.9315  0.8163
 5178TIP3    H237026   3.467   5.382  14.263  1.9775  1.2839 -0.9747
 5179TIP3   OH237027   1.924   0.740  11.351 -0.1050 -0.2497 -0.5695
 5179TIP3    H137028   1.877   0.672  11.303  0.4720 -0.8483 -0.2978
 5179TIP3    H237029   1.909   0.820  11.300 -0.3793 -0.6743 -1.1648
 5180TIP3   OH237030   6.557   5.492   0.800  0.0017 -0.0228 -0.3909
 5180TIP3    H137031   6.509   5.551   0.742 -2.2397  1.0509  2.3575
 5180TIP3    H237032   6.607   5.549   0.857 -0.2823 -0.8477  0.7325
 5181TIP3   OH237033   6.485   2.761   4.632  0.3252  0.0120 -0.4385
 5181TIP3    H137034   6.558   2.791   4.579  1.8587 -1.2317  0.8683
 5181TIP3    H237035   6.513   2.677   4.667 -1.5093 -0.2394  0.5856
 5182TIP3   OH237036   2.558   1.353  16.610 -0.3101  0.3684 -0.5825
 5182TIP3    H137037   2.560   1.312  16.524  1.0783  1.4154 -1.0912
 5182TIP3    H237038   2.469   1.338  16.642 -0.3616 -1.5033 -1.4553
 5183TIP3   OH237039   4.441   5.233   2.784 -0.6294  0.1056 -0.0517
 5183TIP3    H137040   4.380   5.258   2.714 -0.7257  0.4265  0.1427
 5183TIP3    H237041   4.494   5.311   2.798 -0.6009  0.0368  0.2237
 5184TIP3   OH237042   2.549   0.807   2.479 -0.6572  0.3031  0.4965
 5184TIP3    H137043   2.524   0.810   2.386  0.9312 -1.0059 -0.0344
 5184TIP3    H237044   2.551   0.898   2.507 -0.6789  0.7579 -0.9123
 5185TIP3   OH237045   2.791   4.540   3.809  0.3218 -0.3941  0.3086
 5185TIP3    H137046   2.839   4.533   3.891 -0.4697 -0.4715  0.7782
 5185TIP3    H237047   2.707   4.498   3.826 -0.0355  0.0048 -0.3955
 5186TIP3   OH237048   5.753   6.287   1.497 -0.9036 -0.1990 -0.2847
 5186TIP3    H137049   5.796   6.216   1.545  1.6821  0.5046 -1.3626
 5186TIP3    H237050   5.779   6.273   1.406 -0.2217  2.1048 -0.5171
 5187TIP3   OH237051   1.965   5.744   4.868  0.1467 -0.1057 -0.0631
 5187TIP3    H137052   1.930   5.800   4.937  0.4613  0.7962 -0.6215
 5187TIP3    H237053   1.986   5.662   4.912 -0.5756  0.1156  0.7126
 5188TIP3   OH237054   5.651   5.283   4.344  0.2993  0.0676 -0.2611
 5188TIP3    H137055   5.616   5.308   4.258  0.4248 -0.1169 -0.3678
 5188TIP3    H237056   5.641   5.188   4.347 -0.4102  0.1524  0.2439
 5189TIP3   OH237057   2.211   0.353  12.745 -0.1111  0.1155 -0.9456
 5189TIP3    H137058   2.213   0.288  12.816 -1.1580 -0.4090 -1.3816
 5189TIP3    H237059   2.188   0.435  12.789  0.9624  0.1698 -0.4323
 5190TIP3   OH237060   2.738   1.519  11.642  0.2608  0.0966 -0.9259
 5190TIP3    H137061   2.719   1.528  11.736  1.2553  0.1829 -0.7137
 5190TIP3    H237062   2.734   1.608  11.608  0.4033  0.1306 -0.8550
 5191TIP3   OH237063   4.521   2.158  17.058  0.0703  0.0848  0.5790
 5191TIP3    H137064   4.484   2.136  16.973 -1.5194  0.6122  1.0988
 5191TIP3    H237065   4.588   2.224  17.040  2.8138 -2.8000 -0.6865
 5192TIP3   OH237066   2.508   0.505   5.498 -0.2511  0.1702 -0.5309
 5192TIP3    H137067   2.413   0.509   5.494 -0.2210  0.8727 -0.5731
 5192TIP3    H237068   2.529   0.412   5.486 -1.0445 -0.3949  1.9002
 5193TIP3   OH237069   6.183   3.918  15.019  0.3287  0.0560 -0.2306
 5193TIP3    H137070   6.269   3.941  15.053 -0.3296  0.1023  1.5289
 5193TIP3    H237071   6.156   3.993  14.967  0.2505  1.2109  1.4169
 5194TIP3   OH237072   0.436   6.151   2.147 -0.2768  0.1250 -0.1969
 5194TIP3    H137073   0.342   6.135   2.157 -0.2502 -1.0534 -1.5056
 5194TIP3    H237074   0.470   6.069   2.111  1.3274  0.4167  0.5651
 5195TIP3   OH237075   6.524   6.404  16.585 -0.5422 -0.2492 -0.1079
 5195TIP3    H137076   6.609   6.446  16.594 -1.0262  0.9549 -0.8866
 5195TIP3    H237077   6.543   6.310  16.580  0.8356  0.0755 -1.4368
 5196TIP3   OH237078   4.796   5.821  13.014  1.1950  0.2218  0.0541
 5196TIP3    H137079   4.852   5.849  13.086  0.5357 -0.3611  0.8053
 5196TIP3    H237080   4.709   5.814  13.052  1.0869 -1.5714 -0.3911
 5197TIP3   OH237081   6.416   5.079   0.908  0.6144 -0.3077 -0.2969
 5197TIP3    H137082   6.458   5.018   0.848 -0.2179 -0.8437 -0.3518
 5197TIP3    H237083   6.391   5.154   0.853  0.5286 -0.4655 -0.4731
 5198TIP3   OH237084   1.753   2.035  16.498 -0.7174  0.0429 -0.0847
 5198TIP3    H137085   1.738   1.945  16.469 -1.8735 -0.2311  1.2272
 5198TIP3    H237086   1.815   2.071  16.435  0.3733 -1.9214 -0.2065
 5199TIP3   OH237087   2.116   4.327   3.930  0.3514 -0.3346 -0.3018
 5199TIP3    H137088   2.055   4.355   3.999  0.3367 -0.5480 -0.2268
 5199TIP3    H237089   2.191   4.291   3.978  1.1731  1.2251 -0.3694
 5200TIP3   OH237090   2.872   6.190  16.641  0.1505  0.0001  0.5236
 5200TIP3    H137091   2.785   6.214  16.609  0.2605 -0.6786 -0.3140
 5200TIP3    H237092   2.893   6.258  16.706  0.3856  2.1496 -1.6347
 5201TIP3   OH237093   3.209   6.263  16.592 -0.2459  0.1838  0.0267
 5201TIP3    H137094   3.128   6.255  16.642  0.6275  0.1506  1.4723
 5201TIP3    H237095   3.234   6.173  16.573 -0.3356  0.1826 -0.0924
 5202TIP3   OH237096   6.103   4.741  16.326 -0.1338  0.4327 -0.0776
 5202TIP3    H137097   6.130   4.830  16.347  0.2781  0.1152  0.7720
 5202TIP3    H237098   6.106   4.736  16.231  1.6129  0.7812 -0.0606
 5203TIP3   OH237099   5.185   1.810   3.281  0.4641  0.3779  0.2953
 5203TIP3    H137100   5.114   1.855   3.328 -0.2905  1.8388 -2.0378
 5203TIP3    H237101   5.263   1.861   3.302  0.7441 -0.8155  2.3223
 5204TIP3   OH237102   1.902   4.385  16.607  0.5141  0.3131  0.1503
 5204TIP3    H137103   1.957   4.431  16.670  2.8879 -0.7924 -0.9754
 5204TIP3    H237104   1.857   4.318  16.658 -0.5105  1.7438  1.2253
 5205TIP3   OH237105   5.472   1.452  12.409  0.1181  0.2576 -0.0328
 5205TIP3    H137106   5.424   1.535  12.414 -0.2248  0.0567  0.0459
 5205TIP3    H237107   5.556   1.475  12.370 -0.3704  0.4796 -0.9756
 5206TIP3   OH237108   4.351   4.771   3.974  0.2015 -0.5592  0.0924
 5206TIP3    H137109   4.377   4.686   3.938  0.2177 -0.1358 -0.9275
 5206TIP3    H237110   4.422   4.793   4.035  0.5901 -0.9105 -0.2226
 5207TIP3   OH237111   6.143   1.440  13.596 -0.6987 -0.0698 -0.1233
 5207TIP3    H137112   6.090   1.372  13.555 -1.0470  0.3031 -0.2899
 5207TIP3    H237113   6.096   1.522  13.580 -0.9008  0.0858  1.0961
 5208TIP3   OH237114   1.429   6.120  14.164  0.1127 -0.4812 -0.1129
 5208TIP3    H137115   1.499   6.183  14.146 -1.7859  1.3253 -1.7765
 5208TIP3    H237116   1.446   6.091  14.254  2.2145  0.8876  0.0182
 5209TIP3   OH237117   0.748   1.446  15.998  0.0689 -0.1378 -0.1496
 5209TIP3    H137118   0.834   1.478  15.971 -0.2718  0.6297 -0.3683
 5209TIP3    H237119   0.766   1.380  16.064  0.7942  0.6964  0.5058
 5210TIP3   OH237120   4.232   6.289   0.484  0.0252 -0.3992  0.5126
 5210TIP3    H137121   4.318   6.331   0.476  1.1074 -2.3108  1.5127
 5210TIP3    H237122   4.252   6.196   0.497 -2.2137 -0.9174  0.5750
 5211TIP3   OH237123   0.786   5.465   0.902 -0.0123 -0.1541  0.4685
 5211TIP3    H137124   0.881   5.470   0.904  0.0059 -0.4500  0.3298
 5211TIP3    H237125   0.767   5.378   0.868 -0.3282 -0.4272  1.3210
 5212TIP3   OH237126   2.157   5.400   3.645 -0.0392 -0.2187  0.2898
 5212TIP3    H137127   2.091   5.410   3.576 -0.1692  2.3263  0.7191
 5212TIP3    H237128   2.238   5.431   3.605  0.2980 -0.5607  0.6985
 5213TIP3   OH237129   5.420   5.870   4.732  0.0257  0.0293  0.3014
 5213TIP3    H137130   5.348   5.808   4.748  1.0570 -1.3120 -0.0943
 5213TIP3    H237131   5.390   5.922   4.658 -0.6137 -0.3969  0.2500
 5214TIP3   OH237132   4.215   3.333   2.665 -0.1008 -0.4791  0.5323
 5214TIP3    H137133   4.272   3.265   2.702 -0.2269 -0.4428  0.7953
 5214TIP3    H237134   4.127   3.294   2.668 -0.0573 -0.6293 -0.0972
 5215TIP3   OH237135   1.912   2.136  15.028 -0.2905  0.3572  0.3455
 5215TIP3    H137136   1.829   2.138  14.979  0.2808 -0.7258 -0.7166
 5215TIP3    H237137   1.915   2.049  15.068  1.4651 -0.6361 -1.7474
 5216TIP3   OH237138   2.057   1.419   1.006 -0.2252  0.2327 -0.0717
 5216TIP3    H137139   1.995   1.480   0.967  0.0038  0.7578  0.3838
 5216TIP3    H237140   2.075   1.454   1.093  0.4302 -0.1107 -0.0636
 5217TIP3   OH237141   2.290   3.556  12.913  0.6875  0.2928 -0.3086
 5217TIP3    H137142   2.197   3.574  12.927  0.9243  0.2362  1.6646
 5217TIP3    H237143   2.325   3.637  12.876 -0.2322  0.1190 -1.6112
 5218TIP3   OH237144   2.081   0.644  15.603  0.4527 -0.0511 -0.1639
 5218TIP3    H137145   2.069   0.737  15.618 -1.6161 -0.3195  0.2145
 5218TIP3    H237146   2.164   0.623  15.647  1.0734  1.6228 -0.4692
 5219TIP3   OH237147   5.211   1.228   4.047 -0.3266  0.7876  0.2312
 5219TIP3    H137148   5.225   1.321   4.031  1.1949  0.4817 -0.3924
 5219TIP3    H237149   5.256   1.211   4.130 -1.0018  0.6782  0.5890
 5220TIP3   OH237150   5.449   0.765   2.370  0.0740 -0.3625  0.8414
 5220TIP3    H137151   5.452   0.778   2.275  0.6143  0.5204  0.9646
 5220TIP3    H237152   5.468   0.672   2.382 -0.5844 -0.6108  0.0579
 5221TIP3   OH237153   6.126   4.350   5.962 -0.1261  0.0681 -0.3834
 5221TIP3    H137154   6.197   4.322   5.904  0.6503 -0.2338  0.6841
 5221TIP3    H237155   6.049   4.301   5.931  0.1685  0.2415 -1.4187
 5222TIP3   OH237156   0.583   2.195   3.255 -0.2674  0.1655  0.7208
 5222TIP3    H137157   0.574   2.120   3.197  0.3745 -0.4430  1.3798
 5222TIP3    H237158   0.552   2.269   3.203  0.5257 -0.3123 -0.4866
 5223TIP3   OH237159   3.870   1.859   2.872 -0.1861 -0.4304  0.0946
 5223TIP3    H137160   3.803   1.856   2.805  0.5133  0.9320 -0.7009
 5223TIP3    H237161   3.843   1.792   2.936 -1.3360 -1.1199 -1.0662
 5224TIP3   OH237162   3.247   1.129   1.362 -0.7834  0.1568  0.3326
 5224TIP3    H137163   3.300   1.206   1.337 -0.0883 -0.6316 -0.7186
 5224TIP3    H237164   3.194   1.160   1.435  1.7687  0.7647  2.0856
 5225TIP3   OH237165   6.609   2.915   1.897  0.1448 -0.5533  0.4445
 5225TIP3    H137166   6.704   2.924   1.905 -0.0254  0.8069  1.5105
 5225TIP3    H237167   6.595   2.834   1.850  1.8829  0.0430 -1.1871
 5226TIP3   OH237168   3.660   4.184   4.803 -0.2143 -0.0894 -0.1885
 5226TIP3    H137169   3.646   4.123   4.731  0.8825  2.1277 -2.4652
 5226TIP3    H237170   3.753   4.174   4.825  0.0359  0.8763 -0.7505
 5227TIP3   OH237171   2.444   1.476   4.605  0.3520  0.3979  0.0403
 5227TIP3    H137172   2.480   1.429   4.530 -1.0223  1.2201 -1.1789
 5227TIP3    H237173   2.503   1.550   4.617 -0.6761  1.6126 -1.8075
 5228TIP3   OH237174   6.417   6.187   2.134  0.1699 -0.3311  0.1309
 5228TIP3    H137175   6.476   6.150   2.069  0.2982  0.3259 -0.1284
 5228TIP3    H237176   6.464   6.263   2.169 -1.0630  1.0454 -1.0674
 5229TIP3   OH237177   4.777   0.976  14.543  0.0509 -0.1902 -0.4617
 5229TIP3    H137178   4.782   0.958  14.449  0.6237 -0.4413 -0.3869
 5229TIP3    H237179   4.712   1.045  14.551 -0.8423 -0.9461 -0.9426
 5230TIP3   OH237180   0.211   5.202  11.581  0.0407  0.2257  0.4452
 5230TIP3    H137181   0.129   5.223  11.628 -0.4303 -0.7261  0.0673
 5230TIP3    H237182   0.239   5.286  11.545 -0.3337  0.7215  1.2533
 5231TIP3   OH237183   4.052   2.639  13.688  0.1231  0.4434 -0.0412
 5231TIP3    H137184   4.033   2.579  13.616  0.8875  1.5593 -1.2334
 5231TIP3    H237185   3.998   2.716  13.669  0.1514  0.6565  0.7228
 5232TIP3   OH237186   0.635   4.437  16.546 -0.1041  0.2157 -0.0767
 5232TIP3    H137187   0.583   4.437  16.626 -1.0983 -0.7589 -0.7010
 5232TIP3    H237188   0.573   4.461  16.477  0.6487  0.6515 -0.6160
 5233TIP3   OH237189   5.274   2.099   0.789  0.2477  0.2275  0.3672
 5233TIP3    H137190   5.282   2.013   0.830  1.6866  0.5702  0.8543
 5233TIP3    H237191   5.364   2.122   0.765 -0.4316  0.4031 -2.2624
 5234TIP3   OH237192   3.541   5.876   1.601  0.1743 -0.5709  0.1360
 5234TIP3    H137193   3.612   5.889   1.538 -1.7318  0.5012 -1.9329
 5234TIP3    H237194   3.534   5.959   1.647 -2.8725  1.3639 -3.2638
 5235TIP3   OH237195   5.203   2.198  14.802 -0.2268 -0.1655 -0.5682
 5235TIP3    H137196   5.152   2.163  14.729  0.7833 -1.2552 -0.7870
 5235TIP3    H237197   5.292   2.168  14.785  0.1527  0.1433  0.7646
 5236TIP3   OH237198   5.348   5.008   5.977  0.1504  0.0612 -0.6733
 5236TIP3    H137199   5.329   5.025   6.070  1.2745 -3.4295  0.3698
 5236TIP3    H237200   5.264   5.021   5.933 -0.9206 -0.1268  1.1913
 5237TIP3   OH237201   3.823   1.907  15.492 -0.4786  0.1470  0.3065
 5237TIP3    H137202   3.837   1.876  15.402 -0.0093 -1.7176  0.9766
 5237TIP3    H237203   3.729   1.899  15.505 -0.3457 -1.5306  0.5806
 5238TIP3   OH237204   5.643   1.090  15.685  0.5303 -0.4143  0.3980
 5238TIP3    H137205   5.669   1.018  15.743 -1.7399  0.0928  2.1690
 5238TIP3    H237206   5.691   1.166  15.719  0.2840 -0.4078  0.7389
 5239TIP3   OH237207   3.803   1.246   4.686  0.8171  0.1701  0.1247
 5239TIP3    H137208   3.870   1.256   4.753  1.4513  0.9163 -0.6003
 5239TIP3    H237209   3.851   1.222   4.607  0.3721  1.7625 -0.6714
 5240TIP3   OH237210   3.746   5.051  15.643 -0.0141 -0.3699 -0.7846
 5240TIP3    H137211   3.744   5.070  15.550 -0.4806  2.0904 -0.3442
 5240TIP3    H237212   3.830   5.085  15.674 -1.0053  1.4013  0.1102
 5241TIP3   OH237213   6.694   4.334   5.399 -0.2588 -0.5350 -0.6150
 5241TIP3    H137214   6.663   4.246   5.378 -0.9060 -0.1452 -1.3539
 5241TIP3    H237215   6.753   4.322   5.474 -1.7749 -1.3721  0.4884
 5242TIP3   OH237216   6.553   3.155  12.511  0.4834  0.3444 -0.4255
 5242TIP3    H137217   6.633   3.174  12.560  0.9053  0.1151 -1.0021
 5242TIP3    H237218   6.565   3.065  12.480 -0.2783  0.0895  0.0047
 5243TIP3   OH237219   1.356   6.068  13.526  0.3829  0.5997 -0.1756
 5243TIP3    H137220   1.415   6.008  13.481 -0.8816  0.2564 -1.4106
 5243TIP3    H237221   1.398   6.083  13.611  0.2860 -2.7572  0.5698
 5244TIP3   OH237222   0.044   0.476  11.895  0.6109  0.0182  0.3137
 5244TIP3    H137223   0.106   0.445  11.830  1.5290 -2.6814  2.3054
 5244TIP3    H237224  -0.041   0.444  11.864  0.8120  0.1136 -0.3395
 5245TIP3   OH237225   4.238   0.508  12.634  0.6683  0.0052 -0.0694
 5245TIP3    H137226   4.174   0.548  12.693  1.5729  0.8082  0.3851
 5245TIP3    H237227   4.189   0.495  12.552 -0.1101  0.5050  0.3028
 5246TIP3   OH237228   4.499   1.925  11.809 -0.4636  0.1024 -0.0780
 5246TIP3    H137229   4.477   1.858  11.745  0.6824  0.4468 -0.8503
 5246TIP3    H237230   4.570   1.887  11.860 -1.2836 -0.1217  0.9378
 5247TIP3   OH237231   6.462   0.792  14.481 -0.5202  0.1000  0.3488
 5247TIP3    H137232   6.500   0.715  14.523  0.4644 -0.9099 -2.1985
 5247TIP3    H237233   6.404   0.756  14.413 -1.0151  1.6265 -0.0802
 5248TIP3   OH237234   4.674   2.470  11.800 -0.1284  0.1095 -0.2625
 5248TIP3    H137235   4.663   2.399  11.863  0.3058 -0.0641 -0.3767
 5248TIP3    H237236   4.680   2.425  11.715 -0.7191  0.3393 -0.4326
 5249TIP3   OH237237   5.448   5.806  15.751  0.0023  0.2536  0.0399
 5249TIP3    H137238   5.387   5.801  15.825  0.6360 -1.2690  0.4874
 5249TIP3    H237239   5.491   5.891  15.761 -0.7076  0.5317  0.7947
 5250TIP3   OH237240   0.896   6.060   5.954 -0.2006 -0.4581  0.4951
 5250TIP3    H137241   0.943   5.979   5.935  0.1678 -0.8522  2.7899
 5250TIP3    H237242   0.917   6.118   5.881 -0.5674 -2.4357 -1.2761
 5251TIP3   OH237243   0.220   4.563  12.318  0.1257 -0.2665  0.4149
 5251TIP3    H137244   0.311   4.587  12.334  0.4595 -0.6293 -0.8634
 5251TIP3    H237245   0.176   4.580  12.401  1.1010  1.1403  0.6779
 5252TIP3   OH237246   5.050   1.006   4.518  0.4210 -0.4438 -0.2848
 5252TIP3    H137247   5.096   1.037   4.440  2.8971 -0.8463  0.9140
 5252TIP3    H237248   5.118   1.001   4.586 -1.3302 -1.5344  1.5062
 5253TIP3   OH237249   2.256   3.847  15.899 -0.8211 -0.1053  0.2020
 5253TIP3    H137250   2.312   3.787  15.948  0.1225  1.6352  1.3876
 5253TIP3    H237251   2.298   3.857  15.814 -0.4695 -0.4262  0.3372
 5254TIP3   OH237252   4.474   3.638   2.507 -0.1553  0.0924 -0.9648
 5254TIP3    H137253   4.434   3.632   2.594  1.8218 -2.4027 -0.0851
 5254TIP3    H237254   4.412   3.594   2.449 -0.6551  0.0998 -0.4471
 5255TIP3   OH237255   5.164   0.555  14.500 -0.1085  0.0554  0.1393
 5255TIP3    H137256   5.097   0.556  14.432  0.5803  2.2944 -0.5756
 5255TIP3    H237257   5.124   0.600  14.574 -0.8101 -2.2635  1.2951
 5256TIP3   OH237258   5.304   0.183  16.949 -0.2671  0.3745 -0.3106
 5256TIP3    H137259   5.243   0.200  16.878 -0.9034 -0.8544 -0.0865
 5256TIP3    H237260   5.332   0.092  16.936  2.0884  1.0975 -0.8113
 5257TIP3   OH237261   5.486   6.019  11.936 -0.2761  0.0493 -0.1850
 5257TIP3    H137262   5.417   6.072  11.895 -0.0372 -0.4267 -1.2391
 5257TIP3    H237263   5.440   5.965  12.000 -0.8194  0.0868 -0.5385
 5258TIP3   OH237264   3.287   1.355  12.159 -0.1818 -0.0892  0.1012
 5258TIP3    H137265   3.232   1.420  12.203 -0.5820 -0.5577  0.3035
 5258TIP3    H237266   3.265   1.272  12.202 -0.6636 -0.5797 -1.0527
 5259TIP3   OH237267   3.463   2.007   1.859  0.7417  0.8201  0.3549
 5259TIP3    H137268   3.432   2.083   1.809  0.7759  1.3801  1.1653
 5259TIP3    H237269   3.557   2.004   1.841  0.4792 -0.0423 -0.9953
 5260TIP3   OH237270   5.988   3.589  15.740 -0.1726  0.5956  0.9499
 5260TIP3    H137271   5.946   3.512  15.701 -1.6071  1.5340  0.5944
 5260TIP3    H237272   6.073   3.595  15.695  0.2294 -1.1146  1.4190
 5261TIP3   OH237273   5.525   2.309   0.407  0.2647 -0.0170 -0.1640
 5261TIP3    H137274   5.541   2.402   0.423 -0.5757  0.0641  0.2718
 5261TIP3    H237275   5.433   2.297   0.430  1.1133 -1.6274  3.0918
 5262TIP3   OH237276   1.774   0.229   6.071 -0.1463  0.3467  0.1678
 5262TIP3    H137277   1.815   0.270   5.995 -0.3096  0.9858  0.4217
 5262TIP3    H237278   1.785   0.292   6.142 -0.7481  0.1219  0.4693
 5263TIP3   OH237279   3.008   5.841   4.933 -0.4161  0.1193  0.1163
 5263TIP3    H137280   2.947   5.915   4.925 -2.1762 -1.1727  0.8157
 5263TIP3    H237281   3.000   5.796   4.848 -0.5474 -0.1204  0.2552
 5264TIP3   OH237282   3.159   0.704   3.033  0.0139 -0.8382 -0.6704
 5264TIP3    H137283   3.181   0.795   3.014  0.1622 -1.1188 -1.8849
 5264TIP3    H237284   3.074   0.708   3.077 -0.3785 -0.1811 -1.4772
 5265TIP3   OH237285   5.749   2.782  16.583 -0.3655 -0.1991 -0.1110
 5265TIP3    H137286   5.764   2.730  16.662 -1.4999 -0.2240  0.1047
 5265TIP3    H237287   5.682   2.734  16.535 -0.2890  0.2530 -0.6795
 5266TIP3   OH237288   3.959   6.347  10.764 -0.0865 -0.5867 -0.0528
 5266TIP3    H137289   3.976   6.359  10.857 -1.1859 -1.8292  0.3481
 5266TIP3    H237290   3.916   6.428  10.737 -0.2936 -0.4429  0.6758
 5267TIP3   OH237291   3.711   3.536   5.620 -0.2156 -0.5524  0.1643
 5267TIP3    H137292   3.638   3.587   5.653  0.0291 -0.1366  0.0694
 5267TIP3    H237293   3.789   3.578   5.656  0.1601  0.8007 -2.0324
 5268TIP3   OH237294   3.149   3.897  13.693 -0.0307 -0.3088 -0.4337
 5268TIP3    H137295   3.155   3.914  13.787 -1.1100  0.6493 -0.5204
 5268TIP3    H237296   3.119   3.979  13.655 -0.1699 -0.8567 -1.5547
 5269TIP3   OH237297   3.263   4.653  14.241 -0.1797  0.0483  0.6074
 5269TIP3    H137298   3.300   4.655  14.330  0.1240 -1.6154  0.5509
 5269TIP3    H237299   3.339   4.639  14.184 -0.5211 -0.0993  0.1864
 5270TIP3   OH237300   6.392   5.093  12.586  0.1943 -0.2278 -0.4279
 5270TIP3    H137301   6.376   5.182  12.556  0.3799  0.4295  1.2817
 5270TIP3    H237302   6.393   5.100  12.682  0.7393 -1.9730 -0.2678
 5271TIP3   OH237303   2.031   2.165  13.151 -0.3379 -0.4057 -0.0176
 5271TIP3    H137304   2.109   2.119  13.182 -0.9406 -0.6860  1.1193
 5271TIP3    H237305   2.034   2.249  13.197 -1.0902 -0.7098  0.5966
 5272TIP3   OH237306   1.564   5.882  16.897  0.7127 -0.1942 -0.0233
 5272TIP3    H137307   1.563   5.822  16.971  0.8042 -0.2928 -0.1026
 5272TIP3    H237308   1.578   5.827  16.820 -0.5855 -0.2327 -0.2523
 5273TIP3   OH237309   3.963   3.025   5.718 -0.0631  0.2512  0.6627
 5273TIP3    H137310   4.043   3.001   5.670 -0.2768  0.4222  0.2189
 5273TIP3    H237311   3.918   3.086   5.660 -0.7888 -0.2708  0.6740
 5274TIP3   OH237312   0.070   2.133   2.465 -0.1937  0.1985  0.4677
 5274TIP3    H137313   0.025   2.148   2.383  0.3869 -1.2977 -0.1705
 5274TIP3    H237314   0.156   2.174   2.454  0.2554 -0.8375 -0.0934
 5275TIP3   OH237315   0.038   5.570   5.525  0.4944  0.3075  0.4929
 5275TIP3    H137316   0.105   5.581   5.592  3.5864 -0.9077 -2.1389
 5275TIP3    H237317   0.057   5.638   5.460 -1.1768  0.2388 -0.1280
 5276TIP3   OH237318   6.520   6.147   3.442 -0.0016 -0.0749 -0.1438
 5276TIP3    H137319   6.605   6.135   3.482  0.8474  0.5445 -1.6720
 5276TIP3    H237320   6.489   6.231   3.475 -0.4284 -0.6932  1.0750
 5277TIP3   OH237321   3.270   1.737   2.813  0.2951  0.0392  0.0728
 5277TIP3    H137322   3.224   1.653   2.813  0.4378 -0.0405  0.3973
 5277TIP3    H237323   3.206   1.800   2.781  0.0004 -0.0924  0.3961
 5278TIP3   OH237324   1.149   2.648   2.056  0.2568 -0.0514  0.7650
 5278TIP3    H137325   1.089   2.676   1.987  1.4180  2.4912  0.7066
 5278TIP3    H237326   1.235   2.647   2.014  1.2290  3.0155  2.4242
 5279TIP3   OH237327   4.014   2.758   0.472 -0.1722  0.0173 -0.0148
 5279TIP3    H137328   4.015   2.815   0.395  1.6662 -0.5423 -0.4612
 5279TIP3    H237329   4.036   2.816   0.545  1.4185 -0.0273 -0.4263
 5280TIP3   OH237330   6.112   2.715   4.860 -0.2116  0.0288 -0.4875
 5280TIP3    H137331   6.136   2.705   4.767  0.5299 -0.0386 -0.2957
 5280TIP3    H237332   6.179   2.774   4.895 -1.7485  1.8647 -0.4835
 5281TIP3   OH237333   4.593   2.954  14.941  0.3934  0.3318  0.0907
 5281TIP3    H137334   4.687   2.962  14.957  0.0850 -0.3816  2.7674
 5281TIP3    H237335   4.570   2.869  14.979 -1.2135  0.0877 -1.3052
 5282TIP3   OH237336   5.177   4.625  11.897  0.1145 -0.3216  0.1444
 5282TIP3    H137337   5.237   4.699  11.908  0.2037 -0.2039 -1.0003
 5282TIP3    H237338   5.219   4.554  11.946  1.5202 -0.4085 -1.1169
 5283TIP3   OH237339   3.980   1.025  15.357  0.3091 -0.0053  0.1455
 5283TIP3    H137340   3.919   0.953  15.339 -2.8697  2.0536  1.8656
 5283TIP3    H237341   3.983   1.032  15.452 -0.0280  2.5193  0.0352
 5284TIP3   OH237342   1.979   3.640   0.097  0.1765  0.2230  0.1651
 5284TIP3    H137343   1.940   3.566   0.143 -3.0637  0.1554 -2.2943
 5284TIP3    H237344   2.048   3.601   0.043 -1.3337 -1.1097 -0.9276
 5285TIP3   OH237345   3.773   4.019   1.836 -0.4243 -0.4907 -0.2509
 5285TIP3    H137346   3.831   3.971   1.776 -2.1069  0.6736 -3.0153
 5285TIP3    H237347   3.833   4.065   1.896  1.4867 -0.3096 -2.1667
 5286TIP3   OH237348   0.262   5.288  11.945 -0.0511 -0.4649  0.5648
 5286TIP3    H137349   0.327   5.342  11.901  0.0124 -0.7521  0.3072
 5286TIP3    H237350   0.184   5.344  11.950 -0.8562 -1.2218 -2.0784
 5287TIP3   OH237351   0.963   0.952  16.325 -0.8900  0.3763  0.4100
 5287TIP3    H137352   0.972   0.981  16.234  1.7679 -0.0832  0.4447
 5287TIP3    H237353   0.897   0.883  16.322  0.7405 -1.2171 -1.6261
 5288TIP3   OH237354   2.142   0.541  11.486  0.0386 -0.5302 -0.2240
 5288TIP3    H137355   2.052   0.551  11.455 -1.0372  2.3214  3.1456
 5288TIP3    H237356   2.184   0.625  11.468  0.3414  0.0651  2.6774
 5289TIP3   OH237357   2.665   4.103  15.493  0.1483  0.2849  0.5904
 5289TIP3    H137358   2.723   4.039  15.536  2.7102  2.0500  0.0300
 5289TIP3    H237359   2.635   4.058  15.414  0.9143 -0.6647  0.8085
 5290TIP3   OH237360   4.484   5.555   3.882  0.2581 -0.7393 -0.1948
 5290TIP3    H137361   4.455   5.486   3.942  0.3779 -1.6179 -1.1127
 5290TIP3    H237362   4.404   5.584   3.838  0.2674 -0.6248 -0.1342
 5291TIP3   OH237363   1.406   0.597   0.286 -0.0504 -0.3551  0.0040
 5291TIP3    H137364   1.360   0.547   0.218  0.7885 -0.8086 -0.2569
 5291TIP3    H237365   1.357   0.679   0.293 -1.3612 -1.1378  0.3255
 5292TIP3   OH237366   6.578   5.875  13.402  0.1276  0.0115  1.2821
 5292TIP3    H137367   6.667   5.881  13.436  1.2747 -0.8827 -1.2923
 5292TIP3    H237368   6.553   5.966  13.385  0.9338  0.2251  1.1840
 5293TIP3   OH237369   4.232   1.818  11.501  0.0140  0.4156  0.2134
 5293TIP3    H137370   4.163   1.764  11.541  0.8281 -0.3133  0.6696
 5293TIP3    H237371   4.289   1.755  11.457  0.4062  1.0117 -0.1368
 5294TIP3   OH237372   5.565   3.304   3.637  0.2080 -0.2473  0.0071
 5294TIP3    H137373   5.653   3.317   3.671  0.2001 -3.3171  1.5865
 5294TIP3    H237374   5.566   3.215   3.602 -1.8331  0.2536 -1.5267
 5295TIP3   OH237375   4.780   5.469   6.077 -0.0858 -0.0686  0.3340
 5295TIP3    H137376   4.703   5.452   6.131  0.0118 -0.1550  0.4471
 5295TIP3    H237377   4.854   5.464   6.138 -0.1331  1.8804  0.6192
 5296TIP3   OH237378   2.917   0.562   1.447  0.3927 -0.9413  0.5016
 5296TIP3    H137379   2.846   0.534   1.390  0.9724 -0.1966 -0.6342
 5296TIP3    H237380   2.906   0.657   1.455  1.8520 -0.6406 -0.5961
 5297TIP3   OH237381   3.440   1.242  12.925 -0.1257  0.3216 -0.0983
 5297TIP3    H137382   3.527   1.246  12.885  0.8460  0.5347  1.9084
 5297TIP3    H237383   3.382   1.215  12.854  1.3839  1.2787 -1.7654
 5298TIP3   OH237384   0.838   4.357  16.371  0.3417 -0.0042  0.3115
 5298TIP3    H137385   0.919   4.323  16.409 -1.3015 -5.4630 -0.2081
 5298TIP3    H237386   0.783   4.377  16.447  1.3303  1.6743  0.6420
 5299TIP3   OH237387   2.444   0.958   2.852  0.2297  0.0323 -0.1563
 5299TIP3    H137388   2.453   1.014   2.930  0.4975  0.6735 -0.6427
 5299TIP3    H237389   2.483   0.875   2.878  1.6335  0.6947 -0.0705
 5300TIP3   OH237390   5.598   1.447   5.161  0.0200 -0.5832  0.3544
 5300TIP3    H137391   5.640   1.445   5.247 -0.3714 -3.2844  0.5655
 5300TIP3    H237392   5.633   1.371   5.116  2.0435  1.9733 -2.8865
 5301TIP3   OH237393   1.706   6.003   0.283  0.5740 -0.1543  0.3042
 5301TIP3    H137394   1.785   5.957   0.310  0.7142  0.4816  1.0194
 5301TIP3    H237395   1.683   5.965   0.198  0.5345 -1.7057  0.9841
 5302TIP3   OH237396   1.935   5.920   2.157 -0.0550  0.0284  0.6400
 5302TIP3    H137397   1.939   5.981   2.084  0.2506 -0.9236 -0.1585
 5302TIP3    H237398   2.022   5.924   2.197 -0.2605  0.6407  1.0434
 5303TIP3   OH237399   3.364   4.917   3.313  0.1322  0.4978  0.2909
 5303TIP3    H137400   3.307   4.914   3.236 -0.2883 -0.0475  0.6150
 5303TIP3    H237401   3.305   4.939   3.386  0.5964  1.4468  0.4013
 5304TIP3   OH237402   3.920   6.268  11.383  0.6378  0.2866  0.9264
 5304TIP3    H137403   3.869   6.191  11.362  0.0601  0.7791  0.4882
 5304TIP3    H237404   3.994   6.235  11.433  0.4092 -0.5476  0.7259
 5305TIP3   OH237405   0.740   6.569  12.882 -0.1113 -0.3485 -0.3649
 5305TIP3    H137406   0.828   6.582  12.916  0.3967 -0.2681 -1.6711
 5305TIP3    H237407   0.726   6.641  12.821  0.0445 -1.9318 -2.3517
 5306TIP3   OH237408   0.076   3.496   0.302 -1.0199  0.1189 -0.2832
 5306TIP3    H137409   0.106   3.475   0.213 -1.9251  0.4854 -0.6781
 5306TIP3    H237410  -0.019   3.495   0.297 -1.0875  1.5836  0.3416
 5307TIP3   OH237411   0.679   5.492   5.957  0.3323 -0.7435  0.5496
 5307TIP3    H137412   0.748   5.506   6.022 -0.6282  0.8338  1.2865
 5307TIP3    H237413   0.626   5.572   5.961  0.5790 -0.2844 -2.6071
 5308TIP3   OH237414   6.691   6.367   6.274  0.2868  0.2926 -0.3790
 5308TIP3    H137415   6.648   6.290   6.311  0.0411  1.4439  1.8769
 5308TIP3    H237416   6.783   6.342   6.268  0.4911  0.3079  1.8994
 5309TIP3   OH237417   5.571   1.264  13.660 -0.7223 -0.0313  0.4643
 5309TIP3    H137418   5.543   1.354  13.642  2.6873  0.8363 -1.1977
 5309TIP3    H237419   5.612   1.268  13.746 -3.3786 -0.8508  1.9075
 5310TIP3   OH237420   0.877   1.458  15.531 -0.1802 -0.3168  0.1387
 5310TIP3    H137421   0.827   1.502  15.600  1.4345 -0.0890  1.2133
 5310TIP3    H237422   0.810   1.422  15.472 -1.5669  2.2343  0.0301
 5311TIP3   OH237423   1.346   1.490  13.632  0.2081 -0.3100 -0.6013
 5311TIP3    H137424   1.402   1.509  13.557  3.1566 -1.0761  1.2566
 5311TIP3    H237425   1.317   1.576  13.662  1.6268  0.2488 -0.7622
 5312TIP3   OH237426   1.372   1.049   1.074  0.3240  0.5196  0.3342
 5312TIP3    H137427   1.403   0.966   1.037  1.7715  1.1439  0.0857
 5312TIP3    H237428   1.312   1.023   1.144  0.1952 -0.7226 -0.2116
 5313TIP3   OH237429   0.843   4.843  12.886 -0.8328  0.5145  0.0463
 5313TIP3    H137430   0.795   4.925  12.892 -1.5667  0.2241 -1.4287
 5313TIP3    H237431   0.935   4.869  12.876 -1.0061  1.1365  0.0368
 5314TIP3   OH237432   3.470   4.675   0.942  0.1246  0.5773 -0.0650
 5314TIP3    H137433   3.482   4.598   0.997  1.5488  0.4330 -0.5464
 5314TIP3    H237434   3.378   4.698   0.954 -0.0107 -0.4314  1.0730
 5315TIP3   OH237435   4.356   0.899  11.753  0.5645  0.0605 -0.8881
 5315TIP3    H137436   4.368   0.993  11.759  0.0511  0.0650  0.4186
 5315TIP3    H237437   4.438   0.862  11.786 -0.1369  0.0828  1.0034
 5316TIP3   OH237438   5.995   5.801   4.664 -0.2250  0.0494  0.5487
 5316TIP3    H137439   5.960   5.768   4.746  0.2848 -3.4475 -0.4599
 5316TIP3    H237440   5.925   5.787   4.600  0.2193  0.4652 -0.0453
 5317TIP3   OH237441   2.993   0.059   1.945  0.4350  0.1763 -0.1999
 5317TIP3    H137442   3.058   0.032   1.880  1.5275  3.1090 -0.4849
 5317TIP3    H237443   2.956   0.140   1.910 -1.0519  0.3099  1.5093
 5318TIP3   OH237444   3.867   3.991  14.027  0.7979 -0.6453 -0.1680
 5318TIP3    H137445   3.851   4.044  13.949 -0.7485 -0.2083  0.4123
 5318TIP3    H237446   3.790   3.934  14.034  1.1645 -1.0578  0.7420
 5319TIP3   OH237447   2.670   1.005  17.121 -0.4343  0.3053 -0.1661
 5319TIP3    H137448   2.653   0.972  17.033 -1.6088  0.6609 -0.0790
 5319TIP3    H237449   2.764   0.992  17.133 -0.8631 -4.0339  0.2308
 5320TIP3   OH237450   6.659   2.455  14.239 -0.4118  0.2046  0.5049
 5320TIP3    H137451   6.738   2.419  14.198  0.9019  1.6022  1.6703
 5320TIP3    H237452   6.618   2.507  14.170  1.4288  2.0087  0.6295
 5321TIP3   OH237453   2.885   2.744  12.843  0.1057 -0.6343  0.5789
 5321TIP3    H137454   2.949   2.787  12.787 -2.4694 -0.0195 -2.1751
 5321TIP3    H237455   2.871   2.805  12.916  1.0882  0.1745  0.1114
 5322TIP3   OH237456   1.851   1.178  12.514  0.5244  0.1287 -0.2553
 5322TIP3    H137457   1.879   1.217  12.431  1.4355 -0.0159 -0.0215
 5322TIP3    H237458   1.755   1.181  12.511  0.5189 -0.7428 -1.7296
 5323TIP3   OH237459   6.677   6.778  16.683  0.2111  0.2734  0.2786
 5323TIP3    H137460   6.586   6.751  16.696 -0.5627  1.9700 -1.1441
 5323TIP3    H237461   6.708   6.800  16.771 -1.4986  1.7066  0.6013
 5324TIP3   OH237462   1.958   5.704   1.628  0.6603  0.3992  0.1382
 5324TIP3    H137463   2.021   5.739   1.565 -0.9289  1.6425 -0.8106
 5324TIP3    H237464   1.941   5.777   1.688 -1.2675  0.7253 -0.7423
 5325TIP3   OH237465   6.418   5.619  15.911 -0.3529  0.3882 -0.1348
 5325TIP3    H137466   6.497   5.570  15.887  0.5026  2.1322 -1.1154
 5325TIP3    H237467   6.409   5.605  16.006  0.6587 -0.4956 -0.1502
 5326TIP3   OH237468   2.835   5.367  15.824  0.5543 -0.3135  0.4413
 5326TIP3    H137469   2.926   5.367  15.855  0.8909  4.0515  0.0334
 5326TIP3    H237470   2.842   5.354  15.730  0.6692 -0.8719  0.5257
 5327TIP3   OH237471   4.668   3.164   0.156 -0.3509 -0.2857  0.3522
 5327TIP3    H137472   4.688   3.211   0.237  0.0709  1.6527 -0.8088
 5327TIP3    H237473   4.574   3.148   0.161 -0.3248 -0.2529  1.2296
 5328TIP3   OH237474   1.310   0.624   6.339  0.0630 -1.1101 -0.1272
 5328TIP3    H137475   1.236   0.640   6.398 -0.7228 -0.6140 -1.2256
 5328TIP3    H237476   1.387   0.646   6.391 -0.6088 -0.7007  0.7213
 5329TIP3   OH237477   4.193   2.756   2.394 -0.5205 -0.2060  0.5455
 5329TIP3    H137478   4.209   2.678   2.447 -0.6899 -0.7072 -0.1294
 5329TIP3    H237479   4.278   2.778   2.357 -0.6592 -0.7034 -0.1012
 5330TIP3   OH237480   3.000   2.020  13.847 -0.3383  0.7147  0.0824
 5330TIP3    H137481   3.007   2.087  13.778  0.6312  0.8833  0.3300
 5330TIP3    H237482   3.044   2.059  13.922 -0.5357  0.1339  0.5053
 5331TIP3   OH237483   3.380   6.279   1.560  0.4066 -0.0642 -0.0949
 5331TIP3    H137484   3.405   6.242   1.476  1.4321  0.0346  0.1573
 5331TIP3    H237485   3.366   6.202   1.616  0.1544 -0.1173 -0.2269
 5332TIP3   OH237486   3.741   3.132  12.229 -0.2426  0.0616  0.6117
 5332TIP3    H137487   3.731   3.225  12.207 -1.1001 -0.3992 -1.0902
 5332TIP3    H237488   3.737   3.087  12.145  0.8824 -1.4796  1.3492
 5333TIP3   OH237489   0.986   6.293  13.735 -0.3806 -0.1861  0.1444
 5333TIP3    H137490   1.072   6.292  13.778  0.0164 -0.8470 -0.6226
 5333TIP3    H237491   0.997   6.236  13.658 -1.3219  0.2379 -0.3280
 5334TIP3   OH237492   3.350   3.906   3.477  0.1803 -0.1428 -0.1275
 5334TIP3    H137493   3.367   3.985   3.529  0.3078 -0.1573 -0.1471
 5334TIP3    H237494   3.422   3.847   3.499  0.4987  0.0367 -0.6873
 5335TIP3   OH237495   5.527   3.806  11.611  0.1969  0.4684  0.1913
 5335TIP3    H137496   5.613   3.844  11.625  0.8449 -0.9403  0.2295
 5335TIP3    H237497   5.537   3.714  11.635 -1.3212  0.2683  0.1952
 5336TIP3   OH237498   0.652   4.243   0.096 -0.1574 -0.0247  0.1375
 5336TIP3    H137499   0.557   4.245   0.087 -0.4938 -2.7775  1.9361
 5336TIP3    H237500   0.669   4.169   0.154  3.0115  1.3549  1.1795
 5337TIP3   OH237501   0.314   2.091  13.645  0.2458 -0.1063  0.2056
 5337TIP3    H137502   0.220   2.083  13.625 -0.1010  2.1511  0.6864
 5337TIP3    H237503   0.357   2.036  13.579 -1.4023 -1.4687  0.1864
 5338TIP3   OH237504   4.927   2.525   0.551 -0.2543 -0.0766  0.4898
 5338TIP3    H137505   4.906   2.615   0.575 -0.8187  0.2902 -1.1851
 5338TIP3    H237506   5.001   2.501   0.606  1.4479  2.2542 -0.6252
 5339TIP3   OH237507   0.911   5.785  16.361 -0.1453 -0.0751 -0.3095
 5339TIP3    H137508   0.985   5.728  16.340  0.3688  0.4801 -0.0230
 5339TIP3    H237509   0.885   5.823  16.278  0.6147  0.5932 -0.2494
 5340TIP3   OH237510   1.804   2.797  14.273 -0.0512 -0.0245  0.3049
 5340TIP3    H137511   1.786   2.833  14.360  0.8569  0.1667  0.4343
 5340TIP3    H237512   1.877   2.736  14.287 -0.5515 -0.7505 -0.1694
 5341TIP3   OH237513   0.260   2.811   0.207  0.6392  0.2900 -0.1587
 5341TIP3    H137514   0.186   2.778   0.157 -1.5051  2.2991  1.5019
 5341TIP3    H237515   0.262   2.758   0.286  1.8904 -0.6365 -0.7685
 5342TIP3   OH237516   5.054   0.139  13.271 -0.8686 -0.3914 -0.0432
 5342TIP3    H137517   5.011   0.152  13.186 -0.1585 -1.3872 -0.5786
 5342TIP3    H237518   5.040   0.221  13.318 -0.9638  0.3137 -1.2622
 5343TIP3   OH237519   1.453   0.268   6.290 -0.0046  0.2504  0.1833
 5343TIP3    H137520   1.435   0.308   6.376 -0.5968 -0.5063  0.4195
 5343TIP3    H237521   1.542   0.235   6.298  0.3231  1.0889  0.1452
 5344TIP3   OH237522   3.177   4.501  13.817  0.6235  0.4167 -0.6217
 5344TIP3    H137523   3.133   4.532  13.896  1.6652  0.3567 -0.0010
 5344TIP3    H237524   3.138   4.415  13.800  0.0599  0.6362 -0.4557
 5345TIP3   OH237525   1.927   5.761  13.250 -0.0927  0.8140 -0.1768
 5345TIP3    H137526   1.910   5.670  13.225  0.7486  0.7872 -0.6695
 5345TIP3    H237527   2.008   5.784  13.205  0.6668  1.2514  1.3567
 5346TIP3   OH237528   2.932   1.615  16.053 -0.1848 -0.1703  0.1732
 5346TIP3    H137529   2.880   1.598  16.131  0.7778 -1.9024  0.4676
 5346TIP3    H237530   2.893   1.560  15.985 -0.6479  0.8848 -0.4566
 5347TIP3   OH237531   6.007   4.795  13.454  0.3153  0.8679  0.5132
 5347TIP3    H137532   6.011   4.805  13.359 -0.4217 -2.7902 -0.0365
 5347TIP3    H237533   6.095   4.816  13.484  1.0908  0.2893 -1.2222
 5348TIP3   OH237534   0.707   3.114   4.699 -0.3020 -0.9576 -0.2414
 5348TIP3    H137535   0.689   3.204   4.726  0.0220 -0.8385 -0.4149
 5348TIP3    H237536   0.777   3.085   4.757  0.3533 -0.7216 -0.9052
 5349TIP3   OH237537   0.553   0.034  16.773 -0.5960  0.5259  0.0480
 5349TIP3    H137538   0.525   0.120  16.744  0.8961  1.1858  0.4484
 5349TIP3    H237539   0.620   0.052  16.839 -0.3183 -0.9410  0.2015
 5350TIP3   OH237540   1.249   5.863  12.773 -0.1589  0.0491 -0.1170
 5350TIP3    H137541   1.169   5.897  12.814 -1.1591  0.1703 -2.0337
 5350TIP3    H237542   1.312   5.934  12.781 -0.5136  0.2940  0.6317
 5351TIP3   OH237543   1.750   1.312   3.637 -0.0477  0.3881 -0.3902
 5351TIP3    H137544   1.688   1.245   3.609  0.3223 -0.0549 -0.1643
 5351TIP3    H237545   1.794   1.339   3.556  1.4654 -1.3458 -0.2134
 5352TIP3   OH237546   5.398   2.081   3.893  0.5211 -0.8405 -0.0517
 5352TIP3    H137547   5.473   2.022   3.902  1.5624  0.2168 -1.4390
 5352TIP3    H237548   5.326   2.024   3.868  1.2499 -1.6654 -0.3227
 5353TIP3   OH237549   0.546   6.769   4.543 -0.6427 -0.6342 -0.1888
 5353TIP3    H137550   0.471   6.817   4.509 -0.4703 -0.8732 -0.9162
 5353TIP3    H237551   0.576   6.715   4.470  0.6555 -0.0451 -0.1347
 5354TIP3   OH237552   3.699   4.423  14.934  0.0246 -0.0634  0.4690
 5354TIP3    H137553   3.650   4.370  14.997  0.2671  1.1407  1.7283
 5354TIP3    H237554   3.681   4.513  14.960  0.8405  0.4473 -0.6615
 5355TIP3   OH237555   1.017   6.733  13.788 -0.0530 -0.0101 -0.1340
 5355TIP3    H137556   0.954   6.798  13.820 -2.2411 -2.0979  0.1003
 5355TIP3    H237557   1.007   6.659  13.847  3.8517  0.0245  0.8690
 5356TIP3   OH237558   3.207   3.397  15.104  0.0961 -0.2040  0.8617
 5356TIP3    H137559   3.205   3.307  15.073 -0.5198 -0.4516  1.5596
 5356TIP3    H237560   3.167   3.392  15.191  0.8674  0.6057  1.2695
 5357TIP3   OH237561   2.249   3.090  16.879  0.3834  0.1316  0.2037
 5357TIP3    H137562   2.252   3.174  16.832 -0.2165  0.1163  0.1277
 5357TIP3    H237563   2.191   3.107  16.954 -2.9959 -1.1886 -1.8733
 5358TIP3   OH237564   1.711   4.018  15.942  0.0088 -0.5765 -0.0353
 5358TIP3    H137565   1.634   4.060  15.980  0.5435  1.4585 -1.0618
 5358TIP3    H237566   1.684   3.994  15.853 -0.0321 -1.7289  0.2695
 5359TIP3   OH237567   4.467   2.917  15.854 -0.3733 -0.2189 -0.5873
 5359TIP3    H137568   4.385   2.958  15.880 -0.1290  0.0026 -0.1713
 5359TIP3    H237569   4.511   2.896  15.936  1.2532  2.1802 -0.7613
 5360TIP3   OH237570   6.616   3.503  12.238 -0.2171 -0.3336  0.5983
 5360TIP3    H137571   6.678   3.481  12.308 -1.3242 -1.2922  1.3292
 5360TIP3    H237572   6.602   3.597  12.246  0.8844 -0.1584  0.6235
 5361TIP3   OH237573   0.544   0.450  15.946  0.6271 -0.1135  0.1667
 5361TIP3    H137574   0.513   0.523  15.893  2.4350  0.0189 -0.8046
 5361TIP3    H237575   0.593   0.491  16.017 -0.1838 -0.3531  0.8856
 5362TIP3   OH237576   0.525   0.394  14.095  0.0020 -0.1331  0.0304
 5362TIP3    H137577   0.460   0.414  14.027  0.7127  0.8191 -0.3911
 5362TIP3    H237578   0.609   0.417  14.055  0.6008 -1.2580  0.6035
 5363TIP3   OH237579   3.117   5.209   5.595  0.3833  0.6687 -0.2067
 5363TIP3    H137580   3.185   5.144   5.613  0.9243  1.2398 -0.1761
 5363TIP3    H237581   3.106   5.256   5.677  0.8593  1.4122 -0.5574
 5364TIP3   OH237582   5.169   3.726  17.092  0.1084 -0.0435  0.0482
 5364TIP3    H137583   5.228   3.650  17.096  0.4542  0.2224 -0.0028
 5364TIP3    H237584   5.141   3.739  17.182 -3.2801 -2.8197 -0.4040
 5365TIP3   OH237585   5.618   1.878  16.665  0.0075 -0.5494  0.3125
 5365TIP3    H137586   5.542   1.898  16.610 -0.5607  0.4378  1.3937
 5365TIP3    H237587   5.692   1.917  16.618  0.0434 -2.3550 -1.2357
 5366TIP3   OH237588   3.307   3.662   4.202 -0.4621 -0.0042 -0.1830
 5366TIP3    H137589   3.287   3.571   4.222  0.3264 -0.3970 -1.0946
 5366TIP3    H237590   3.257   3.712   4.266 -0.7481 -1.0781  0.4600
 5367TIP3   OH237591   1.299   2.284   5.910  0.4732  0.5418  0.0285
 5367TIP3    H137592   1.380   2.266   5.862  1.6636  2.9125  0.9831
 5367TIP3    H237593   1.286   2.379   5.901 -1.9154  0.3053  0.3789
 5368TIP3   OH237594   3.760   3.742   1.870  0.1383 -0.2436 -0.0570
 5368TIP3    H137595   3.855   3.741   1.861  0.1710  0.4208  0.1998
 5368TIP3    H237596   3.735   3.834   1.862 -0.5738 -0.4992 -1.0052
 5369TIP3   OH237597   1.563   0.094  16.720  0.0276 -1.0205  0.0536
 5369TIP3    H137598   1.630   0.147  16.676  1.3611 -1.6366  1.2452
 5369TIP3    H237599   1.485   0.103  16.665  1.0554 -0.2088 -1.3435
 5370TIP3   OH237600   1.117   1.494   0.643  0.4107 -0.0221 -0.4099
 5370TIP3    H137601   1.023   1.494   0.621  0.1993  0.3046  0.4216
 5370TIP3    H237602   1.158   1.541   0.571 -0.3603  1.7742  0.2633
 5371TIP3   OH237603   6.574   2.907  13.430  0.2878  0.5143  0.3006
 5371TIP3    H137604   6.577   2.929  13.524  0.0149  0.0544  0.4199
 5371TIP3    H237605   6.584   2.991  13.386  2.6947  0.5294  0.7061
 5372TIP3   OH237606   1.337   6.189  15.099 -0.0339  0.0699 -1.0600
 5372TIP3    H137607   1.410   6.244  15.129  1.0187 -0.5752 -2.3710
 5372TIP3    H237608   1.288   6.245  15.039 -1.1302  0.7675  0.4015
 5373TIP3   OH237609   3.552   2.928   2.831 -0.1252  0.5840 -0.3618
 5373TIP3    H137610   3.484   2.986   2.864 -1.4172 -0.5339 -0.9453
 5373TIP3    H237611   3.512   2.841   2.832  0.7979  0.0953 -2.0341
 5374TIP3   OH237612   4.099   5.233  14.269  0.0996 -0.3646 -0.0760
 5374TIP3    H137613   4.157   5.251  14.195  0.3080  1.1687  0.4209
 5374TIP3    H237614   4.011   5.234  14.232  0.2070  0.3496 -0.3270
 5375TIP3   OH237615   3.884   1.359  15.560 -0.5745 -0.0499  0.0565
 5375TIP3    H137616   3.876   1.437  15.505 -1.7845 -0.2104 -0.0035
 5375TIP3    H237617   3.828   1.293  15.519 -0.4649 -0.5887  0.7435
 5376TIP3   OH237618   5.196   1.919   2.345 -0.5237 -0.0331  1.0397
 5376TIP3    H137619   5.101   1.912   2.346 -1.0654  3.4583 -2.4868
 5376TIP3    H237620   5.225   1.853   2.282 -0.9266  0.6574  0.1215
 5377TIP3   OH237621   1.452   3.746   0.318 -0.1557 -0.3323 -0.4768
 5377TIP3    H137622   1.535   3.721   0.277 -0.1905  1.4030 -1.7670
 5377TIP3    H237623   1.387   3.690   0.276  0.3526 -1.9116  0.7585
 5378TIP3   OH237624   3.579   1.232  12.679  0.7746 -0.1265  0.8725
 5378TIP3    H137625   3.671   1.215  12.659  0.0758 -2.9700 -0.4579
 5378TIP3    H237626   3.544   1.271  12.599  0.4387 -0.7131  0.7338
 5379TIP3   OH237627   0.959   1.281   3.452  0.6682  0.7760 -0.1358
 5379TIP3    H137628   0.934   1.210   3.394  1.2301  1.5788 -1.4022
 5379TIP3    H237629   0.922   1.359   3.411  1.0974  1.3661  0.5763
 5380TIP3   OH237630   6.584   3.877   1.414  0.6111  0.0576 -0.2386
 5380TIP3    H137631   6.587   3.797   1.360 -1.7386 -0.3451  0.1168
 5380TIP3    H237632   6.670   3.916   1.403  1.6295 -2.2096 -0.9224
 5381TIP3   OH237633   5.072   1.697   1.139  0.2692 -0.3456 -0.0391
 5381TIP3    H137634   5.110   1.688   1.051 -1.4618 -0.0017 -0.8723
 5381TIP3    H237635   5.033   1.611   1.156  1.0781 -0.5825  0.6435
 5382TIP3   OH237636   1.465   6.084  14.425 -0.2170 -0.3835  0.0248
 5382TIP3    H137637   1.463   6.018  14.494  0.7533 -0.2577  0.1863
 5382TIP3    H237638   1.505   6.161  14.467  0.2681 -0.2655 -0.6429
 5383TIP3   OH237639   6.837   0.089   4.853 -0.3689  0.3842 -0.1041
 5383TIP3    H137640   6.920   0.128   4.824  0.0340  0.6762  1.3414
 5383TIP3    H237641   6.857   0.052   4.939 -1.3293 -1.0355 -0.4578
 5384TIP3   OH237642   0.029   5.030   2.431 -0.5593 -0.6021 -0.1573
 5384TIP3    H137643  -0.035   4.989   2.489 -1.8622  0.7429 -0.5752
 5384TIP3    H237644  -0.012   5.028   2.345 -0.1066  0.3999 -0.4131
 5385TIP3   OH237645   0.410   0.623   2.275  0.5587  0.5234 -0.7803
 5385TIP3    H137646   0.426   0.694   2.213 -1.3330  0.8123 -1.0011
 5385TIP3    H237647   0.350   0.564   2.229 -1.1136  0.8866  0.8081
 5386TIP3   OH237648   3.384   3.651  16.654 -0.6653 -0.4590  0.4890
 5386TIP3    H137649   3.454   3.692  16.706  0.4029 -0.4801 -0.8691
 5386TIP3    H237650   3.316   3.719  16.648  0.2139  0.4102 -0.0234
 5387TIP3   OH237651   5.659   0.455   4.304 -0.2266 -1.0314  0.2713
 5387TIP3    H137652   5.592   0.509   4.344 -0.0809 -1.3944  1.0171
 5387TIP3    H237653   5.736   0.512   4.297 -0.7370 -0.4655 -1.0309
 5388TIP3   OH237654   4.650   4.436   4.895 -0.5977 -0.4055 -0.0323
 5388TIP3    H137655   4.598   4.479   4.827 -1.5160 -0.4772  0.6042
 5388TIP3    H237656   4.626   4.482   4.976  1.5683  0.6665  0.0737
 5389TIP3   OH237657   1.072   4.319   0.454 -0.2659  0.0229 -0.2895
 5389TIP3    H137658   0.977   4.318   0.464 -0.6299 -0.2158 -2.9738
 5389TIP3    H237659   1.102   4.242   0.501 -1.5320 -0.5017 -0.3094
 5390TIP3   OH237660   0.026   6.472  12.675  0.8223 -0.5701  0.0547
 5390TIP3    H137661   0.069   6.387  12.663 -0.6349 -1.2437 -0.6716
 5390TIP3    H237662   0.009   6.477  12.769  1.4514 -0.8078  0.1855
 5391TIP3   OH237663   1.971   1.007   0.906  0.1791 -0.6994  0.5261
 5391TIP3    H137664   2.015   1.092   0.902  0.4017 -0.8066 -3.9017
 5391TIP3    H237665   1.986   0.968   0.820 -2.5469 -3.9352  1.3049
 5392TIP3   OH237666   6.181   0.918   0.995 -0.0940  0.4087  0.1357
 5392TIP3    H137667   6.249   0.877   1.047  0.1438  0.6228 -0.0008
 5392TIP3    H237668   6.130   0.969   1.057  1.0789  1.8603 -0.0267
 5393TIP3   OH237669   5.341   4.288   2.819  0.2741 -0.0788  0.0493
 5393TIP3    H137670   5.252   4.297   2.852  0.2286 -2.8271  0.9789
 5393TIP3    H237671   5.391   4.353   2.868 -0.9260  0.2736  0.8700
 5394TIP3   OH237672   0.926   1.465  13.561 -0.1216 -0.0501  0.2311
 5394TIP3    H137673   0.845   1.416  13.541  0.5489 -1.1997  0.2103
 5394TIP3    H237674   0.996   1.401  13.545  0.7711  0.8218  0.6026
 5395TIP3   OH237675   5.165   4.708   1.642  0.1066  0.5229 -0.6457
 5395TIP3    H137676   5.260   4.702   1.654  0.0374  1.4686  0.5872
 5395TIP3    H237677   5.130   4.635   1.693  0.1424  0.6534 -0.4305
 5396TIP3   OH237678   5.440   6.820   6.291 -0.3797 -0.1756  0.2723
 5396TIP3    H137679   5.354   6.859   6.305 -0.2667 -0.1194  0.8337
 5396TIP3    H237680   5.499   6.895   6.285 -0.4650 -0.1787 -0.8754
 5397TIP3   OH237681   2.116   1.609   1.219  0.6728  0.3722  0.0380
 5397TIP3    H137682   2.047   1.669   1.248  0.4774 -1.0702  2.8546
 5397TIP3    H237683   2.198   1.652   1.244  0.5353 -0.4092  1.9800
 5398TIP3   OH237684   6.810   1.919  14.524 -0.0614  0.5761  0.1843
 5398TIP3    H137685   6.759   1.959  14.453  0.1753 -0.0809 -0.3758
 5398TIP3    H237686   6.746   1.866  14.572  0.1995 -0.9404 -1.0356
 5399TIP3   OH237687   5.452   0.372   4.563 -0.4243  0.1474 -0.3321
 5399TIP3    H137688   5.518   0.335   4.621 -0.8248 -1.1594 -0.6866
 5399TIP3    H237689   5.425   0.300   4.507 -1.3996  0.9192 -0.9020
 5400TIP3   OH237690   1.265   2.148  16.891 -0.2066 -0.0075 -0.5851
 5400TIP3    H137691   1.214   2.073  16.861  1.2778 -1.4233  0.2212
 5400TIP3    H237692   1.228   2.223  16.846 -0.7471 -1.4525 -2.6632
 5401TIP3   OH237693   3.814   5.263   2.699 -0.0232  0.0233 -0.1154
 5401TIP3    H137694   3.734   5.313   2.715 -0.2238 -0.3029 -0.0846
 5401TIP3    H237695   3.832   5.220   2.783  0.4162  0.4205 -0.0022
 5402TIP3   OH237696   6.113   6.573  16.004  0.0120  0.2915  0.2140
 5402TIP3    H137697   6.084   6.528  16.083  1.0653  1.9973  1.6202
 5402TIP3    H237698   6.043   6.557  15.941 -1.5215  0.0559  1.9060
 5403TIP3   OH237699   1.036   1.602   0.116  0.0531 -0.4572  0.6964
 5403TIP3    H137700   1.032   1.603   0.020 -0.9567 -0.9981  0.7124
 5403TIP3    H237701   1.048   1.694   0.141 -2.5920  0.1573  0.0983
 5404TIP3   OH237702   1.549   1.801   1.450  0.3941 -0.2045 -0.3197
 5404TIP3    H137703   1.496   1.754   1.514 -0.5290  1.2430  0.0205
 5404TIP3    H237704   1.633   1.815   1.494 -0.3920  1.2109  0.8230
 5405TIP3   OH237705   5.751   3.051  15.822 -0.4939  0.1074 -0.3648
 5405TIP3    H137706   5.799   3.030  15.742 -1.7445  0.2213 -1.1841
 5405TIP3    H237707   5.769   3.144  15.837 -0.2818  0.0946 -0.5423
 5406TIP3   OH237708   2.916   1.298   3.847 -0.2601 -0.7685  0.1171
 5406TIP3    H137709   2.959   1.363   3.902 -1.4602  0.1639 -0.0108
 5406TIP3    H237710   2.855   1.254   3.906 -0.2206 -1.0571 -0.0520
 5407TIP3   OH237711   5.371   1.086   3.116 -0.4477 -0.3576  0.4480
 5407TIP3    H137712   5.314   1.081   3.193 -2.1064  2.8865 -0.4205
 5407TIP3    H237713   5.321   1.043   3.047 -0.7436  0.2559  0.2753
 5408TIP3   OH237714   4.689   2.248  11.613  0.4471  0.3595 -0.1583
 5408TIP3    H137715   4.773   2.275  11.577  0.6042 -1.8947 -1.6351
 5408TIP3    H237716   4.711   2.192  11.688  0.2277  0.4004 -0.0611
 5409TIP3   OH237717   2.068   3.636   2.022  0.2275 -0.0615 -0.2271
 5409TIP3    H137718   2.094   3.596   1.939 -0.7305 -1.4402  0.0965
 5409TIP3    H237719   2.008   3.573   2.061 -0.2599  1.0994  0.9798
 5410TIP3   OH237720   6.174   0.255   1.573  0.2620 -0.0310 -0.2894
 5410TIP3    H137721   6.095   0.299   1.543 -0.5010 -0.7091  0.6879
 5410TIP3    H237722   6.177   0.174   1.522 -0.2523 -0.5049  0.4298
 5411TIP3   OH237723   4.985   1.058  17.003 -0.1846  0.7309  0.2257
 5411TIP3    H137724   4.993   1.153  16.997  1.3942  0.5527 -1.3265
 5411TIP3    H237725   5.074   1.025  16.991 -0.9228 -0.9895 -1.0965
 5412TIP3   OH237726   1.322   3.399   5.167 -0.4539  0.3317 -0.2451
 5412TIP3    H137727   1.254   3.379   5.232  0.7550  1.7030  1.5467
 5412TIP3    H237728   1.356   3.485   5.194  2.8930 -0.8676 -0.2035
 5413TIP3   OH237729   6.262   1.170  15.258  0.2690  0.5467 -0.6157
 5413TIP3    H137730   6.255   1.206  15.346  1.1181 -1.1823  0.2150
 5413TIP3    H237731   6.242   1.243  15.200 -3.6390  1.0129  1.0054
 5414TIP3   OH237732   1.564   3.096   3.734 -0.2577  0.0389 -0.5345
 5414TIP3    H137733   1.619   3.139   3.800  1.4962 -0.9650 -1.2481
 5414TIP3    H237734   1.583   3.145   3.653 -0.9333  0.0824 -0.6706
 5415TIP3   OH237735   5.555   4.340  12.294 -0.1106 -0.5945  0.1504
 5415TIP3    H137736   5.563   4.391  12.375  0.5777  0.9221 -0.8433
 5415TIP3    H237737   5.602   4.390  12.229  0.6700 -2.5720 -0.8835
 5416TIP3   OH237738   3.818   3.686   2.504 -0.2689 -0.4924  0.1634
 5416TIP3    H137739   3.793   3.611   2.450  0.4974 -0.7009  0.0823
 5416TIP3    H237740   3.914   3.687   2.500 -0.2816  0.7822 -0.2317
 5417TIP3   OH237741   2.544   4.073   1.341 -0.0464  0.2166 -0.3081
 5417TIP3    H137742   2.591   4.152   1.314  0.8415 -0.5058 -0.9322
 5417TIP3    H237743   2.518   4.031   1.259  0.2962 -0.6120  0.0002
 5418TIP3   OH237744   1.215   2.093  12.791 -0.0589 -0.9470  0.9951
 5418TIP3    H137745   1.270   2.077  12.868  2.7092  1.0232 -0.4114
 5418TIP3    H237746   1.208   2.008  12.748 -0.2094 -1.7214  2.4793
 5419TIP3   OH237747   1.702   0.123   0.938 -0.0225 -0.3915 -0.1597
 5419TIP3    H137748   1.648   0.198   0.915  0.3870 -0.1050 -0.1916
 5419TIP3    H237749   1.644   0.066   0.989  0.2484  0.9510  1.7548
 5420TIP3   OH237750   5.467   4.940   3.230  0.3678  0.0195  0.3430
 5420TIP3    H137751   5.546   4.949   3.176  0.4325  0.4776  0.5133
 5420TIP3    H237752   5.492   4.974   3.316  0.9267 -2.6723  1.3408
 5421TIP3   OH237753   2.729   4.295  12.100  0.0509  0.0380  0.0713
 5421TIP3    H137754   2.730   4.299  12.005  0.4317  0.9236  0.1032
 5421TIP3    H237755   2.637   4.278  12.122 -0.0502 -0.0919 -0.4444
 5422TIP3   OH237756   3.436   5.196   0.611  0.3699 -0.6224  0.4658
 5422TIP3    H137757   3.416   5.108   0.581 -1.0937  0.1526 -1.0091
 5422TIP3    H237758   3.490   5.184   0.690 -0.7061 -2.8106  0.9240
 5423TIP3   OH237759   6.225   5.064   0.542  0.3884 -0.4494 -0.0125
 5423TIP3    H137760   6.157   5.066   0.609 -0.4592 -0.4516 -0.8571
 5423TIP3    H237761   6.215   5.146   0.495  3.3634  1.3529  2.1075
 5424TIP3   OH237762   3.410   1.468   5.964  0.2512 -0.0520 -0.5106
 5424TIP3    H137763   3.473   1.417   6.015 -0.6801  0.3874  1.1552
 5424TIP3    H237764   3.401   1.550   6.012 -0.9523  0.2401 -1.1845
 5425TIP3   OH237765   5.939   6.519  10.952 -0.2621 -0.0212  0.2058
 5425TIP3    H137766   5.920   6.596  10.899  1.3728  0.3705  0.1416
 5425TIP3    H237767   5.890   6.448  10.910  1.5266  0.1217 -2.3392
 5426TIP3   OH237768   5.293   3.205  10.579 -0.4369 -0.7605  0.5883
 5426TIP3    H137769   5.249   3.170  10.501 -0.4079  2.1432 -0.8475
 5426TIP3    H237770   5.223   3.250  10.627  0.2049  0.5382  0.3358
 5427TIP3   OH237771   3.191   0.277   5.643  0.2182 -0.5207  0.1370
 5427TIP3    H137772   3.197   0.334   5.720  0.4950  0.3395 -0.5133
 5427TIP3    H237773   3.099   0.253   5.638 -0.1162  0.7630 -0.2060
 5428TIP3   OH237774   6.077   1.741   5.653  0.2795  0.4201  0.1472
 5428TIP3    H137775   6.017   1.716   5.723  2.3269 -0.1832  1.7709
 5428TIP3    H237776   6.141   1.799   5.695  1.0493  0.7853 -1.4390
 5429TIP3   OH237777   6.272   5.118   2.534 -0.2802 -0.3869  0.3799
 5429TIP3    H137778   6.242   5.027   2.538  0.0949 -0.5186  0.2386
 5429TIP3    H237779   6.191   5.170   2.541 -0.5784 -0.7410 -0.3454
 5430TIP3   OH237780   5.676   0.968  15.959 -0.6950 -0.0663  0.2333
 5430TIP3    H137781   5.747   0.904  15.962 -1.0442 -0.4358  0.9222
 5430TIP3    H237782   5.630   0.957  16.042  0.0790  2.0644  1.0148
 5431TIP3   OH237783   6.801   0.368  13.547 -0.2548  0.1722  0.3271
 5431TIP3    H137784   6.846   0.368  13.462 -1.6377 -1.2528 -0.4529
 5431TIP3    H237785   6.845   0.300  13.597 -1.2353 -0.9795 -0.3120
 5432TIP3   OH237786   3.628   2.664  14.683  0.5940  0.1120  0.4522
 5432TIP3    H137787   3.546   2.695  14.644 -0.7608 -0.9186  2.2987
 5432TIP3    H237788   3.655   2.734  14.742  1.2123  0.5641 -0.3522
 5433TIP3   OH237789   6.722   3.789   0.331 -0.5031  0.0800  0.2530
 5433TIP3    H137790   6.676   3.750   0.405 -1.1528  0.2797 -0.0398
 5433TIP3    H237791   6.671   3.764   0.255  0.2443 -0.2447 -0.1483
 5434TIP3   OH237792   2.045   6.477  12.393  0.0586  0.3268  0.0596
 5434TIP3    H137793   1.952   6.496  12.380  0.5363  2.4639 -0.5607
 5434TIP3    H237794   2.084   6.484  12.306  1.1704  1.8252  0.6398
 5435TIP3   OH237795   4.941   5.041  14.441  0.2608  0.7752  0.1056
 5435TIP3    H137796   5.011   4.996  14.393 -2.2606 -0.3256 -2.8225
 5435TIP3    H237797   4.916   4.979  14.510  0.8978  0.3539 -0.0356
 5436TIP3   OH237798   3.694   6.187   5.974  0.2547 -0.0906  0.3446
 5436TIP3    H137799   3.692   6.112   6.034  1.9042 -0.4945 -0.0417
 5436TIP3    H237800   3.608   6.228   5.983 -0.3611 -1.5002  1.2430
 5437TIP3   OH237801   2.197   2.334  10.875 -0.2039 -0.3812 -0.7154
 5437TIP3    H137802   2.244   2.341  10.792  0.0839 -1.9263 -0.7161
 5437TIP3    H237803   2.139   2.259  10.863 -0.2736 -0.5265  0.4268
 5438TIP3   OH237804   1.027   0.961  15.329  0.0714 -0.0741 -0.0617
 5438TIP3    H137805   0.935   0.982  15.346 -0.4558 -1.2915 -1.1786
 5438TIP3    H237806   1.071   0.973  15.413 -0.6005  2.9011 -0.0368
 5439TIP3   OH237807   0.905   1.992   0.963 -0.3116 -0.0621 -0.1406
 5439TIP3    H137808   0.898   1.954   0.876 -0.4132 -0.7345  0.1543
 5439TIP3    H237809   0.854   2.073   0.958  1.1958  0.8520 -1.2123
 5440TIP3   OH237810   6.659   6.400   2.917 -0.1780  0.5076  0.7752
 5440TIP3    H137811   6.666   6.405   2.821  1.1460 -0.2779  0.8031
 5440TIP3    H237812   6.626   6.312   2.934  1.9012 -0.2784  1.0763
 5441TIP3   OH237813   5.740   5.927  13.146 -0.1004 -0.2620  0.4935
 5441TIP3    H137814   5.822   5.951  13.190 -0.5792  1.6237  0.4271
 5441TIP3    H237815   5.680   5.998  13.166 -1.7110 -1.5436  0.4157
 5442TIP3   OH237816   2.351   2.263   3.795 -0.5832 -0.2083  0.3132
 5442TIP3    H137817   2.364   2.341   3.741 -0.8353 -0.2432  0.1993
 5442TIP3    H237818   2.383   2.191   3.741 -2.5466 -0.4802 -0.5751
 5443TIP3   OH237819   4.521   1.011  14.115  0.3160 -0.5351 -0.4286
 5443TIP3    H137820   4.595   1.008  14.175 -0.4369  2.3246  0.8304
 5443TIP3    H237821   4.450   0.966  14.162 -0.0075  0.8797  0.5007
 5444TIP3   OH237822   5.511   4.783  15.533  0.1123  0.6514 -0.6398
 5444TIP3    H137823   5.456   4.706  15.522  0.4763  0.2095  0.5551
 5444TIP3    H237824   5.449   4.856  15.542 -0.2611  0.2572 -0.0028
 5445TIP3   OH237825   1.451   5.672  13.523  0.4493  0.1508 -0.0067
 5445TIP3    H137826   1.415   5.715  13.600 -1.6669  0.2655 -1.0030
 5445TIP3    H237827   1.496   5.743  13.476  0.6603  0.3403  0.4686
 5446TIP3   OH237828   2.795   5.096  12.212  0.2443 -0.0303 -0.0489
 5446TIP3    H137829   2.856   5.055  12.272  0.3695 -1.4762 -1.1280
 5446TIP3    H237830   2.805   5.049  12.130 -0.3489  1.5055 -1.0589
 5447TIP3   OH237831   1.621   1.122  14.262 -0.0926  0.1559 -0.3753
 5447TIP3    H137832   1.645   1.049  14.205  0.0567 -2.6056  2.9315
 5447TIP3    H237833   1.528   1.138  14.243 -0.2099 -1.1069 -0.9410
 5448TIP3   OH237834   0.066   1.696  12.910 -0.1402  0.3660 -0.3673
 5448TIP3    H137835   0.038   1.606  12.926  0.6819  0.1946  0.1459
 5448TIP3    H237836   0.066   1.737  12.996  1.7660  0.1754 -0.2324
 5449TIP3   OH237837   6.724   2.615  15.671 -0.8522 -0.3743 -0.0032
 5449TIP3    H137838   6.788   2.566  15.722 -1.6249 -0.3780  0.9982
 5449TIP3    H237839   6.645   2.560  15.671 -1.8680  0.9842  1.4990
 5450TIP3   OH237840   3.167   1.389  10.772  0.4157 -0.7756 -0.2694
 5450TIP3    H137841   3.193   1.449  10.702  0.4562 -1.0867 -0.5268
 5450TIP3    H237842   3.086   1.348  10.739  0.3237 -0.7738 -0.0472
 5451TIP3   OH237843   2.346   3.221   4.149 -0.2161 -0.4096  0.2516
 5451TIP3    H137844   2.416   3.211   4.213 -0.3196 -0.6799  0.3224
 5451TIP3    H237845   2.272   3.175   4.186 -0.6706  0.5234  0.5282
 5452TIP3   OH237846   2.995   4.655   5.244 -0.4128 -0.8113  0.4396
 5452TIP3    H137847   3.088   4.679   5.243 -0.6062 -0.0402  0.1747
 5452TIP3    H237848   2.993   4.565   5.213  0.1188 -0.3429 -1.0438
 5453TIP3   OH237849   0.877   4.649   2.070  0.6629  0.3187 -0.3017
 5453TIP3    H137850   0.961   4.611   2.043  0.9704  0.8704 -0.1480
 5453TIP3    H237851   0.870   4.629   2.163  1.0939  1.1098 -0.0909
 5454TIP3   OH237852   5.126   5.029  15.811  0.4489 -0.1640 -0.3410
 5454TIP3    H137853   5.151   5.076  15.891  0.9243 -1.6391  0.4231
 5454TIP3    H237854   5.105   5.098  15.748  2.0644  1.0862  0.4074
 5455TIP3   OH237855   6.397   3.097  14.717  0.0773 -0.1975  0.6188
 5455TIP3    H137856   6.477   3.049  14.694  0.7227  0.1198  2.0622
 5455TIP3    H237857   6.348   3.104  14.635  2.0457  0.5790 -0.5415
 5456TIP3   OH237858   4.030   0.566   0.722  0.0159  0.2958 -0.4104
 5456TIP3    H137859   4.082   0.599   0.649  1.0658  1.0704  0.6524
 5456TIP3    H237860   3.965   0.509   0.681  0.3898  0.9373 -1.9668
 5457TIP3   OH237861   4.095   6.208  12.590 -0.1286  0.2887  0.4646
 5457TIP3    H137862   4.190   6.214  12.587  0.0505 -1.9172 -0.2550
 5457TIP3    H237863   4.064   6.276  12.530  1.1631 -1.0859 -1.8915
 5458TIP3   OH237864   4.741   6.396   0.625  0.1655 -0.3344 -0.2893
 5458TIP3    H137865   4.797   6.400   0.702  1.4438  0.6731 -1.2321
 5458TIP3    H237866   4.653   6.410   0.659  0.6376 -0.4608  1.0503
 5459TIP3   OH237867   6.280   3.455  16.351 -0.6219 -0.5127  0.2929
 5459TIP3    H137868   6.358   3.510  16.355  1.6140 -3.4524  0.7252
 5459TIP3    H237869   6.259   3.451  16.258  1.5553 -1.8947 -0.2099
 5460TIP3   OH237870   2.573   4.465  11.573 -0.0639  0.4354  0.1149
 5460TIP3    H137871   2.606   4.511  11.496 -0.4004 -0.8542 -0.8398
 5460TIP3    H237872   2.592   4.372  11.555 -2.4050 -0.1579  0.3952
 5461TIP3   OH237873   4.072   4.226   0.814  0.5807 -0.2095 -0.4703
 5461TIP3    H137874   4.113   4.299   0.861  0.2409 -0.7532  0.6876
 5461TIP3    H237875   4.143   4.191   0.759  1.0585  0.2592 -0.1651
 5462TIP3   OH237876   2.240   2.858  13.966  0.3636 -0.3865  0.5519
 5462TIP3    H137877   2.275   2.778  13.927 -0.3884 -0.0493 -0.9062
 5462TIP3    H237878   2.163   2.830  14.014 -0.3283 -0.4776 -0.5680
 5463TIP3   OH237879   1.405   5.872   0.837  0.3053  0.1117  0.4954
 5463TIP3    H137880   1.474   5.846   0.776  0.3716 -1.7064  1.2785
 5463TIP3    H237881   1.324   5.839   0.797 -0.3371  3.1083 -0.9240
 5464TIP3   OH237882   2.578   3.068  15.848 -0.2741 -0.7228 -0.2305
 5464TIP3    H137883   2.648   3.093  15.909 -0.1446  2.7628 -1.5626
 5464TIP3    H237884   2.497   3.086  15.896 -0.1909 -0.3527 -0.2222
 5465TIP3   OH237885   3.653   6.815   2.832 -0.2824  0.5274 -0.3286
 5465TIP3    H137886   3.639   6.752   2.762 -1.5325  1.7805 -1.2466
 5465TIP3    H237887   3.745   6.839   2.825  0.0831 -0.7526 -0.2954
 5466TIP3   OH237888   0.007   4.130  12.522 -0.4480 -0.4690  0.2449
 5466TIP3    H137889   0.073   4.164  12.582  0.3236 -0.0533 -0.8087
 5466TIP3    H237890  -0.062   4.197  12.522 -0.9661 -0.9775  1.4649
 5467TIP3   OH237891   3.629   6.077   4.552 -0.7731 -0.5235  0.0613
 5467TIP3    H137892   3.696   6.085   4.619  0.0890 -1.6010 -0.6448
 5467TIP3    H237893   3.677   6.081   4.469 -1.8989  1.6726 -0.5677
 5468TIP3   OH237894   2.314   4.411  14.195  0.1387  0.3507 -0.6648
 5468TIP3    H137895   2.382   4.377  14.254 -0.3797 -0.0592 -0.2919
 5468TIP3    H237896   2.324   4.506  14.200 -1.2097  0.4575  1.7350
 5469TIP3   OH237897   4.546   3.808   1.620  0.2953  0.1416 -0.1319
 5469TIP3    H137898   4.601   3.865   1.565 -0.1873  1.0762  0.3249
 5469TIP3    H237899   4.555   3.845   1.707 -1.0321  0.2897 -0.0433
 5470TIP3   OH237900   4.598   0.923   4.712 -0.0195 -0.1588 -1.0151
 5470TIP3    H137901   4.565   0.834   4.724  0.6246 -0.1359  1.4790
 5470TIP3    H237902   4.537   0.978   4.761  1.1150  0.4059 -0.1831
 5471TIP3   OH237903   6.460   4.030  11.969  0.1803 -0.2761  0.3773
 5471TIP3    H137904   6.377   4.021  12.016 -0.1254  0.0499 -0.1022
 5471TIP3    H237905   6.438   4.012  11.878  0.5194  0.4343  0.1543
 5472TIP3   OH237906   2.119   2.370  13.359  0.3210 -0.2839  0.1690
 5472TIP3    H137907   2.160   2.456  13.351  2.4045 -1.1581  0.8262
 5472TIP3    H237908   2.053   2.381  13.426  0.6111  0.7910  0.2972
 5473TIP3   OH237909   2.270   4.151  16.410 -0.2141  0.1319  0.0239
 5473TIP3    H137910   2.204   4.217  16.428  1.0455  0.9606  1.8956
 5473TIP3    H237911   2.258   4.129  16.318 -2.8350  0.4920  0.2087
 5474TIP3   OH237912   0.261   5.623   6.789 -0.1174  0.2158 -0.6907
 5474TIP3    H137913   0.287   5.568   6.715 -1.2368 -0.3856 -0.6528
 5474TIP3    H237914   0.332   5.613   6.852 -0.6005 -1.7379 -0.4036
 5475TIP3   OH237915   2.183   6.079  15.690 -0.9016 -0.0296  0.1830
 5475TIP3    H137916   2.152   6.070  15.781 -0.0123  0.8742  0.5926
 5475TIP3    H237917   2.103   6.091  15.639 -1.3400  0.8979  1.0467
 5476TIP3   OH237918   3.267   2.309  14.899 -0.3667  0.1972 -0.1468
 5476TIP3    H137919   3.311   2.239  14.946  0.1131  1.1535  0.8576
 5476TIP3    H237920   3.335   2.349  14.845 -0.8087 -0.5811 -1.3520
 5477TIP3   OH237921   3.275   1.413  13.942 -0.4342 -0.7145  0.3160
 5477TIP3    H137922   3.294   1.406  13.848 -1.9578  0.9044 -0.1474
 5477TIP3    H237923   3.234   1.329  13.964 -1.3705 -0.5773 -0.8122
 5478TIP3   OH237924   5.585   5.216  13.928  0.2236 -0.2110 -0.3313
 5478TIP3    H137925   5.635   5.149  13.881  1.9599  0.0300  1.0860
 5478TIP3    H237926   5.635   5.233  14.008 -1.1141  1.4824  0.2228
 5479TIP3   OH237927   0.474   0.950   6.762  0.2675 -0.6091 -0.6095
 5479TIP3    H137928   0.472   1.013   6.689  0.0500 -0.4356 -0.4571
 5479TIP3    H237929   0.549   0.977   6.815 -0.5720  0.3367  0.1557
 5480TIP3   OH237930   2.715   6.777  16.713  0.1217 -0.0800 -0.3895
 5480TIP3    H137931   2.735   6.777  16.806 -1.3248  1.1790 -0.0551
 5480TIP3    H237932   2.634   6.827  16.705  0.0786 -0.3747 -2.2990
 5481TIP3   OH237933   3.659   5.923   3.095 -0.7466  0.1469 -0.5769
 5481TIP3    H137934   3.615   5.876   3.166 -0.5848 -0.8954 -1.1485
 5481TIP3    H237935   3.736   5.961   3.136 -1.3688  0.7128  0.1005
 5482TIP3   OH237936   4.432   2.815  13.274 -0.3732 -0.3318 -0.2403
 5482TIP3    H137937   4.405   2.757  13.345  0.8322 -0.9095 -0.2360
 5482TIP3    H237938   4.350   2.852  13.241 -1.0234 -0.7719  0.8332
 5483TIP3   OH237939   1.699   0.004  11.828 -0.1784  0.4610  0.4292
 5483TIP3    H137940   1.770  -0.030  11.884 -1.0756  0.9101  1.8902
 5483TIP3    H237941   1.726   0.093  11.807  1.0217 -0.2724 -1.4137
 5484TIP3   OH237942   1.561   4.336  11.263  0.3037 -0.2021  0.3190
 5484TIP3    H137943   1.503   4.412  11.252 -1.1909 -0.9688  2.2642
 5484TIP3    H237944   1.649   4.372  11.254 -0.3735  1.1607 -1.9906
 5485TIP3   OH237945   3.588   2.682  16.705  0.1082 -0.0584  0.6584
 5485TIP3    H137946   3.636   2.763  16.692  0.7161 -0.2265  1.7563
 5485TIP3    H237947   3.525   2.702  16.774 -0.1142 -0.3671  0.5462
 5486TIP3   OH237948   4.405   1.814  16.723 -0.2149  0.3508  0.2475
 5486TIP3    H137949   4.383   1.751  16.654 -0.0949  0.5757 -0.0010
 5486TIP3    H237950   4.444   1.762  16.793 -0.8497  0.0450  0.3784
 5487TIP3   OH237951   5.385   3.643   2.193 -0.4514 -0.2700  0.2017
 5487TIP3    H137952   5.340   3.721   2.224 -1.6842 -0.2099 -1.5981
 5487TIP3    H237953   5.317   3.577   2.183  0.6317 -1.7842  2.1366
 5488TIP3   OH237954   2.318   6.144  13.599  1.1603 -0.4880 -0.1812
 5488TIP3    H137955   2.266   6.067  13.576  0.9406 -0.6760  0.9018
 5488TIP3    H237956   2.385   6.110  13.658  0.3050  0.3276  1.3091
 5489TIP3   OH237957   6.337   0.372  15.002 -0.0977 -0.4461  0.6317
 5489TIP3    H137958   6.267   0.338  14.947 -0.2202  2.7824 -1.4563
 5489TIP3    H237959   6.301   0.371  15.091 -1.0458 -2.9139  0.3010
 5490TIP3   OH237960   1.195   4.689  11.398 -0.2024  0.7467  0.1001
 5490TIP3    H137961   1.137   4.633  11.449 -0.4657 -0.4410 -1.4538
 5490TIP3    H237962   1.282   4.674  11.436 -0.4255  0.0685  0.3450
 5491TIP3   OH237963   5.963   6.134  12.245 -0.2741 -0.0969  0.0063
 5491TIP3    H137964   5.998   6.223  12.245 -1.1750  0.2711  0.1402
 5491TIP3    H237965   5.991   6.097  12.162  0.6377  0.0904  0.2200
 5492TIP3   OH237966   1.456   1.355   0.718  0.2693  0.3230 -0.1179
 5492TIP3    H137967   1.476   1.371   0.626 -0.6425  2.3141 -0.0234
 5492TIP3    H237968   1.478   1.263   0.732  0.1738 -0.0976 -2.3857
 5493TIP3   OH237969   0.627   4.994  16.674  0.0913  0.1107 -0.2578
 5493TIP3    H137970   0.685   4.943  16.731  0.8711  0.2895 -0.8764
 5493TIP3    H237971   0.673   4.999  16.591 -0.8192  0.2685 -0.7644
 5494TIP3   OH237972   4.328   3.100   6.388 -0.3110 -0.5135 -0.0189
 5494TIP3    H137973   4.341   3.009   6.414  0.3951 -0.1193  1.1064
 5494TIP3    H237974   4.254   3.098   6.328  0.0019 -1.8835 -0.3967
 5495TIP3   OH237975   5.283   2.412  11.041 -0.5198  0.1083 -0.2875
 5495TIP3    H137976   5.322   2.326  11.061 -0.0079  0.5505  0.7228
 5495TIP3    H237977   5.352   2.458  10.992 -0.8080 -0.0599 -0.8605
 5496TIP3   OH237978   1.009   0.979   4.920 -0.7035 -0.3238 -0.7109
 5496TIP3    H137979   1.001   1.036   4.844  0.3115 -1.4275 -1.6713
 5496TIP3    H237980   1.047   0.898   4.887  2.0033 -0.0232  1.3142
 5497TIP3   OH237981   4.115   3.922   0.629 -0.0390  0.6880  0.4807
 5497TIP3    H137982   4.066   3.980   0.571 -0.0107  0.2936  0.0596
 5497TIP3    H237983   4.197   3.967   0.644  0.0475  0.6872  0.0253
 5498TIP3   OH237984   4.537   3.504  11.682 -0.5485 -0.3960 -0.0311
 5498TIP3    H137985   4.622   3.510  11.638 -0.8585 -0.3272 -0.6189
 5498TIP3    H237986   4.525   3.410  11.697  0.1001 -0.3360  0.9868
 5499TIP3   OH237987   5.354   6.000   2.476  0.6704 -0.2779 -0.9729
 5499TIP3    H137988   5.421   5.955   2.527 -0.2255 -1.1122 -0.4912
 5499TIP3    H237989   5.273   5.955   2.499 -0.3878  1.9820  0.0223
 5500TIP3   OH237990   0.560   0.628  12.442 -0.1532  0.0508 -0.8637
 5500TIP3    H137991   0.473   0.631  12.402 -0.3128  0.1413 -0.5111
 5500TIP3    H237992   0.557   0.694  12.511 -0.5190 -1.4417  0.5853
 5501TIP3   OH237993   0.622   4.901   0.976  0.8319  0.6290  0.1202
 5501TIP3    H137994   0.602   4.900   0.883  3.3239 -0.3972 -0.4900
 5501TIP3    H237995   0.590   4.986   1.006  0.5288  1.2460 -1.8057
 5502TIP3   OH237996   6.270   2.511   3.779  0.4619 -0.1818 -0.1451
 5502TIP3    H137997   6.336   2.580   3.789  0.2288 -0.1290  1.1238
 5502TIP3    H237998   6.227   2.531   3.696  0.9727  0.7091 -0.2076
 5503TIP3   OH237999   1.925   2.025   2.265  0.4063 -0.5445  0.4904
 5503TIP3    H138000   1.876   2.102   2.294 -1.1258 -0.1145 -2.8268
 5503TIP3    H238001   1.869   1.951   2.288  1.2288 -0.6434  2.3865
 5504TIP3   OH238002   3.545   2.709  11.336 -0.1804  0.0358  0.6120
 5504TIP3    H138003   3.587   2.795  11.336  1.8701 -0.8946  2.3618
 5504TIP3    H238004   3.508   2.700  11.423 -3.1585  0.3016 -0.4852
 5505TIP3   OH238005   2.361   5.367   2.087  0.2559 -0.6566  0.8292
 5505TIP3    H138006   2.319   5.355   2.172  0.3286 -1.7798  0.7247
 5505TIP3    H238007   2.297   5.334   2.024 -0.3479  1.3783  0.3027
 5506TIP3   OH238008   4.023   4.105  12.285 -0.2479 -0.5195 -0.0308
 5506TIP3    H138009   4.051   4.136  12.199 -1.6329 -0.4730 -0.4924
 5506TIP3    H238010   3.981   4.180  12.326 -0.5693 -0.8379  0.2357
 5507TIP3   OH238011   5.221   2.202   2.386 -0.1047 -0.0126 -0.1654
 5507TIP3    H138012   5.275   2.135   2.427 -4.0909 -1.6318  3.1211
 5507TIP3    H238013   5.175   2.156   2.316 -0.8475 -0.0239  0.3192
 5508TIP3   OH238014   6.245   3.748   1.034  0.2907  0.0045 -0.0907
 5508TIP3    H138015   6.165   3.704   1.005 -0.3365  0.5087  0.7956
 5508TIP3    H238016   6.217   3.839   1.051  0.8506 -0.0173  1.0326
 5509TIP3   OH238017   2.736   1.168  16.734  0.0107  0.6073  0.0021
 5509TIP3    H138018   2.674   1.234  16.704  0.3609  0.8842 -0.1227
 5509TIP3    H238019   2.766   1.124  16.655 -1.1353 -0.5425  0.1752
 5510TIP3   OH238020   2.292   0.193   1.390 -0.2055  0.4095 -0.2740
 5510TIP3    H138021   2.301   0.099   1.403  2.8110  0.7500  0.8299
 5510TIP3    H238022   2.356   0.214   1.322 -1.3023  1.6086 -0.9816
 5511TIP3   OH238023   6.464   1.213  17.088 -0.2503  0.3342 -0.7957
 5511TIP3    H138024   6.403   1.231  17.159  0.7241 -0.9857  0.4472
 5511TIP3    H238025   6.499   1.299  17.064 -1.0496  0.8683 -0.0985
 5512TIP3   OH238026   5.981   1.844   1.285 -1.0324 -0.5956 -0.1249
 5512TIP3    H138027   6.038   1.856   1.209  0.0697  0.8164  0.8869
 5512TIP3    H238028   6.040   1.825   1.357 -1.9229 -0.2488  0.7132
 5513TIP3   OH238029   2.614   2.239   1.035  0.0022 -0.4798 -0.5432
 5513TIP3    H138030   2.541   2.295   1.010  0.0264 -0.8377 -1.4479
 5513TIP3    H238031   2.586   2.199   1.117 -0.4521  0.0474 -0.4391
 5514TIP3   OH238032   5.161   0.558   5.155 -0.1016  0.1791  0.3345
 5514TIP3    H138033   5.178   0.468   5.185 -1.7137  0.6046  2.8688
 5514TIP3    H238034   5.169   0.553   5.060  2.3114 -2.0634  0.5214
 5515TIP3   OH238035   0.046   3.792   0.728 -0.0478  0.3975  0.1345
 5515TIP3    H138036  -0.007   3.856   0.775  0.8885 -0.4121  2.4583
 5515TIP3    H238037  -0.003   3.775   0.648 -1.0591  2.8601  0.1400
 5516TIP3   OH238038   5.920   2.610   1.741  0.2045  0.5539  0.5086
 5516TIP3    H138039   5.984   2.565   1.797 -0.9153 -0.1034  1.3078
 5516TIP3    H238040   5.835   2.572   1.766 -0.4758  1.1845 -0.7313
 5517TIP3   OH238041   6.491   3.668   5.567 -1.2632  0.3834 -0.2893
 5517TIP3    H138042   6.458   3.694   5.653 -0.9786 -1.8500  0.5698
 5517TIP3    H238043   6.434   3.595   5.541  1.2024 -1.8109  0.0324
 5518TIP3   OH238044   0.910   6.318   1.242 -0.1260 -0.0069  0.5920
 5518TIP3    H138045   0.988   6.279   1.204 -0.2220 -0.4750  0.8605
 5518TIP3    H238046   0.862   6.354   1.168 -0.3691 -1.0071  0.2535
 5519TIP3   OH238047   4.196   0.928   5.370 -0.1010 -0.0131  0.2961
 5519TIP3    H138048   4.160   0.883   5.447 -0.9867  2.7910  1.6681
 5519TIP3    H238049   4.119   0.968   5.328  0.5264 -0.5066 -1.3973
 5520TIP3   OH238050   0.326   0.552   6.286  0.3848  0.3298 -0.0641
 5520TIP3    H138051   0.284   0.467   6.296 -0.4704  0.3960 -2.4213
 5520TIP3    H238052   0.253   0.615   6.287  0.6908  0.7279 -1.2570
 5521TIP3   OH238053   4.431   1.133   4.788  0.2054  0.3877 -0.3452
 5521TIP3    H138054   4.373   1.120   4.863  0.2123  0.5508 -0.3118
 5521TIP3    H238055   4.431   1.227   4.773  0.5766  0.4067 -0.2528
 5522TIP3   OH238056   0.033   1.717  16.612 -0.6073 -0.2719 -0.2837
 5522TIP3    H138057   0.086   1.774  16.556 -0.2290 -0.7437 -0.4100
 5522TIP3    H238058   0.029   1.763  16.696  0.1394 -0.3088 -0.2222
 5523TIP3   OH238059   5.405   5.569  15.338  0.3487  0.0844  0.5086
 5523TIP3    H138060   5.426   5.595  15.427 -0.1967  0.0094  0.6640
 5523TIP3    H238061   5.375   5.478  15.346 -0.2523  0.2611  0.3348
 5524TIP3   OH238062   4.797   0.880   3.349 -0.4422  0.2651  0.3518
 5524TIP3    H138063   4.867   0.829   3.389 -0.2182 -1.0055 -1.5190
 5524TIP3    H238064   4.837   0.919   3.272 -0.7092  3.1181  1.5437
 5525TIP3   OH238065   1.150   0.794   0.124 -0.4020  0.0802  0.5875
 5525TIP3    H138066   1.100   0.713   0.123  0.1531 -0.3402 -1.9226
 5525TIP3    H238067   1.093   0.858   0.081  0.3246  0.1742 -0.2716
 5526TIP3   OH238068   4.870   6.771   1.067  0.0865 -0.5336  0.3856
 5526TIP3    H138069   4.928   6.739   1.136  1.2960  0.2320 -0.2424
 5526TIP3    H238070   4.784   6.775   1.108  0.6344 -0.8473  1.6073
 5527TIP3   OH238071   5.123   3.044   4.021 -0.1389  0.2551  0.4548
 5527TIP3    H138072   5.147   2.952   4.008  2.1092  1.0656 -2.0644
 5527TIP3    H238073   5.120   3.055   4.116  0.3330 -2.1916  0.8307
 5528TIP3   OH238074   3.308   0.252  13.174 -0.4681 -0.3177 -0.2996
 5528TIP3    H138075   3.369   0.229  13.244 -0.1488 -2.0968 -1.1036
 5528TIP3    H238076   3.221   0.238  13.212 -0.4259  1.8643  0.7285
 5529TIP3   OH238077   0.056   2.293  14.508  0.2577  0.5933 -0.4292
 5529TIP3    H138078   0.055   2.247  14.424 -0.4325 -1.6678  0.7297
 5529TIP3    H238079   0.148   2.291  14.535 -0.0279 -2.2506  0.6243
 5530TIP3   OH238080   2.149   3.892  16.268  0.1630 -0.3739  0.7756
 5530TIP3    H138081   2.201   3.818  16.300 -0.7373 -0.9599  0.9380
 5530TIP3    H238082   2.064   3.854  16.246  0.2400  0.3047 -0.8348
 5531TIP3   OH238083   5.459   6.758  12.799  0.0868  0.6874  0.2805
 5531TIP3    H138084   5.379   6.792  12.758  0.5257  2.9339  1.1093
 5531TIP3    H238085   5.514   6.836  12.810  0.3186  0.1280  4.3182
 5532TIP3   OH238086   4.833   5.418  11.662 -0.2543  0.1534 -0.2715
 5532TIP3    H138087   4.921   5.382  11.667 -0.2052  0.1544 -1.0838
 5532TIP3    H238088   4.783   5.368  11.726  0.3373  0.1754  0.2152
 5533TIP3   OH238089   5.137   4.954  14.043  0.6211 -0.2205 -0.6017
 5533TIP3    H138090   5.177   5.014  13.981  1.8760 -0.3876 -0.0006
 5533TIP3    H238091   5.043   4.961  14.028  0.8632  0.3949 -1.8907
 5534TIP3   OH238092   4.949   4.422  12.834  0.4051 -0.3704 -0.5543
 5534TIP3    H138093   4.970   4.372  12.913 -0.0683 -0.8422 -0.7225
 5534TIP3    H238094   4.882   4.370  12.790  1.0645 -0.3803 -1.5590
 5535TIP3   OH238095   2.154   0.124   6.401 -0.0526 -0.1256  0.0389
 5535TIP3    H138096   2.148   0.219   6.395  0.1234 -0.0703  0.6148
 5535TIP3    H238097   2.243   0.103   6.372 -0.3413 -0.1878 -0.8098
 5536TIP3   OH238098   5.278   0.024  12.068 -0.1961  0.0044  0.2257
 5536TIP3    H138099   5.287   0.093  12.134 -0.3016  1.1127 -0.8739
 5536TIP3    H238100   5.207   0.055  12.012  1.9044  0.6822 -2.2492
 5537TIP3   OH238101   2.937   0.741   3.331 -0.1500 -0.0314 -0.2598
 5537TIP3    H138102   2.886   0.784   3.399 -1.1773  0.0400 -1.0426
 5537TIP3    H238103   2.872   0.692   3.280  0.9064 -2.2121  0.3533
 5538TIP3   OH238104   5.344   1.103  14.339 -0.3721 -0.5310  0.4808
 5538TIP3    H138105   5.322   1.139  14.253 -0.4235 -0.7631  0.3991
 5538TIP3    H238106   5.277   1.138  14.398  1.9418  3.1360  1.2758
 5539TIP3   OH238107   4.392   1.707  16.456  0.0708 -0.1096  0.1744
 5539TIP3    H138108   4.340   1.660  16.390 -0.5911  0.4910  0.2584
 5539TIP3    H238109   4.469   1.652  16.469  0.4240 -0.0409 -1.4166
 5540TIP3   OH238110   2.023   6.693  10.945  0.0336 -0.0211  0.0132
 5540TIP3    H138111   2.053   6.754  10.878  1.7279 -0.1527  0.6203
 5540TIP3    H238112   2.064   6.722  11.026  0.3606 -1.5615  0.4384
 5541TIP3   OH238113   4.651   1.854  12.046  0.4046  0.5475 -0.3192
 5541TIP3    H138114   4.569   1.818  12.079 -0.1418  0.7316 -1.4448
 5541TIP3    H238115   4.696   1.779  12.007  0.9137  0.3919  0.5299
 5542TIP3   OH238116   5.631   1.510  14.883 -0.4899  0.2758  0.0881
 5542TIP3    H138117   5.702   1.513  14.820 -0.7146 -0.2478 -0.1865
 5542TIP3    H238118   5.632   1.421  14.918 -0.6902  0.4109  0.4478
 5543TIP3   OH238119   3.184   6.426   1.837 -1.0177  0.2152 -0.6471
 5543TIP3    H138120   3.231   6.473   1.906  0.2035 -2.1018  0.2308
 5543TIP3    H238121   3.236   6.441   1.758  0.7273 -1.4298  0.0973
 5544TIP3   OH238122   0.357   4.774  11.225 -0.7941 -0.3583 -0.2820
 5544TIP3    H138123   0.319   4.813  11.304  1.3920  0.1425  0.6143
 5544TIP3    H238124   0.340   4.837  11.156 -2.3206 -0.5714 -0.1287
 5545TIP3   OH238125   5.768   0.614  12.314  0.5467 -0.2666 -0.3428
 5545TIP3    H138126   5.759   0.701  12.353  0.4104  0.1264 -1.2307
 5545TIP3    H238127   5.838   0.624  12.250  1.8051 -1.2792  0.8117
 5546TIP3   OH238128   2.931   0.691  12.653  0.0018  0.0859  0.0376
 5546TIP3    H138129   3.019   0.656  12.639 -0.0417 -0.1037  0.2349
 5546TIP3    H238130   2.894   0.701  12.565 -0.9240 -2.7705  0.0038
 5547TIP3   OH238131   5.199   4.808  13.544  0.2697 -0.7930  0.0116
 5547TIP3    H138132   5.272   4.836  13.599  0.1876  2.8352 -1.4604
 5547TIP3    H238133   5.124   4.804  13.604  1.2520 -3.0200  1.2233
 5548TIP3   OH238134   2.023   5.077  13.258 -0.0494 -0.2779 -0.3869
 5548TIP3    H138135   2.043   5.141  13.326  1.0835  0.2344 -1.1591
 5548TIP3    H238136   2.054   5.118  13.177 -3.7608  0.3356 -1.7054
 5549TIP3   OH238137   4.685   5.683  16.472  0.1590  0.1774 -0.2119
 5549TIP3    H138138   4.623   5.654  16.406  1.2902 -2.5245 -0.2095
 5549TIP3    H238139   4.643   5.663  16.556  1.3752 -2.8999 -0.1952
 5550TIP3   OH238140   0.554   2.925  14.041  0.3512 -0.0211 -0.1587
 5550TIP3    H138141   0.556   2.878  13.958  0.2701 -0.3792  0.0417
 5550TIP3    H238142   0.504   2.868  14.100  1.4782 -0.3540  0.4997
 5551TIP3   OH238143   4.843   3.991   1.129  0.3156 -0.1132 -0.3790
 5551TIP3    H138144   4.830   3.916   1.187 -0.9818  0.3069 -0.1016
 5551TIP3    H238145   4.861   3.952   1.043 -1.2577 -0.7814 -0.4412
 5552TIP3   OH238146   1.510   0.325   5.371  0.2001  0.5832  0.8812
 5552TIP3    H138147   1.480   0.243   5.410  0.0173 -0.9138 -2.1017
 5552TIP3    H238148   1.603   0.310   5.354  0.6197  1.7713  2.0402
 5553TIP3   OH238149   0.566   3.324   5.781  0.3305  0.9613 -0.3304
 5553TIP3    H138150   0.622   3.398   5.802  0.2582  0.3280  2.4311
 5553TIP3    H238151   0.494   3.329   5.844 -0.4775 -0.6116 -1.0592
 5554TIP3   OH238152   3.557   1.950  14.187  0.1238  0.1807  0.5843
 5554TIP3    H138153   3.548   1.955  14.092  2.4240  0.8971  0.3497
 5554TIP3    H238154   3.606   2.029  14.211  0.3288 -0.4108  2.2692
 5555TIP3   OH238155   2.153   0.860   0.376 -0.5902 -0.4526  0.1471
 5555TIP3    H138156   2.206   0.896   0.448 -0.4057 -1.8795  0.7553
 5555TIP3    H238157   2.155   0.765   0.390 -0.4888 -0.7730 -1.8088
 5556TIP3   OH238158   5.340   4.905   0.699 -0.0946 -0.5111  0.4430
 5556TIP3    H138159   5.345   4.969   0.770  0.3475 -0.7375  0.6208
 5556TIP3    H238160   5.364   4.953   0.621  0.6274 -0.5442  0.6349
 5557TIP3   OH238161   2.894   4.722  11.259  0.2328  0.6417  0.0394
 5557TIP3    H138162   2.940   4.638  11.263  0.5626  0.6353 -2.3463
 5557TIP3    H238163   2.947   4.781  11.313  1.5882 -0.0230 -0.5028
 5558TIP3   OH238164   4.458   6.241  16.355 -0.3921 -0.0892  0.3961
 5558TIP3    H138165   4.534   6.186  16.334  0.4142  0.8428  0.7422
 5558TIP3    H238166   4.425   6.207  16.438 -0.8409 -0.9891 -0.1427
 5559TIP3   OH238167   2.324   4.704  14.156  0.1451  0.4969 -0.1817
 5559TIP3    H138168   2.297   4.796  14.152 -0.1758  0.3908 -0.5714
 5559TIP3    H238169   2.396   4.697  14.094 -2.6409 -0.4243 -3.6077
 5560TIP3   OH238170   0.479   3.317   4.095 -0.2145 -0.0084 -0.4443
 5560TIP3    H138171   0.567   3.299   4.064 -0.1805  0.5348 -0.6757
 5560TIP3    H238172   0.455   3.240   4.146  0.1309 -0.4510 -0.9487
 5561TIP3   OH238173   0.288   2.279  16.723  0.0798 -0.3638 -0.6373
 5561TIP3    H138174   0.216   2.322  16.768  0.6281 -0.2611  0.1543
 5561TIP3    H238175   0.281   2.309  16.632 -1.9318 -1.7375 -1.0023
 5562TIP3   OH238176   3.474   4.353  16.125 -0.2497 -0.0990 -0.7797
 5562TIP3    H138177   3.545   4.352  16.060 -1.2887 -0.3605 -1.9545
 5562TIP3    H238178   3.417   4.424  16.096 -1.4214 -1.0768 -0.9546
 5563TIP3   OH238179   3.417   2.440   3.525  0.1236 -0.2881  0.3423
 5563TIP3    H138180   3.340   2.382   3.518  0.8107 -1.1913  0.0355
 5563TIP3    H238181   3.449   2.446   3.435 -0.0681  0.7653  0.3412
 5564TIP3   OH238182   4.515   4.834  15.462  0.5503 -0.6997 -0.1054
 5564TIP3    H138183   4.426   4.798  15.467  0.0671  0.3753 -0.6542
 5564TIP3    H238184   4.533   4.867  15.550  0.0370 -0.1112 -0.2120
 5565TIP3   OH238185   1.152   2.534   4.110  0.6326  0.2758  0.1390
 5565TIP3    H138186   1.235   2.575   4.135 -0.2925  0.3081  3.6498
 5565TIP3    H238187   1.086   2.603   4.123 -0.2088 -0.4305 -0.2883
 5566TIP3   OH238188   3.143   0.293  14.708  0.5316  0.0605  0.3394
 5566TIP3    H138189   3.117   0.350  14.635  0.1732  0.6413  0.9103
 5566TIP3    H238190   3.239   0.291  14.703  0.5233  0.2965  0.0001
 5567TIP3   OH238191   3.569   3.096   0.218 -0.3258 -0.1255 -0.4386
 5567TIP3    H138192   3.551   3.190   0.227  1.2317  0.0098  1.9395
 5567TIP3    H238193   3.639   3.091   0.153  0.2951  0.4728  0.1657
 5568TIP3   OH238194   6.322   2.081   0.753 -0.0676  0.0135 -0.0649
 5568TIP3    H138195   6.312   2.169   0.717 -1.1251  1.2929  3.0062
 5568TIP3    H238196   6.237   2.039   0.741  0.0140 -0.0792 -0.3153
 5569TIP3   OH238197   1.682   1.541  13.653  0.3915 -0.0340  0.1787
 5569TIP3    H138198   1.640   1.513  13.572 -1.0120 -1.5264  1.3386
 5569TIP3    H238199   1.742   1.470  13.674  0.0811 -0.0956  0.8883
 5570TIP3   OH238200   1.913   6.192  13.151  0.0516 -0.1254  0.2397
 5570TIP3    H138201   1.890   6.136  13.225 -0.4995  1.6372  1.4956
 5570TIP3    H238202   1.997   6.159  13.120  0.5114 -0.6640  1.9610
 5571TIP3   OH238203   4.930   6.571   3.047  0.3983 -0.6779  0.3303
 5571TIP3    H138204   4.874   6.496   3.029 -1.4169  0.3132  1.5548
 5571TIP3    H238205   4.919   6.588   3.141  2.9989 -0.6029  0.7082
 5572TIP3   OH238206   0.327   5.665  17.000  0.2194 -0.7292 -0.5744
 5572TIP3    H138207   0.357   5.695  16.914  2.4199 -0.3255  0.2652
 5572TIP3    H238208   0.315   5.745  17.050  1.4486 -1.0140  0.2273
 5573TIP3   OH238209   5.913   1.157  16.504 -0.0892  0.2585 -0.0535
 5573TIP3    H138210   5.967   1.078  16.498 -2.4941 -1.5331  0.6910
 5573TIP3    H238211   5.972   1.223  16.542  1.3970 -1.7824  1.3881
 5574TIP3   OH238212   0.640   4.573   5.195  0.0784  0.2619 -0.1542
 5574TIP3    H138213   0.594   4.504   5.243  2.6199 -1.4196  0.0677
 5574TIP3    H238214   0.644   4.646   5.255 -0.1665 -0.4437  0.7387
 5575TIP3   OH238215   0.847   1.062   5.606 -0.5210 -0.1511  0.3317
 5575TIP3    H138216   0.839   0.982   5.555  0.3496  0.4925 -0.8771
 5575TIP3    H238217   0.850   1.033   5.697 -0.9094 -1.4228 -0.0418
 5576TIP3   OH238218   3.854   2.096   4.266  0.2310 -0.1283 -0.0488
 5576TIP3    H138219   3.802   2.103   4.346  1.1980 -1.3782  0.7346
 5576TIP3    H238220   3.941   2.071   4.296  0.3901 -1.5838 -1.5429
 5577TIP3   OH238221   1.677   3.512  12.271 -0.1589 -0.1901 -0.3858
 5577TIP3    H138222   1.741   3.551  12.211 -0.2680 -2.7759 -2.3727
 5577TIP3    H238223   1.602   3.572  12.267  1.1712  1.6220  0.1190
 5578TIP3   OH238224   6.431   1.077   2.853 -0.2228 -0.3857  0.4095
 5578TIP3    H138225   6.353   1.024   2.835 -1.1847  1.4694 -1.2719
 5578TIP3    H238226   6.412   1.119   2.937 -0.2768 -1.2308  0.8316
 5579TIP3   OH238227   6.033   1.760  13.562 -0.5636  0.3961 -0.5710
 5579TIP3    H138228   6.077   1.840  13.533 -0.6478  0.8183  0.4252
 5579TIP3    H238229   5.974   1.737  13.490  1.7430 -0.5916 -2.2724
 5580TIP3   OH238230   4.926   4.246  13.552  0.3921 -0.4210  0.1591
 5580TIP3    H138231   5.021   4.250  13.540  0.3449 -1.4372 -0.6880
 5580TIP3    H238232   4.912   4.170  13.608 -0.0006 -1.0819 -0.8145
 5581TIP3   OH238233   2.029   2.516  10.557  0.1587 -0.2947  0.3489
 5581TIP3    H138234   1.995   2.431  10.531  0.2748  0.5512 -2.9307
 5581TIP3    H238235   1.956   2.576  10.543  0.5890  0.4087  1.0320
 5582TIP3   OH238236   1.924   3.400  16.351  0.2937 -0.4661 -1.0929
 5582TIP3    H138237   1.832   3.375  16.349  0.5129 -1.7413  1.6263
 5582TIP3    H238238   1.958   3.372  16.266 -1.4591 -1.3547 -1.5506
 5583TIP3   OH238239   1.633   5.031   3.307  0.3545 -0.1916  0.3868
 5583TIP3    H138240   1.583   5.015   3.387  0.3591  0.4873  0.5311
 5583TIP3    H238241   1.719   5.060   3.338 -0.1983  1.8427  0.1761
 5584TIP3   OH238242   6.493   5.488   5.529 -0.0524 -0.1070  0.4068
 5584TIP3    H138243   6.566   5.442   5.488  0.5678  1.8125 -0.7763
 5584TIP3    H238244   6.529   5.522   5.611  0.0626 -0.0493  0.3317
 5585TIP3   OH238245   1.973   1.608   0.647  0.1050 -0.2504 -0.0648
 5585TIP3    H138246   2.052   1.604   0.702 -0.6512  0.5412  1.1273
 5585TIP3    H238247   1.923   1.531   0.671 -0.6862  0.5927  1.1507
 5586TIP3   OH238248   2.922   2.055   3.790 -0.1917  0.5201 -0.2927
 5586TIP3    H138249   2.906   2.100   3.707  0.5792 -1.5795 -1.6606
 5586TIP3    H238250   3.016   2.063   3.803 -0.0637 -0.5542 -0.4997
 5587TIP3   OH238251   0.421   1.502  13.904  0.0266 -0.0481 -0.3793
 5587TIP3    H138252   0.389   1.586  13.870 -0.3952  0.6349  1.5220
 5587TIP3    H238253   0.350   1.441  13.889 -0.1263  0.2235 -0.7681
 5588TIP3   OH238254   5.981   4.661  11.587 -0.5473  0.4989  0.0350
 5588TIP3    H138255   5.915   4.681  11.521 -2.1024  0.5124  1.5271
 5588TIP3    H238256   5.977   4.566  11.597 -0.8420  0.5669  0.6109
 5589TIP3   OH238257   2.087   1.943  14.363  0.1997 -0.1202  0.2261
 5589TIP3    H138258   2.120   1.868  14.412 -0.8897 -0.7363  0.0629
 5589TIP3    H238259   2.164   1.982  14.322  1.0120 -0.0935  1.7439
 5590TIP3   OH238260   1.748   1.319  14.779 -0.1929  0.1403  0.3376
 5590TIP3    H138261   1.687   1.376  14.733  1.4192  0.9803 -0.8554
 5590TIP3    H238262   1.794   1.272  14.710 -0.3554 -1.4384  1.2579
 5591TIP3   OH238263   3.921   2.705   5.812  1.1459  0.6568  0.0906
 5591TIP3    H138264   3.935   2.632   5.872  1.9134  0.5172 -0.2377
 5591TIP3    H238265   4.004   2.712   5.763  0.8869  1.3900 -0.2646
 5592TIP3   OH238266   3.597   4.601  16.196 -0.0913  0.1658  0.0398
 5592TIP3    H138267   3.674   4.608  16.140 -1.4672 -1.8269 -2.3580
 5592TIP3    H238268   3.545   4.532  16.155 -4.2042  2.8183  0.2266
 5593TIP3   OH238269   4.570   5.064  14.283 -0.6204  0.2141 -0.0627
 5593TIP3    H138270   4.543   5.086  14.372 -0.4910 -2.5327  0.7480
 5593TIP3    H238271   4.658   5.103  14.275 -1.1825  1.6729  0.4667
 5594TIP3   OH238272   6.562   0.598   3.491  0.4292 -0.1464  0.2448
 5594TIP3    H138273   6.528   0.663   3.430 -1.5056  0.7698  2.1603
 5594TIP3    H238274   6.611   0.649   3.555 -0.6885 -0.5672  1.4884
 5595TIP3   OH238275   4.278   0.886  15.948  0.4481  0.0384 -0.0995
 5595TIP3    H138276   4.231   0.803  15.945  0.7250 -0.1278  0.0519
 5595TIP3    H238277   4.369   0.863  15.930  0.7788  0.1030  1.3394
 5596TIP3   OH238278   5.259   6.717   1.079 -0.1154  0.5321  0.2238
 5596TIP3    H138279   5.192   6.746   1.141  1.2105  2.6389  0.7665
 5596TIP3    H238280   5.305   6.646   1.123 -0.8645  0.2457  0.5561
 5597TIP3   OH238281   3.628   3.696  12.620 -0.2277 -0.0823  0.5505
 5597TIP3    H138282   3.710   3.697  12.570  0.0519  0.5951  1.0080
 5597TIP3    H238283   3.655   3.679  12.710 -0.7178 -1.1369  0.5059
 5598TIP3   OH238284   4.497   6.017  15.557  0.8758 -0.4670 -0.1764
 5598TIP3    H138285   4.530   6.081  15.620 -3.1633 -0.4338  2.2125
 5598TIP3    H238286   4.464   6.070  15.485 -0.6706  0.0779  0.8931
 5599TIP3   OH238287   4.648   2.207   4.339  0.0552 -0.0650  0.5302
 5599TIP3    H138288   4.578   2.155   4.377  0.6214 -1.7660 -0.6484
 5599TIP3    H238289   4.667   2.165   4.255 -0.3860  2.8533 -1.1886
 5600TIP3   OH238290   4.792   3.112   1.165 -0.1131  0.0340  0.0373
 5600TIP3    H138291   4.708   3.140   1.129 -0.5552  0.6679  1.4787
 5600TIP3    H238292   4.771   3.076   1.251  1.1862  1.1848  0.8904
 5601TIP3   OH238293   5.488   2.448  12.560  0.0469 -0.1609 -0.1830
 5601TIP3    H138294   5.435   2.446  12.640 -0.0368  0.9351 -0.2047
 5601TIP3    H238295   5.445   2.513  12.504  0.8019 -0.0380 -0.6307
 5602TIP3   OH238296   6.272   6.612  11.611 -0.3821 -0.0350 -0.2055
 5602TIP3    H138297   6.365   6.626  11.591 -0.4298 -1.2371 -1.4394
 5602TIP3    H238298   6.268   6.607  11.706  0.8850 -0.3590 -0.1518
 5603TIP3   OH238299   1.419   2.841   6.271 -0.1261 -0.6065  0.1636
 5603TIP3    H138300   1.367   2.872   6.345  1.0739  0.3198  0.6480
 5603TIP3    H238301   1.454   2.920   6.231  0.4216 -1.1729 -0.5042
 5604TIP3   OH238302   1.155   2.049   1.811 -0.3022  0.7581  0.4985
 5604TIP3    H138303   1.240   2.093   1.811  1.1407 -1.7952  1.6514
 5604TIP3    H238304   1.145   2.016   1.722  1.3713 -1.3982  1.0496
 5605TIP3   OH238305   0.668   5.150   0.548  0.0424  0.7275  0.3367
 5605TIP3    H138306   0.701   5.067   0.513 -0.6854  0.8329 -0.6210
 5605TIP3    H238307   0.616   5.188   0.477  1.0140  2.4037  0.4660
 5606TIP3   OH238308   2.523   3.137  14.827  0.0337 -0.2606 -0.0145
 5606TIP3    H138309   2.561   3.217  14.792 -0.0652 -0.2946 -0.1979
 5606TIP3    H238310   2.478   3.096  14.753 -1.4666  0.4217  0.4746
 5607TIP3   OH238311   1.173   5.465  15.733  0.6133  0.3234  0.4972
 5607TIP3    H138312   1.096   5.454  15.677 -0.0860  1.5543  1.1758
 5607TIP3    H238313   1.208   5.377  15.744 -0.2096 -0.1477 -0.4988
 5608TIP3   OH238314   0.849   0.255  12.321 -0.3627  0.3117  0.0665
 5608TIP3    H138315   0.932   0.270  12.275  0.1941 -2.3087  0.0531
 5608TIP3    H238316   0.783   0.295  12.266  0.6998  0.7150 -0.9564
 5609TIP3   OH238317   3.344   1.449  15.797 -0.4100  0.6654  0.1934
 5609TIP3    H138318   3.264   1.496  15.824 -1.0996 -0.2418 -0.2078
 5609TIP3    H238319   3.412   1.516  15.796 -1.2795  1.5699  0.0353
 5610TIP3   OH238320   4.669   1.977  15.425 -0.0908  0.5413 -0.1058
 5610TIP3    H138321   4.689   1.974  15.332  1.4449 -0.0920  0.2172
 5610TIP3    H238322   4.616   1.898  15.440  1.3567 -0.4718 -0.1067
 5611TIP3   OH238323   0.232   4.241  12.381  0.7250  0.5194 -0.2662
 5611TIP3    H138324   0.244   4.325  12.338 -0.9020  0.8929 -0.0813
 5611TIP3    H238325   0.145   4.212  12.352  1.4229 -1.3058 -0.6618
 5612TIP3   OH238326   6.510   0.284  14.019  0.2483 -0.0387 -0.1087
 5612TIP3    H138327   6.496   0.197  14.057  2.1171 -0.2438  0.1902
 5612TIP3    H238328   6.521   0.268  13.925 -1.3242  0.1295 -0.3539
 5613TIP3   OH238329   2.849   3.054  14.839 -0.0306 -1.1576 -0.4664
 5613TIP3    H138330   2.852   2.995  14.914  0.4961 -0.6915 -0.1180
 5613TIP3    H238331   2.757   3.055  14.813 -0.3459 -0.7343  0.6426
 5614TIP3   OH238332   4.848   0.318   0.919  0.0136 -0.1239  0.0184
 5614TIP3    H138333   4.778   0.379   0.945  0.5724  1.0018 -1.0330
 5614TIP3    H238334   4.803   0.235   0.905 -0.3920 -0.8481  4.2726
 5615TIP3   OH238335   0.334   4.764   5.061  0.1031  0.3889  0.0304
 5615TIP3    H138336   0.356   4.743   4.970 -0.2064 -0.2728  0.0948
 5615TIP3    H238337   0.418   4.781   5.103  0.7600 -3.2560  0.5633
 5616TIP3   OH238338   1.256   6.689   5.016  0.8452  0.3436 -0.6305
 5616TIP3    H138339   1.319   6.618   5.017  1.2261  0.6779 -0.0085
 5616TIP3    H238340   1.187   6.662   5.077  0.4746  0.0625 -1.1657
 5617TIP3   OH238341   4.898   3.237  10.512  0.2728 -0.2036  0.3081
 5617TIP3    H138342   4.962   3.224  10.441 -0.5447  0.3461 -0.5557
 5617TIP3    H238343   4.922   3.172  10.578  1.0535 -0.7317 -0.4701
 5618TIP3   OH238344   0.615   4.612   1.893 -0.5233 -0.2890 -0.3886
 5618TIP3    H138345   0.700   4.591   1.934 -0.1038 -0.8048 -1.4845
 5618TIP3    H238346   0.577   4.679   1.950  0.4438 -0.3281  0.3356
 5619TIP3   OH238347   4.407   1.947  11.259  0.0528  0.1100 -0.3122
 5619TIP3    H138348   4.448   1.962  11.344  1.0245  1.4273 -0.9923
 5619TIP3    H238349   4.341   2.016  11.251 -1.2020 -0.9994  0.0522
 5620TIP3   OH238350   3.701   2.199  14.249  0.2066  0.3811 -0.1043
 5620TIP3    H138351   3.759   2.167  14.179 -0.8185  0.0527 -0.8311
 5620TIP3    H238352   3.752   2.189  14.329  1.3283  0.5409 -0.7679
 5621TIP3   OH238353   3.664   3.274   4.591  0.2083 -0.0614  0.1677
 5621TIP3    H138354   3.572   3.296   4.609  0.0056  0.9215 -1.7622
 5621TIP3    H238355   3.714   3.345   4.632  0.0682 -0.2078  0.5988
 5622TIP3   OH238356   1.312   3.190  12.497 -0.2016 -0.1768  0.2036
 5622TIP3    H138357   1.226   3.160  12.467  0.1311 -1.2091  0.2561
 5622TIP3    H238358   1.307   3.186  12.593 -0.2566  0.2347  0.2195
 5623TIP3   OH238359   3.161   5.654  12.475  0.0995  0.1546  0.3682
 5623TIP3    H138360   3.129   5.661  12.385  1.9676  2.1542 -0.2374
 5623TIP3    H238361   3.092   5.693  12.529 -1.1887 -1.3731 -0.1063
 5624TIP3   OH238362   5.693   2.633  15.475 -0.1550 -0.2039 -0.0429
 5624TIP3    H138363   5.612   2.629  15.424 -0.0057 -0.2244 -0.2776
 5624TIP3    H238364   5.671   2.587  15.557 -0.8733  1.2092  0.5858
 5625TIP3   OH238365   2.029   3.632   5.591  0.0188  0.2541  0.8680
 5625TIP3    H138366   2.102   3.658   5.536  1.0509 -2.9180  0.5398
 5625TIP3    H238367   1.955   3.627   5.531 -0.3787  2.6360  1.0435
 5626TIP3   OH238368   5.215   2.614   0.914  0.9293 -0.3965 -0.0227
 5626TIP3    H138369   5.283   2.643   0.974  1.0465  1.4293 -0.9622
 5626TIP3    H238370   5.149   2.573   0.969  0.4794  2.2327  1.5500
 5627TIP3   OH238371   6.743   3.100  16.778  0.2956 -0.0833 -0.0856
 5627TIP3    H138372   6.704   3.072  16.860  1.3585  0.1643  0.5308
 5627TIP3    H238373   6.669   3.112  16.719 -0.6109  0.9603  1.2056
 5628TIP3   OH238374   4.426   6.236   0.777  0.2432 -0.0773  0.8224
 5628TIP3    H138375   4.415   6.321   0.733 -2.1725 -0.4936  0.4761
 5628TIP3    H238376   4.471   6.257   0.859  1.8097  1.1772 -0.2903
 5629TIP3   OH238377   3.175   4.201   0.518 -0.6631  0.3638 -0.2831
 5629TIP3    H138378   3.121   4.278   0.534  0.6056  1.9251 -2.7828
 5629TIP3    H238379   3.120   4.127   0.543 -2.4138  2.0061  0.9906
 5630TIP3   OH238380   5.293   5.005  11.568 -0.5300 -0.0274 -0.1481
 5630TIP3    H138381   5.207   5.004  11.527 -0.7433  0.7905  0.2387
 5630TIP3    H238382   5.314   5.098  11.576 -1.8527  0.1344  4.2843
 5631TIP3   OH238383   3.850   0.645  12.885 -0.2043 -0.1973 -0.6848
 5631TIP3    H138384   3.838   0.734  12.850  0.7187  0.1238 -0.2352
 5631TIP3    H238385   3.765   0.620  12.920 -1.0488 -0.3520 -2.7425
 5632TIP3   OH238386   1.338   1.081  12.154  0.1714 -0.5744 -0.7481
 5632TIP3    H138387   1.364   1.060  12.064 -0.4607  0.8572 -1.2883
 5632TIP3    H238388   1.250   1.046  12.162 -0.1154  0.0892 -0.9857
 5633TIP3   OH238389   1.831   5.227  12.733  0.4595  0.6918  0.3883
 5633TIP3    H138390   1.892   5.250  12.663  0.3701 -2.3716 -0.8558
 5633TIP3    H238391   1.744   5.242  12.696  0.3882 -1.7206 -0.5974
 5634TIP3   OH238392   3.229   0.386   4.256  0.1306 -0.4647  0.6126
 5634TIP3    H138393   3.200   0.388   4.165 -0.9872  1.5902  0.9554
 5634TIP3    H238394   3.149   0.380   4.308  0.7169 -1.0743  1.4966
 5635TIP3   OH238395   1.583   4.344  13.672  0.0429  0.0176 -0.1583
 5635TIP3    H138396   1.610   4.436  13.671  1.3141 -0.3174  0.8367
 5635TIP3    H238397   1.571   4.322  13.580 -0.0381  1.1066 -0.4254
 5636TIP3   OH238398   3.766   6.156   5.462  0.6782 -0.3171  0.4002
 5636TIP3    H138399   3.813   6.103   5.398  0.5985 -1.3115  1.1542
 5636TIP3    H238400   3.826   6.164   5.536  0.9635  1.2343  0.0508
 5637TIP3   OH238401   4.681   5.241  12.836  0.1222  0.1391  0.5628
 5637TIP3    H138402   4.719   5.326  12.813  1.7009 -0.4906  0.6822
 5637TIP3    H238403   4.682   5.240  12.932  0.0728  0.0121  0.5617
 5638TIP3   OH238404   4.651   4.290  16.482  0.1839  0.4244  0.4253
 5638TIP3    H138405   4.706   4.249  16.549  0.3240  0.7291  0.5005
 5638TIP3    H238406   4.675   4.246  16.400 -1.4182 -1.3476  0.8600
 5639TIP3   OH238407   2.295   2.902   1.548 -0.1347 -0.4193 -0.2687
 5639TIP3    H138408   2.303   2.996   1.560 -1.5699 -0.5485  2.5216
 5639TIP3    H238409   2.347   2.864   1.619 -1.8464 -1.6274  0.4198
 5640TIP3   OH238410   0.352   4.614   5.464  0.3315 -0.2743 -0.6343
 5640TIP3    H138411   0.439   4.638   5.432  1.0900 -1.8554  0.1490
 5640TIP3    H238412   0.296   4.622   5.387  0.8501  2.1141 -0.8441
 5641TIP3   OH238413   2.350   3.134  11.842 -0.2662 -0.0518  0.0753
 5641TIP3    H138414   2.298   3.155  11.765 -1.8268 -0.1205  1.0783
 5641TIP3    H238415   2.293   3.079  11.896 -0.6286  2.8949  2.9793
 5642TIP3   OH238416   0.026   3.467  10.901  0.0659  0.1708  0.5242
 5642TIP3    H138417  -0.063   3.473  10.866 -0.0257  0.0354  0.7349
 5642TIP3    H238418   0.027   3.385  10.949  0.7973 -0.7000 -0.9017
 5643TIP3   OH238419   5.532   6.833   6.555 -0.6037 -0.1725  0.3033
 5643TIP3    H138420   5.493   6.920   6.554 -1.0121 -0.3335  1.2098
 5643TIP3    H238421   5.499   6.791   6.476 -2.4685 -0.3765  1.1401
 5644TIP3   OH238422   4.656   0.813   5.052  0.7103  0.1425  0.3511
 5644TIP3    H138423   4.688   0.723   5.044 -1.8440 -0.6589 -2.1503
 5644TIP3    H238424   4.561   0.805   5.053  0.3922  2.8644 -0.4907
 5645TIP3   OH238425   4.566   2.064   5.378 -0.3988 -0.0947  0.6633
 5645TIP3    H138426   4.550   2.059   5.283  0.2643  0.3736  0.5262
 5645TIP3    H238427   4.628   2.136   5.388  0.7174 -1.1160  1.3134
 5646TIP3   OH238428   5.038   2.426  14.721 -0.2142 -0.4298  0.4190
 5646TIP3    H138429   4.973   2.361  14.749  0.5027 -1.2154  0.2994
 5646TIP3    H238430   5.122   2.391  14.751  0.1953  0.4085  0.2794
 5647TIP3   OH238431   1.174   6.779  14.057 -0.0702 -0.5134  0.2266
 5647TIP3    H138432   1.242   6.833  14.098 -0.4917  0.6315 -0.5161
 5647TIP3    H238433   1.222   6.717  14.002  0.4658 -1.6036  1.8555
 5648TIP3   OH238434   6.317   4.001   4.196  0.3779 -0.1879 -0.4543
 5648TIP3    H138435   6.286   4.084   4.231  0.4943 -0.8995  1.4375
 5648TIP3    H238436   6.404   4.021   4.161  0.6832  0.3770  0.5786
 5649TIP3   OH238437   0.811   5.217   0.748 -0.2090 -0.0195  0.1092
 5649TIP3    H138438   0.795   5.130   0.784 -0.7726  0.1417  0.2666
 5649TIP3    H238439   0.787   5.210   0.656 -1.3670  0.2537  0.3719
 5650TIP3   OH238440   5.693   1.685  12.838  0.2163  0.0524 -0.1139
 5650TIP3    H138441   5.619   1.658  12.892  0.2047 -0.6214 -0.4597
 5650TIP3    H238442   5.657   1.754  12.782  0.1452  0.5279  0.4968
 5651TIP3   OH238443   4.454   2.046   1.353 -0.2249  0.7700  0.2673
 5651TIP3    H138444   4.372   2.090   1.372 -0.1103 -0.0620  3.2378
 5651TIP3    H238445   4.445   1.959   1.392  1.2284 -0.2186 -1.4087
 5652TIP3   OH238446   5.345   3.837   0.124 -0.2481  0.3735  0.1420
 5652TIP3    H138447   5.419   3.873   0.172 -0.2012 -1.1452  1.2627
 5652TIP3    H238448   5.303   3.776   0.185  0.0816 -1.9881 -1.8410
 5653TIP3   OH238449   5.699   2.649   1.504 -0.2438 -0.0746  0.5694
 5653TIP3    H138450   5.629   2.714   1.509 -0.2659 -0.0128 -0.4623
 5653TIP3    H238451   5.724   2.635   1.595  0.3986  2.0563  0.7683
 5654TIP3   OH238452   1.090   5.475   5.661 -0.1572  0.0333 -0.2000
 5654TIP3    H138453   1.105   5.441   5.749  0.8395 -1.5188 -0.9175
 5654TIP3    H238454   0.995   5.472   5.650 -0.3659  1.1196  1.1276
 5655TIP3   OH238455   3.519   3.700  10.809  0.1643  0.2187 -0.3435
 5655TIP3    H138456   3.530   3.772  10.747 -1.9915  0.1553 -0.8825
 5655TIP3    H238457   3.537   3.621  10.757  3.3300  0.2748  0.4409
 5656TIP3   OH238458   1.810   5.855   2.658 -0.2279  0.6606  0.0552
 5656TIP3    H138459   1.736   5.835   2.601  1.1090  0.3801 -1.6558
 5656TIP3    H238460   1.885   5.862   2.599  1.8388 -2.5992  1.9386
 5657TIP3   OH238461   1.861   3.836  16.164  0.0804  0.6637 -0.0052
 5657TIP3    H138462   1.861   3.778  16.240  0.1233  0.2100 -0.3407
 5657TIP3    H238463   1.824   3.918  16.195  0.2648  0.5401  0.5457
 5658TIP3   OH238464   3.102   3.779   2.350  0.0639  0.0282 -0.0235
 5658TIP3    H138465   3.045   3.829   2.409  1.0206  0.1090  0.8625
 5658TIP3    H238466   3.189   3.786   2.389  0.3115 -1.9365 -0.1454
 5659TIP3   OH238467   4.844   5.080  11.963  0.4628 -0.7222 -0.1463
 5659TIP3    H138468   4.797   5.078  11.880 -0.5102 -0.7518  0.3883
 5659TIP3    H238469   4.903   5.155  11.956  1.9182 -1.9198 -1.6467
 5660TIP3   OH238470   2.807   1.854  16.831 -0.6451  0.6398  0.2812
 5660TIP3    H138471   2.776   1.888  16.747  0.4457  0.1804 -0.3371
 5660TIP3    H238472   2.750   1.894  16.896 -0.8243  1.8656 -0.5894
 5661TIP3   OH238473   1.120   0.482   2.597 -0.2138  0.1385 -0.4288
 5661TIP3    H138474   1.055   0.505   2.530  0.3596  2.5245 -0.2578
 5661TIP3    H238475   1.094   0.533   2.674  1.0597  0.0462  0.0896
 5662TIP3   OH238476   5.153   4.428   2.330 -0.1321 -0.3760  0.0558
 5662TIP3    H138477   5.130   4.501   2.273 -0.9934  1.0167  2.0850
 5662TIP3    H238478   5.083   4.364   2.317 -0.8895  0.3877  0.2868
 5663TIP3   OH238479   0.821   1.253  16.184  0.5610  0.2467 -0.1913
 5663TIP3    H138480   0.820   1.227  16.276  1.5108 -0.2651 -0.3096
 5663TIP3    H238481   0.901   1.215  16.150  1.0018  1.7272 -0.8698
 5664TIP3   OH238482   6.071   3.519  15.363 -0.3608  0.4482 -0.1125
 5664TIP3    H138483   6.029   3.605  15.365  1.5328  1.4542 -0.8321
 5664TIP3    H238484   6.001   3.458  15.338 -1.4143  2.0045 -1.1038
 5665TIP3   OH238485   2.708   4.303   1.271 -0.0257  0.1313 -0.5842
 5665TIP3    H138486   2.797   4.327   1.245  0.3945 -0.6902  0.0485
 5665TIP3    H238487   2.651   4.344   1.205  0.6154  3.0207  0.4738
 5666TIP3   OH238488   5.724   4.702   0.887 -0.1175  0.1128 -0.3212
 5666TIP3    H138489   5.763   4.673   0.970 -2.0365 -1.5593  0.0841
 5666TIP3    H238490   5.759   4.640   0.822  0.5145  0.7354 -0.5898
 5667TIP3   OH238491   2.841   1.313   1.083  0.2920 -0.0380 -0.1763
 5667TIP3    H138492   2.753   1.311   1.121 -0.2325 -0.7325 -1.3651
 5667TIP3    H238493   2.899   1.285   1.154 -0.1949  2.0458  1.1530
 5668TIP3   OH238494   6.655   3.940   3.849  0.3887  0.7033  0.2835
 5668TIP3    H138495   6.715   3.868   3.829 -0.2042  0.5264 -0.9069
 5668TIP3    H238496   6.704   3.994   3.911  1.1695 -0.2671  0.5566
 5669TIP3   OH238497   2.557   6.772   0.945  0.1161  0.2946 -0.3691
 5669TIP3    H138498   2.618   6.740   1.012  0.4359  1.8635  0.1317
 5669TIP3    H238499   2.611   6.781   0.867  0.2871  0.6124 -0.2200
 5670TIP3   OH238500   0.666   0.362   1.894 -0.2594  0.0368  0.9404
 5670TIP3    H138501   0.615   0.308   1.955  0.4726 -0.3173  1.2516
 5670TIP3    H238502   0.750   0.374   1.938  0.0086  0.4207  0.3313
 5671TIP3   OH238503   6.569   1.151  11.001  0.5774  0.4219 -0.2665
 5671TIP3    H138504   6.543   1.090  11.071 -2.4662  0.4355 -1.2255
 5671TIP3    H238505   6.628   1.101  10.945 -0.8717 -1.2949 -0.3509
 5672TIP3   OH238506   1.904   4.099  14.236  0.3509 -0.4788 -0.3017
 5672TIP3    H138507   1.922   4.046  14.158  0.6602 -1.4114  0.3937
 5672TIP3    H238508   1.954   4.180  14.221  1.8773 -1.3774 -0.2652
 5673TIP3   OH238509   2.588   4.212   5.307  0.1867 -0.4493 -0.5762
 5673TIP3    H138510   2.646   4.226   5.382 -0.2642  1.6878 -0.5551
 5673TIP3    H238511   2.643   4.233   5.231  0.5133 -2.1803 -0.8603
 5674TIP3   OH238512   1.383   0.969  14.793 -1.1327  0.6325 -0.4895
 5674TIP3    H138513   1.396   1.022  14.872 -1.0346 -0.0128 -0.0525
 5674TIP3    H238514   1.472   0.951  14.761 -0.7406 -2.8823  1.8848
 5675TIP3   OH238515   5.245   3.970  15.417  0.1899 -0.1677 -0.0903
 5675TIP3    H138516   5.196   3.956  15.498  1.2715  0.2809  0.6650
 5675TIP3    H238517   5.299   3.891  15.408 -0.2483 -0.4116 -0.6187
 5676TIP3   OH238518   2.993   1.037  11.263 -0.0756  0.1609  0.4684
 5676TIP3    H138519   2.958   1.045  11.175 -1.0901 -0.0998  0.8420
 5676TIP3    H238520   2.989   0.944  11.283 -0.2751  0.2678  0.9590
 5677TIP3   OH238521   2.260   2.735  12.801 -0.0962 -0.1443  0.2593
 5677TIP3    H138522   2.293   2.796  12.735  0.4412  1.1456  1.6474
 5677TIP3    H238523   2.235   2.791  12.875 -0.1531 -1.5612  1.3621
 5678TIP3   OH238524   1.206   3.512  13.923 -1.0150 -0.5864 -0.4836
 5678TIP3    H138525   1.139   3.532  13.858 -1.3449 -3.0298 -0.9624
 5678TIP3    H238526   1.223   3.419  13.914  0.8372 -0.4968  1.1816
 5679TIP3   OH238527   1.090   1.764  10.166  0.4741  0.1015  0.3980
 5679TIP3    H138528   1.089   1.693  10.102  0.8427 -0.0183  0.5242
 5679TIP3    H238529   1.151   1.828  10.129 -0.1790  0.5506  0.0745
 5680TIP3   OH238530   2.423   4.925   2.052 -0.2987 -0.0561  0.2418
 5680TIP3    H138531   2.499   4.922   1.994 -0.4835  2.5955 -0.2797
 5680TIP3    H238532   2.408   4.834   2.077  2.0050 -0.8531 -0.9688
 5681TIP3   OH238533   4.613   5.106   0.588 -0.2371 -0.0706  0.7425
 5681TIP3    H138534   4.669   5.126   0.513 -0.5223  0.0360  0.5588
 5681TIP3    H238535   4.639   5.018   0.615 -1.3106 -0.8044 -0.5384
 5682TIP3   OH238536   2.511   4.249   1.655  0.4773 -0.1216 -0.1115
 5682TIP3    H138537   2.582   4.302   1.619 -1.0796  0.6375 -2.3052
 5682TIP3    H238538   2.534   4.159   1.632  0.7584  0.1175 -0.7965
 5683TIP3   OH238539   4.731   0.320   3.465  0.0695 -0.0300 -0.1208
 5683TIP3    H138540   4.703   0.412   3.459  2.8038  0.9679  0.8940
 5683TIP3    H238541   4.651   0.270   3.449 -2.1451  2.5079  1.9896
 5684TIP3   OH238542   4.912   4.656  12.989  0.2032  0.2492 -0.3735
 5684TIP3    H138543   4.946   4.624  12.905 -0.9268 -0.6673 -0.5046
 5684TIP3    H238544   4.849   4.589  13.017  1.2790  0.0003  1.7085
 5685TIP3   OH238545   1.917   6.430   0.666 -0.3957 -0.3499 -0.3053
 5685TIP3    H138546   1.849   6.366   0.687 -2.8142  1.8644 -0.8455
 5685TIP3    H238547   1.869   6.511   0.650  2.3124  1.0617 -1.9647
 5686TIP3   OH238548   4.799   2.408  13.994  0.2064 -0.2239  0.4201
 5686TIP3    H138549   4.863   2.340  14.016 -0.1122 -0.1411  1.6713
 5686TIP3    H238550   4.805   2.471  14.066  0.8019  1.3240 -0.9306
 5687TIP3   OH238551   4.249   1.548   0.918  0.1334 -0.3690  0.1058
 5687TIP3    H138552   4.180   1.521   0.858  1.2149 -0.0117 -1.3583
 5687TIP3    H238553   4.284   1.466   0.952 -0.7792 -0.5619  0.6121
 5688TIP3   OH238554   1.063   2.319  11.305 -0.4333  0.5411  0.0173
 5688TIP3    H138555   1.052   2.402  11.351  1.4455  0.8931 -0.0683
 5688TIP3    H238556   1.157   2.302  11.308 -0.1555  0.5731 -3.6648
 5689TIP3   OH238557   2.997   6.339  15.598  0.4730  0.1426 -0.1371
 5689TIP3    H138558   3.049   6.329  15.518  2.3623  1.3203  0.8978
 5689TIP3    H238559   2.997   6.433  15.616 -1.1960  0.0682  0.4686
 5690TIP3   OH238560   0.695   3.890   2.347 -0.0639 -0.2507  0.1448
 5690TIP3    H138561   0.752   3.823   2.308 -1.8256 -1.1973 -0.9737
 5690TIP3    H238562   0.749   3.932   2.413  2.2491 -0.4016 -1.5112
 5691TIP3   OH238563   4.956   4.589  16.153 -0.0262  0.1608  0.3405
 5691TIP3    H138564   4.892   4.616  16.087 -0.1821  1.0834  0.8544
 5691TIP3    H238565   4.910   4.599  16.237  0.1283 -1.1161  0.6006
 5692TIP3   OH238566   0.101   5.752   0.149  0.1521 -0.4798  0.2530
 5692TIP3    H138567   0.059   5.752   0.063 -1.5219  1.1785  1.0047
 5692TIP3    H238568   0.141   5.839   0.157  2.8751 -1.6091  0.0375
 5693TIP3   OH238569   2.342   1.595  12.056 -0.2862  0.4621 -0.5024
 5693TIP3    H138570   2.307   1.507  12.065 -1.4155  0.9163 -0.3241
 5693TIP3    H238571   2.303   1.644  12.129  0.6637  1.0106 -0.3391
 5694TIP3   OH238572   0.579   3.274   3.336 -0.2151  0.3283  0.3828
 5694TIP3    H138573   0.592   3.181   3.319 -2.8395  0.0052 -0.2833
 5694TIP3    H238574   0.661   3.315   3.307  1.1244 -1.7417  0.9687
 5695TIP3   OH238575   0.637   2.455  16.172  0.2241  0.3256  0.1929
 5695TIP3    H138576   0.710   2.425  16.226 -0.7548 -0.4769  1.1186
 5695TIP3    H238577   0.565   2.395  16.193 -0.0117 -0.5297 -2.5915
 5696TIP3   OH238578   5.527   2.865   1.574 -0.0673 -0.3264  0.6554
 5696TIP3    H138579   5.471   2.942   1.580  0.8423  0.2871  1.7092
 5696TIP3    H238580   5.579   2.867   1.655  0.0024 -2.0296  0.6834
 5697TIP3   OH238581   6.308   6.361   5.022  0.4782 -0.0966 -0.2038
 5697TIP3    H138582   6.294   6.406   4.938 -2.3001  0.6640  0.5685
 5697TIP3    H238583   6.225   6.317   5.039  1.6205 -1.8178  1.2945
 5698TIP3   OH238584   3.981   2.111  13.431  0.0631  0.1824  0.2351
 5698TIP3    H138585   3.903   2.127  13.378 -0.6001  0.0791  1.1469
 5698TIP3    H238586   3.995   2.016  13.425 -1.1356 -0.1406  1.6965
 5699TIP3   OH238587   2.088   5.648   3.366  0.4571  0.1919  0.6035
 5699TIP3    H138588   2.081   5.704   3.443  1.2495  1.4906 -0.2397
 5699TIP3    H238589   2.179   5.655   3.339  0.6360 -1.7029  0.5990
 5700TIP3   OH238590   5.934   2.272  12.039 -0.2258 -0.0134 -0.4614
 5700TIP3    H138591   6.003   2.333  12.065 -0.0986  1.1677 -3.2518
 5700TIP3    H238592   5.853   2.324  12.046 -0.3353 -0.0987 -1.0244
 5701TIP3   OH238593   4.394   1.493  15.557 -0.2201 -0.2998 -0.2217
 5701TIP3    H138594   4.309   1.464  15.524 -1.1702 -0.3103  2.0834
 5701TIP3    H238595   4.457   1.443  15.505 -1.6621 -1.7878 -0.6587
 5702TIP3   OH238596   5.196   3.789   0.460 -0.4814 -0.1768  0.2239
 5702TIP3    H138597   5.164   3.715   0.408 -1.6242 -0.3024  1.0662
 5702TIP3    H238598   5.120   3.847   0.469  0.2909  0.9230 -0.0868
 5703TIP3   OH238599   1.279   2.392   1.002  0.4681 -0.9393 -0.4743
 5703TIP3    H138600   1.362   2.416   0.961  0.8825 -2.2691 -0.4799
 5703TIP3    H238601   1.256   2.467   1.058  0.5964  0.3175 -2.0385
 5704TIP3   OH238602   0.102   5.203  15.354 -0.1186  0.2052  0.1436
 5704TIP3    H138603   0.078   5.252  15.432  2.5225  0.2170  1.0658
 5704TIP3    H238604   0.194   5.227  15.338 -0.3446 -0.3638 -2.5415
 5705TIP3   OH238605   0.344   5.678  11.284  0.6976  0.7016  0.0545
 5705TIP3    H138606   0.393   5.756  11.259 -0.9556  1.9143  0.4307
 5705TIP3    H238607   0.266   5.711  11.328  1.2278 -1.2095  2.7206
 5706TIP3   OH238608   4.563   0.973  11.502 -0.6201 -0.0405  0.3042
 5706TIP3    H138609   4.517   1.026  11.568 -1.9528  0.1915 -0.7741
 5706TIP3    H238610   4.536   0.884  11.521  0.8614 -0.2915  1.5062
 5707TIP3   OH238611   4.260   3.726   2.059 -0.0034 -0.0536 -0.7423
 5707TIP3    H138612   4.255   3.633   2.084 -2.4864 -0.2394 -1.6033
 5707TIP3    H238613   4.309   3.726   1.977 -0.7529 -0.7524 -1.2071
 5708TIP3   OH238614   4.253   5.737  10.984 -0.5944 -0.0072 -0.3017
 5708TIP3    H138615   4.186   5.754  10.918 -0.4632  1.6119 -0.0380
 5708TIP3    H238616   4.204   5.733  11.067 -0.3580  1.4027 -0.0807
 5709TIP3   OH238617   5.156   3.368   0.279  0.2406  0.0711 -0.8619
 5709TIP3    H138618   5.228   3.340   0.336 -0.5676 -0.7792 -0.2197
 5709TIP3    H238619   5.182   3.339   0.192 -0.2405 -2.1999 -0.3275
 5710TIP3   OH238620   1.086   5.936  13.871  0.0880  0.3314  0.4875
 5710TIP3    H138621   1.089   5.883  13.950 -1.5958  0.9248  0.9960
 5710TIP3    H238622   1.008   5.991  13.882 -1.6426 -1.2315 -2.6177
 5711TIP3   OH238623   3.470   3.702  12.232 -0.1978 -0.1217 -0.1403
 5711TIP3    H138624   3.559   3.688  12.200 -0.0313 -0.9392  0.6328
 5711TIP3    H238625   3.417   3.711  12.152 -0.0142 -3.4417 -0.8042
 5712TIP3   OH238626   3.721   0.858   4.767  0.4154  0.5144 -0.5824
 5712TIP3    H138627   3.816   0.853   4.758  0.7831 -0.1581  2.6429
 5712TIP3    H238628   3.695   0.930   4.709  3.0650  1.6988 -0.4061
 5713TIP3   OH238629   5.390   6.338  15.670  0.1488  0.1121  0.4219
 5713TIP3    H138630   5.423   6.315  15.757 -0.8181 -3.0110  0.0667
 5713TIP3    H238631   5.315   6.281  15.656  0.0637  0.7324 -2.3640
 5714TIP3   OH238632   6.836   1.031   2.563 -0.6223  0.4774  0.0411
 5714TIP3    H138633   6.746   0.996   2.557  0.0092 -2.2752  3.2509
 5714TIP3    H238634   6.828   1.107   2.620 -0.8467 -0.6004  1.5213
 5715TIP3   OH238635   5.566   5.371   4.582  0.2413  0.3515 -0.2882
 5715TIP3    H138636   5.629   5.440   4.604  0.8268 -0.4861  0.7418
 5715TIP3    H238637   5.588   5.345   4.493  1.5100 -0.0623  0.1230
 5716TIP3   OH238638   1.626   2.098   1.369  0.0104 -0.0054 -0.5331
 5716TIP3    H138639   1.546   2.141   1.398 -0.8675 -1.0703 -1.2718
 5716TIP3    H238640   1.625   2.012   1.412  1.6027  0.5552  0.7244
 5717TIP3   OH238641   6.206   0.321   2.630 -0.0398  0.6210 -0.4877
 5717TIP3    H138642   6.171   0.378   2.698  0.7066 -0.4962  0.8815
 5717TIP3    H238643   6.226   0.380   2.557 -1.5382  1.7386 -0.0353
 5718TIP3   OH238644   5.193   1.691   6.718 -0.1406  0.0612 -0.2568
 5718TIP3    H138645   5.264   1.709   6.657  0.0388  0.0864 -0.0401
 5718TIP3    H238646   5.210   1.603   6.750 -0.7335 -0.3113 -0.9234
 5719TIP3   OH238647   2.364   4.322   5.390 -0.2935 -0.4732 -0.2209
 5719TIP3    H138648   2.448   4.282   5.368 -0.5117 -0.3356 -1.3361
 5719TIP3    H238649   2.361   4.319   5.486  0.1861 -2.1107 -0.2177
 5720TIP3   OH238650   0.584   2.312  16.764  0.1895 -0.4641 -0.3592
 5720TIP3    H138651   0.495   2.313  16.798  1.2538 -0.0407  2.7218
 5720TIP3    H238652   0.581   2.369  16.687 -1.5947  2.1887  1.4991
 5721TIP3   OH238653   3.012   3.537  13.278 -0.0074  0.0699 -0.7492
 5721TIP3    H138654   2.951   3.598  13.320  1.8012  1.1702  0.4003
 5721TIP3    H238655   3.056   3.493  13.351  2.2976  1.0934 -1.4501
 5722TIP3   OH238656   5.239   1.120   4.325 -0.0783 -0.6913 -0.6697
 5722TIP3    H138657   5.317   1.065   4.318  0.2229 -0.5908  1.3811
 5722TIP3    H238658   5.268   1.197   4.373 -1.1717 -0.0946 -0.9403
 5723TIP3   OH238659   4.528   4.830  17.153  0.0328 -0.2630 -0.2894
 5723TIP3    H138660   4.504   4.789  17.236 -1.7369 -0.7352 -0.9874
 5723TIP3    H238661   4.521   4.924  17.170  0.5773 -0.3325  0.3393
 5724TIP3   OH238662   4.660   5.865   1.725  0.0763 -0.2639  0.1063
 5724TIP3    H138663   4.706   5.876   1.642  3.7512 -0.4475  1.9533
 5724TIP3    H238664   4.642   5.954   1.755 -3.9306 -0.1094 -1.9863
 5725TIP3   OH238665   3.670   1.197   3.556  0.1737  0.2364 -0.3758
 5725TIP3    H138666   3.577   1.197   3.579  0.5403  0.3496  1.2787
 5725TIP3    H238667   3.703   1.115   3.593  0.8281  0.4386 -0.5118
 5726TIP3   OH238668   2.283   3.202  12.645 -0.6381 -0.3673 -0.3832
 5726TIP3    H138669   2.207   3.258  12.634  0.3612  0.6834 -2.6213
 5726TIP3    H238670   2.329   3.239  12.720 -2.3779 -1.1705  1.1577
 5727TIP3   OH238671   5.670   3.308  17.191  0.6520  0.2424  0.3889
 5727TIP3    H138672   5.576   3.295  17.201  0.5194  0.5074 -0.4956
 5727TIP3    H238673   5.709   3.242  17.248 -0.0534 -1.8231 -1.3765
 5728TIP3   OH238674   1.336   2.266  12.178 -0.2492 -0.2683 -0.4306
 5728TIP3    H138675   1.414   2.211  12.185 -0.6179 -0.8253 -0.5712
 5728TIP3    H238676   1.355   2.326  12.106  0.1127 -0.2964 -0.3579
 5729TIP3   OH238677   2.720   5.866   3.879 -0.4665  0.2822 -0.1654
 5729TIP3    H138678   2.651   5.861   3.944 -0.6062  0.8051 -0.2685
 5729TIP3    H238679   2.734   5.776   3.852 -1.3562  0.2066 -0.4031
 5730TIP3   OH238680   3.712   2.097  16.341  0.2947 -0.7937  0.6107
 5730TIP3    H138681   3.676   2.116  16.427 -0.4939  1.8449 -0.2345
 5730TIP3    H238682   3.804   2.124  16.347  0.0906 -0.0545  0.4675
 5731TIP3   OH238683   5.788   1.543   4.318 -0.3215 -0.4014 -0.0219
 5731TIP3    H138684   5.822   1.627   4.286 -2.3676  0.5850  0.2804
 5731TIP3    H238685   5.850   1.518   4.386  1.0901  0.1422 -1.0289
 5732TIP3   OH238686   6.431   0.539  12.306  1.0453  0.0151 -0.6363
 5732TIP3    H138687   6.519   0.565  12.335  0.4709  1.2275  0.1105
 5732TIP3    H238688   6.399   0.615  12.257 -0.2681  0.3563  0.6608
 5733TIP3   OH238689   1.609   0.088  13.114 -0.7769  0.4787 -0.5348
 5733TIP3    H138690   1.598   0.124  13.026  0.2089  2.3505  0.0399
 5733TIP3    H238691   1.668   0.013  13.102  2.1771  2.7143 -1.1855
 5734TIP3   OH238692   6.226   3.354  13.531 -0.3108  0.6958 -0.7218
 5734TIP3    H138693   6.301   3.305  13.566 -0.6523  0.0904 -0.8267
 5734TIP3    H238694   6.262   3.401  13.455 -0.5368 -1.4856 -2.2716
 5735TIP3   OH238695   0.610   1.546  12.229  0.2246  0.0854  0.4911
 5735TIP3    H138696   0.568   1.597  12.160 -0.3632 -0.4966  0.4098
 5735TIP3    H238697   0.670   1.487  12.183  1.2569  1.0200  0.6171
 5736TIP3   OH238698   5.272   0.436   3.398  0.1258  0.6630  0.3273
 5736TIP3    H138699   5.206   0.397   3.456 -1.2669  2.4984  0.0730
 5736TIP3    H238700   5.332   0.481   3.456  0.9155 -0.5991  0.5287
 5737TIP3   OH238701   6.689   4.189  13.176 -0.5868 -0.3383 -0.4195
 5737TIP3    H138702   6.705   4.121  13.111  1.3970  1.0310 -1.4474
 5737TIP3    H238703   6.619   4.154  13.231  0.0438 -2.9796 -1.1979
 5738TIP3   OH238704   6.083   1.888  12.637 -0.2550  0.3318  0.3057
 5738TIP3    H138705   6.008   1.898  12.695 -0.8808 -1.3032 -0.1508
 5738TIP3    H238706   6.134   1.817  12.676  1.0654  1.3972  0.5905
 5739TIP3   OH238707   6.686   3.736  11.261  0.1057 -0.5605 -0.8675
 5739TIP3    H138708   6.599   3.714  11.229  0.1738 -0.2140 -1.2970
 5739TIP3    H238709   6.712   3.813  11.211  0.1477  0.1067  0.1454
 5740TIP3   OH238710   1.997   0.426  10.895  0.2090  0.1035  0.1385
 5740TIP3    H138711   1.957   0.407  10.980  1.7638 -1.7292  0.5372
 5740TIP3    H238712   2.053   0.502  10.911  1.3090 -0.8735  1.0607
 5741TIP3   OH238713   5.198   4.450  15.085 -0.6064 -0.1089  0.6199
 5741TIP3    H138714   5.287   4.482  15.098  0.3039 -2.0607 -0.4090
 5741TIP3    H238715   5.178   4.402  15.165  0.9996 -3.3005 -0.7304
 5742TIP3   OH238716   6.063   3.216   0.757  0.5307  0.5975 -0.0890
 5742TIP3    H138717   5.990   3.174   0.711  0.5461 -0.7396  1.0274
 5742TIP3    H238718   6.140   3.197   0.704  0.3331  0.3965 -0.3050
 5743TIP3   OH238719   4.675   4.336   0.239  0.1929 -0.3543  0.1219
 5743TIP3    H138720   4.633   4.403   0.292  0.0413 -0.8727  0.6627
 5743TIP3    H238721   4.768   4.344   0.261  0.6069  1.6073 -1.9733
 5744TIP3   OH238722   6.244   3.096  15.255  0.5494  0.2416 -0.4598
 5744TIP3    H138723   6.334   3.105  15.286  0.1103  2.6919  0.3292
 5744TIP3    H238724   6.244   3.140  15.169 -0.5169  3.5249  1.0426
 5745TIP3   OH238725   2.758   0.982  11.503  0.4044 -0.6025  0.1320
 5745TIP3    H138726   2.805   0.952  11.581 -0.4652 -0.4141  0.7483
 5745TIP3    H238727   2.766   0.910  11.440 -2.7034 -2.8171  1.9927
 5746TIP3   OH238728   2.742   6.512  11.405  0.3705  0.5244  0.6896
 5746TIP3    H138729   2.795   6.591  11.398  1.7442 -0.4047  0.1173
 5746TIP3    H238730   2.805   6.441  11.417 -0.8121 -0.5081  1.0905
 5747TIP3   OH238731   2.503   5.653   4.989 -0.0372  0.8242 -0.4302
 5747TIP3    H138732   2.539   5.742   4.998  0.8498  0.5502 -1.0843
 5747TIP3    H238733   2.476   5.629   5.077 -1.0528  2.0499 -0.3759
 5748TIP3   OH238734   6.298   4.729  12.769 -0.1055 -0.0901 -0.5406
 5748TIP3    H138735   6.379   4.748  12.722  0.7411  0.7914  1.1946
 5748TIP3    H238736   6.312   4.644  12.809 -0.5243 -0.4881 -1.2242
 5749TIP3   OH238737   1.060   1.266  12.037  0.2534  0.2217  0.2454
 5749TIP3    H138738   1.081   1.336  12.099 -1.2060 -0.8574  2.0521
 5749TIP3    H238739   1.048   1.311  11.953 -1.9110  2.3797  1.5884
 5750TIP3   OH238740   0.458   1.950   6.458  0.3153  0.2196 -0.0174
 5750TIP3    H138741   0.427   1.991   6.538  1.0557 -0.7532  0.7895
 5750TIP3    H238742   0.545   1.988   6.444 -0.6907  2.1435 -1.6879
 5751TIP3   OH238743   2.532   0.138  13.205  0.1335  0.1455  0.5757
 5751TIP3    H138744   2.466   0.074  13.179 -0.9246  1.6361 -0.5735
 5751TIP3    H238745   2.495   0.183  13.281 -0.6640  1.6396 -0.6509
 5752TIP3   OH238746   1.694   2.299   3.008 -0.2917  0.0209 -0.4073
 5752TIP3    H138747   1.714   2.229   3.070 -1.6910 -1.3822 -1.4457
 5752TIP3    H238748   1.627   2.352   3.051 -0.5218 -0.3523 -0.3004
 5753TIP3   OH238749   2.422   3.003   3.733 -0.3557 -0.0634 -0.4612
 5753TIP3    H138750   2.413   3.045   3.648  0.7913 -1.2143 -1.1923
 5753TIP3    H238751   2.333   2.996   3.766 -1.0915 -1.5067 -2.5420
 5754TIP3   OH238752   3.690   5.661  14.309  0.5466  1.1211  0.7043
 5754TIP3    H138753   3.702   5.588  14.370  0.0641  1.0032  0.6639
 5754TIP3    H238754   3.721   5.627  14.225 -0.2059  0.7641  0.5658
 5755TIP3   OH238755   6.437   6.632   1.323  0.1866  0.3905 -0.7670
 5755TIP3    H138756   6.410   6.603   1.410 -1.5942  2.0193 -0.7160
 5755TIP3    H238757   6.531   6.615   1.321 -0.2114 -2.5227  0.2927
 5756TIP3   OH238758   5.735   3.127   5.695 -0.2042  0.6860 -0.4745
 5756TIP3    H138759   5.760   3.036   5.680  1.5205  0.9623  0.5098
 5756TIP3    H238760   5.812   3.178   5.672  0.3994  1.5748  2.9360
 5757TIP3   OH238761   4.850   2.456   1.772 -0.1142 -0.7789 -0.8449
 5757TIP3    H138762   4.786   2.522   1.798  1.5027  1.4917 -2.2550
 5757TIP3    H238763   4.815   2.417   1.692  0.1255  0.3491 -1.5265
 5758TIP3   OH238764   2.225   1.425  13.338 -0.0134  0.2540  0.5442
 5758TIP3    H138765   2.286   1.455  13.270  0.5556 -0.8018  0.5783
 5758TIP3    H238766   2.159   1.374  13.291 -1.3142  1.9474  0.4079
 5759TIP3   OH238767   5.500   2.040   2.409 -0.0569 -0.2638  0.3110
 5759TIP3    H138768   5.521   1.957   2.366  1.1945 -0.0518  0.4729
 5759TIP3    H238769   5.465   2.095   2.339  0.2765 -0.5179 -0.0655
 5760TIP3   OH238770   4.495   3.309  16.793  0.1309 -0.0100  0.3005
 5760TIP3    H138771   4.454   3.308  16.880 -0.6032 -0.2551 -0.0447
 5760TIP3    H238772   4.442   3.249  16.741  0.8555 -0.2285 -0.1939
 5761TIP3   OH238773   1.668   6.146   1.141  0.1927 -0.0384 -0.6523
 5761TIP3    H138774   1.762   6.136   1.127  0.2460 -1.5152  0.4587
 5761TIP3    H238775   1.658   6.150   1.236 -0.8896 -0.2497 -0.7424
 5762TIP3   OH238776   5.140   6.539   1.752 -0.2710  0.7094 -0.0593
 5762TIP3    H138777   5.174   6.612   1.700 -0.6331 -0.0867 -1.4638
 5762TIP3    H238778   5.046   6.539   1.736  0.0954 -2.6389 -3.7251
 5763TIP3   OH238779   3.183   6.329  13.014  0.4218  0.1241 -0.1221
 5763TIP3    H138780   3.221   6.242  13.002  1.4536  0.7392 -1.6364
 5763TIP3    H238781   3.141   6.349  12.930 -0.5160  0.7634  0.4785
 5764TIP3   OH238782   4.568   3.190   6.693 -0.3782 -0.0955  0.3858
 5764TIP3    H138783   4.602   3.276   6.719 -0.7940  0.3043 -0.3561
 5764TIP3    H238784   4.481   3.186   6.732 -0.7744  0.2694 -0.4161
 5765TIP3   OH238785   3.346   5.343   5.138 -0.4953  0.0721 -0.4137
 5765TIP3    H138786   3.440   5.324   5.138 -0.4185  0.4416 -0.2589
 5765TIP3    H238787   3.321   5.342   5.230 -1.0934 -2.1123 -0.5419
 5766TIP3   OH238788   3.417   5.662  15.636  0.1611 -0.0210 -0.3368
 5766TIP3    H138789   3.469   5.682  15.714 -0.0095 -2.4107  0.4976
 5766TIP3    H238790   3.463   5.705  15.564  3.2960 -1.8758  0.3724
 5767TIP3   OH238791   4.374   1.224  15.382 -0.0010 -0.5105  0.3282
 5767TIP3    H138792   4.290   1.252  15.419 -0.8830 -2.2708 -0.2506
 5767TIP3    H238793   4.402   1.151  15.437  0.0395 -1.3603 -0.7862
 5768TIP3   OH238794   0.912   5.409   1.795  0.1692 -0.1152 -0.2552
 5768TIP3    H138795   0.895   5.442   1.707 -1.1454  0.1423  0.0754
 5768TIP3    H238796   0.995   5.449   1.820  0.1960  0.3806 -1.0973
 5769TIP3   OH238797   6.110   5.402  14.429 -0.1573  0.3598 -0.4643
 5769TIP3    H138798   6.058   5.349  14.489  0.8108  0.2065  0.2642
 5769TIP3    H238799   6.198   5.400  14.466 -0.0155  2.1617 -0.6321
 5770TIP3   OH238800   6.216   3.252  13.015  0.5513 -0.2039 -0.4053
 5770TIP3    H138801   6.229   3.169  13.060  1.8759  0.1674 -0.0728
 5770TIP3    H238802   6.196   3.314  13.084 -1.6515 -0.4264 -0.7516
 5771TIP3   OH238803   0.683   5.589  15.501 -0.9882 -0.0694 -0.1657
 5771TIP3    H138804   0.698   5.680  15.475 -1.5405 -0.1219 -0.7014
 5771TIP3    H238805   0.613   5.559  15.443 -1.4167 -0.5720  0.5942
 5772TIP3   OH238806   2.526   2.840  14.220  0.9917  0.4125  0.3765
 5772TIP3    H138807   2.619   2.858  14.202  0.4820  1.1792 -1.8857
 5772TIP3    H238808   2.513   2.750  14.190  0.9121  0.4783  0.2090
 5773TIP3   OH238809   1.464   4.680  13.016  0.0667 -0.3286 -0.1401
 5773TIP3    H138810   1.469   4.589  12.988 -2.6455 -0.0046 -1.9941
 5773TIP3    H238811   1.536   4.689  13.079  0.8096 -3.5384 -0.3468
 5774TIP3   OH238812   5.585   5.136  11.860  0.3100 -0.2132  0.1223
 5774TIP3    H138813   5.634   5.204  11.905 -2.9899  1.7669  1.1248
 5774TIP3    H238814   5.558   5.076  11.930  0.1061 -0.4691 -0.1727
 5775TIP3   OH238815   3.522   3.554   0.125  0.4093 -0.0361  0.4489
 5775TIP3    H138816   3.505   3.505   0.206 -1.3252  0.4273  0.4177
 5775TIP3    H238817   3.589   3.618   0.149 -0.4073  0.3986  1.6729
 5776TIP3   OH238818   3.251   5.821  16.967  0.0608  0.3769  0.0177
 5776TIP3    H138819   3.269   5.891  17.030 -0.4215 -0.4315  1.0921
 5776TIP3    H238820   3.202   5.756  17.017  0.4815 -0.7286 -0.9639
 5777TIP3   OH238821   3.528   6.650  14.390  0.0006 -0.1163  0.1769
 5777TIP3    H138822   3.615   6.613  14.378 -0.2521 -1.3104  1.6752
 5777TIP3    H238823   3.472   6.576  14.414 -0.9836  0.9056  1.2172
 5778TIP3   OH238824   4.400   5.576  16.565 -0.8121  0.3275 -0.1193
 5778TIP3    H138825   4.410   5.530  16.648  1.2105  1.2493  0.1928
 5778TIP3    H238826   4.469   5.540  16.509  0.4535  2.4904 -0.0522
 5779TIP3   OH238827   0.738   2.713   6.276 -0.4450  0.0214 -0.2478
 5779TIP3    H138828   0.688   2.794   6.260  1.4537  1.0517 -1.2473
 5779TIP3    H238829   0.717   2.691   6.367 -2.0182  0.8948 -0.3533
 5780TIP3   OH238830   0.994   3.256   0.719  0.4335 -0.2577  0.5202
 5780TIP3    H138831   1.064   3.317   0.696  1.7345 -0.7553  2.8424
 5780TIP3    H238832   1.006   3.182   0.659 -0.9345  1.4759 -2.0668
 5781TIP3   OH238833   3.144   3.566   1.615 -0.1882 -0.3432 -0.3300
 5781TIP3    H138834   3.117   3.570   1.707 -1.6339 -0.8963 -0.7019
 5781TIP3    H238835   3.153   3.473   1.596 -2.0781 -0.3861 -1.2993
 5782TIP3   OH238836   4.232   4.461   4.118 -0.5831 -0.1897  0.6312
 5782TIP3    H138837   4.232   4.556   4.135 -2.0077  0.1113 -0.7502
 5782TIP3    H238838   4.152   4.429   4.161 -1.9038 -0.1366 -1.6254
 5783TIP3   OH238839   2.151   4.938  14.357  0.0956 -0.0368 -0.0765
 5783TIP3    H138840   2.201   5.014  14.328  0.3844  0.2548  1.1293
 5783TIP3    H238841   2.191   4.914  14.441  0.1544 -1.6460 -0.5237
 5784TIP3   OH238842   1.176   6.149  14.353  0.1078  0.0239  0.1898
 5784TIP3    H138843   1.204   6.213  14.288  0.4040 -0.9974 -0.7108
 5784TIP3    H238844   1.257   6.124  14.398 -0.0280  0.3730  0.6377
 5785TIP3   OH238845   0.969   0.643  13.590  0.0380  0.1003 -0.0017
 5785TIP3    H138846   1.003   0.623  13.503  0.1453 -0.1880  0.1070
 5785TIP3    H238847   0.987   0.737  13.602 -0.1607  0.1870 -0.3697
 5786TIP3   OH238848   2.058   1.214   3.019 -0.0843 -0.8531  0.1583
 5786TIP3    H138849   2.081   1.130   3.057  0.4305 -1.1901 -0.8480
 5786TIP3    H238850   2.124   1.275   3.052 -0.3825 -0.8644  0.7865
 5787TIP3   OH238851   3.182   5.824  12.764  0.1894  0.0098 -0.6823
 5787TIP3    H138852   3.205   5.915  12.781 -0.7798  0.1912 -0.2382
 5787TIP3    H238853   3.167   5.819  12.670 -0.1500  0.4119 -0.6515
 5788TIP3   OH238854   1.859   3.285   6.477 -0.3559 -0.3491  0.0056
 5788TIP3    H138855   1.819   3.206   6.515 -0.6115 -0.8880 -1.3328
 5788TIP3    H238856   1.786   3.347   6.470 -0.2200 -0.0910  0.7625
 5789TIP3   OH238857   4.068   5.385   0.366 -0.6571  0.6400  0.0368
 5789TIP3    H138858   4.131   5.401   0.436  0.0252 -0.3417 -0.3250
 5789TIP3    H238859   4.065   5.289   0.358 -1.8552  0.6845 -0.2664
 5790TIP3   OH238860   3.443   1.132   3.337  0.4786 -0.0838 -0.0169
 5790TIP3    H138861   3.466   1.197   3.404 -0.1564  1.4063 -1.1922
 5790TIP3    H238862   3.348   1.140   3.329  0.2037 -2.1096  0.7177
 5791TIP3   OH238863   1.958   6.637  10.320 -0.4792  0.3237 -0.5846
 5791TIP3    H138864   2.016   6.583  10.267  0.1558  0.3671  0.0451
 5791TIP3    H238865   1.984   6.618  10.410 -1.9889 -0.2746 -0.2310
 5792TIP3   OH238866   6.656   1.921  13.456 -0.5731  0.0958 -0.6233
 5792TIP3    H138867   6.585   1.977  13.490 -0.3803  0.3412 -0.6201
 5792TIP3    H238868   6.645   1.838  13.502 -0.7760  0.1776 -0.5210
 5793TIP3   OH238869   2.069   1.857  14.079 -0.2395 -0.6793 -0.0152
 5793TIP3    H138870   2.074   1.894  14.167 -0.9877 -0.7030  0.0423
 5793TIP3    H238871   1.976   1.843  14.064 -0.2250  0.4252 -1.2769
 5794TIP3   OH238872   4.294   5.753  13.254  0.4597  0.6668  0.1217
 5794TIP3    H138873   4.254   5.686  13.200  2.1173 -0.3631  0.0929
 5794TIP3    H238874   4.304   5.828  13.195  0.7342  0.1242 -0.5348
 5795TIP3   OH238875   2.128   2.447   2.554 -0.1040 -0.6059 -0.9559
 5795TIP3    H138876   2.136   2.510   2.482 -1.4272 -0.2943 -0.8643
 5795TIP3    H238877   2.144   2.499   2.633 -1.7833 -0.1974 -0.8375
 5796TIP3   OH238878   2.057   4.527  16.816  0.4062  0.6460 -0.1594
 5796TIP3    H138879   1.988   4.523  16.882 -0.4052 -0.8447 -1.0155
 5796TIP3    H238880   2.122   4.586  16.852 -1.0954  1.7374  0.9090
 5797TIP3   OH238881   4.166   5.488  16.182  0.0396 -0.2135  0.2833
 5797TIP3    H138882   4.099   5.556  16.188  0.4518  0.1985  0.2430
 5797TIP3    H238883   4.238   5.529  16.134  1.2999  0.1260  2.3619
 5798TIP3   OH238884   5.962   6.292   1.963 -0.0933 -0.1829  0.3105
 5798TIP3    H138885   6.042   6.243   1.942  0.5790  1.3084 -0.7922
 5798TIP3    H238886   5.993   6.378   1.993 -1.2398  1.1095 -1.9247
 5799TIP3   OH238887   6.585   3.604  16.042 -0.0938  1.0883  0.4976
 5799TIP3    H138888   6.571   3.522  16.089  2.6247  0.1693 -0.1058
 5799TIP3    H238889   6.498   3.631  16.014 -1.1769 -1.0870  1.5605
 5800TIP3   OH238890   2.929   6.263   0.534  0.0810  0.4054 -0.2452
 5800TIP3    H138891   2.871   6.339   0.522  1.4231  1.3629 -0.9136
 5800TIP3    H238892   2.870   6.188   0.536 -1.0957  1.2221 -2.0656
 5801TIP3   OH238893   3.237   6.674  14.050 -0.0865 -0.2614 -0.3570
 5801TIP3    H138894   3.178   6.696  13.977 -0.3655 -1.6433 -0.5869
 5801TIP3    H238895   3.213   6.735  14.119 -0.6912  0.2527 -0.9991
 5802TIP3   OH238896   4.139   0.330   0.087 -0.7487  0.1581  0.2990
 5802TIP3    H138897   4.050   0.297   0.078 -0.7063  0.5671 -2.2417
 5802TIP3    H238898   4.173   0.334  -0.002  1.5294  0.8480  1.1115
 5803TIP3   OH238899   2.092   4.423  11.811  0.4016 -0.0489  0.2694
 5803TIP3    H138900   1.999   4.412  11.830  0.1158  1.5889 -0.0687
 5803TIP3    H238901   2.130   4.453  11.893  0.1070  1.9467 -0.2786
 5804TIP3   OH238902   3.641   3.553   1.688 -0.4130 -0.0619 -0.0899
 5804TIP3    H138903   3.708   3.591   1.745  1.1022 -0.1208 -1.7375
 5804TIP3    H238904   3.565   3.609   1.699  0.4419  0.9911  0.6319
 5805TIP3   OH238905   0.635   2.178   0.860  0.3371  0.1403  0.1176
 5805TIP3    H138906   0.650   2.231   0.781  3.6556 -0.8325 -0.0500
 5805TIP3    H238907   0.616   2.090   0.826 -0.7077  0.2402  0.4207
 5806TIP3   OH238908   5.551   3.358  15.050 -0.2442  0.6760 -0.2398
 5806TIP3    H138909   5.570   3.276  15.096  0.2076  1.5448  1.1667
 5806TIP3    H238910   5.632   3.380  15.005 -0.8627 -0.4901 -2.0501
 5807TIP3   OH238911   0.873   1.837  12.067  0.0335 -0.0567 -0.2113
 5807TIP3    H138912   0.875   1.797  12.154 -0.2221  1.9870  0.8060
 5807TIP3    H238913   0.781   1.837  12.043 -0.0758  0.6129  0.1672
 5808TIP3   OH238914   5.336   4.251   2.445  0.2766 -0.1341 -0.2965
 5808TIP3    H138915   5.267   4.307   2.410 -0.6503 -1.8240 -1.3091
 5808TIP3    H238916   5.408   4.260   2.383 -0.5387 -1.3839 -1.4908
 5809TIP3   OH238917   0.697   2.682   1.943 -0.6994  0.4343  0.1941
 5809TIP3    H138918   0.736   2.701   1.858  0.5435 -1.3402  0.2897
 5809TIP3    H238919   0.756   2.724   2.006  0.1551 -0.7930  0.2616
 5810TIP3   OH238920   4.427   0.224   4.132 -0.3466 -0.0384 -0.1947
 5810TIP3    H138921   4.516   0.237   4.164 -0.8281  0.5958  0.9480
 5810TIP3    H238922   4.416   0.292   4.065  0.3566 -0.7800 -1.0883
 5811TIP3   OH238923   1.263   1.043   5.018 -0.0304 -0.2465  0.1198
 5811TIP3    H138924   1.173   1.013   5.003  0.0217 -0.8270  0.8931
 5811TIP3    H238925   1.252   1.129   5.060 -0.2600 -0.9107  1.4515
 5812TIP3   OH238926   6.437   2.819  13.172 -0.1970 -0.2424  0.1593
 5812TIP3    H138927   6.511   2.813  13.233  0.5573 -2.2445 -0.8680
 5812TIP3    H238928   6.374   2.755  13.204 -0.8084  0.3374  0.1320
 5813TIP3   OH238929   4.580   2.243   1.193 -0.0716 -1.0243 -0.2271
 5813TIP3    H138930   4.674   2.224   1.190  0.1779 -0.0784  0.9042
 5813TIP3    H238931   4.540   2.158   1.213  0.5757 -1.3553 -0.3021
 5814TIP3   OH238932   3.449   1.150   2.235 -0.2258 -0.6041  0.4273
 5814TIP3    H138933   3.490   1.225   2.278 -0.0034 -0.4932  0.0337
 5814TIP3    H238934   3.523   1.093   2.211 -0.1962  0.0160 -1.0894
 5815TIP3   OH238935   1.769   5.707  13.551 -0.1775 -0.1395 -0.0748
 5815TIP3    H138936   1.812   5.636  13.598 -0.0933 -0.2209 -0.2723
 5815TIP3    H238937   1.786   5.689  13.459  1.2090  1.0141 -0.0688
 5816TIP3   OH238938   3.845   0.788   6.372 -0.3783 -0.2771 -0.4519
 5816TIP3    H138939   3.929   0.769   6.331 -0.9355 -1.5606 -1.0642
 5816TIP3    H238940   3.864   0.856   6.437  1.1264 -0.5725 -0.5531
 5817TIP3   OH238941   0.530   0.752   0.012  0.1202  0.0433 -0.7480
 5817TIP3    H138942   0.590   0.798   0.071  0.0864  0.0108 -0.6886
 5817TIP3    H238943   0.573   0.757  -0.074 -0.2741  0.8880 -0.9023
 5818TIP3   OH238944   6.533   2.418  11.772 -0.7074 -0.0950 -0.1028
 5818TIP3    H138945   6.467   2.383  11.712  0.3929 -0.5420 -1.0926
 5818TIP3    H238946   6.531   2.513  11.757 -1.4333 -0.0609  0.2019
 5819TIP3   OH238947   0.098   1.048  13.273  0.6148 -0.1931  0.5978
 5819TIP3    H138948   0.186   1.014  13.264  0.9429  0.2453  1.8610
 5819TIP3    H238949   0.042   0.980  13.236  1.4899 -0.3581 -0.4522
 5820TIP3   OH238950   5.130   4.445  16.644 -0.3794 -0.0004 -0.0666
 5820TIP3    H138951   5.216   4.468  16.609 -0.6656  1.5865  0.1900
 5820TIP3    H238952   5.123   4.495  16.724 -0.1806 -2.7554  1.8136
 5821TIP3   OH238953   0.489   5.763  13.232  0.0745  0.2164  0.3771
 5821TIP3    H138954   0.546   5.691  13.261 -0.2877  0.2639  1.2448
 5821TIP3    H238955   0.433   5.723  13.166  0.9059  0.0929 -0.2661
 5822TIP3   OH238956   5.171   2.844   6.339 -0.2181  0.5464 -0.5543
 5822TIP3    H138957   5.133   2.927   6.310  1.1256  1.6609  0.6727
 5822TIP3    H238958   5.123   2.777   6.291 -0.0353  2.1035 -3.0998
 5823TIP3   OH238959   6.413   0.057   1.271  0.2755 -0.5854 -0.0760
 5823TIP3    H138960   6.483   0.068   1.336 -0.4533 -1.0513  0.8230
 5823TIP3    H238961   6.398  -0.037   1.268  0.8111 -0.6401 -1.5082
 5824TIP3   OH238962   3.206   3.693  12.091 -0.0367 -0.4461 -0.2815
 5824TIP3    H138963   3.169   3.649  12.168 -0.9806 -0.9144 -0.9832
 5824TIP3    H238964   3.193   3.787  12.108  2.5676 -0.2928  1.5188
 5825TIP3   OH238965   1.175   1.641  12.877 -0.1647 -0.1679 -0.7039
 5825TIP3    H138966   1.107   1.574  12.881  0.2302 -0.6251 -1.3934
 5825TIP3    H238967   1.230   1.615  12.803  0.2579  0.6693 -0.6995
 5826TIP3   OH238968   5.648   2.648   5.024  0.4228 -0.1836 -0.2290
 5826TIP3    H138969   5.713   2.621   4.960  1.7369  0.7340  0.6605
 5826TIP3    H238970   5.577   2.685   4.972  0.0531 -2.2174 -1.2759
 5827TIP3   OH238971   5.354   0.611  14.734 -0.1292 -0.5638  0.2685
 5827TIP3    H138972   5.326   0.562  14.657  1.9747 -0.8734 -0.3603
 5827TIP3    H238973   5.339   0.703  14.711 -2.2743 -0.7630  0.6976
 5828TIP3   OH238974   0.911   1.967  12.552  0.0454 -0.2147 -0.0021
 5828TIP3    H138975   0.948   1.922  12.628 -1.2156 -0.9495  0.2023
 5828TIP3    H238976   0.964   2.046  12.543 -0.5049  0.5039  2.3707
 5829TIP3   OH238977   5.728   6.002  14.894  0.0175 -0.4219  0.4215
 5829TIP3    H138978   5.676   5.922  14.902  0.6332 -0.9386 -0.5396
 5829TIP3    H238979   5.672   6.071  14.928 -1.6681 -0.8102 -1.4351
 5830TIP3   OH238980   6.256   0.315  11.934 -0.0019  0.5269 -0.5494
 5830TIP3    H138981   6.323   0.295  12.000 -0.5983  1.5990  0.4290
 5830TIP3    H238982   6.298   0.377  11.875  0.4585 -0.2457 -1.0434
 5831TIP3   OH238983   1.294   3.286  15.520 -0.0920  0.0413 -0.3513
 5831TIP3    H138984   1.345   3.297  15.440  1.7624 -1.0018  0.6259
 5831TIP3    H238985   1.359   3.280  15.590 -1.6471  1.1484  1.3030
 5832TIP3   OH238986   3.149   2.676  13.020  0.1344  0.0061 -0.3681
 5832TIP3    H138987   3.127   2.655  13.111 -1.7036 -0.1521 -0.8179
 5832TIP3    H238988   3.065   2.680  12.975  1.0302 -0.3586 -2.1672
 5833TIP3   OH238989   4.910   6.195  15.930  0.4560 -0.1810  0.4329
 5833TIP3    H138990   4.922   6.287  15.908 -0.6243 -0.1149  0.0338
 5833TIP3    H238991   4.914   6.149  15.845  0.7184 -0.4661  0.5970
 5834TIP3   OH238992   3.636   0.601   5.269 -0.0592  0.2455  0.1316
 5834TIP3    H138993   3.620   0.691   5.240  0.1564  0.1885 -0.1671
 5834TIP3    H238994   3.610   0.547   5.195 -3.5405 -0.1842  1.4657
 5835TIP3   OH238995   6.534   1.349  12.923 -0.3188 -0.6163  0.7339
 5835TIP3    H138996   6.569   1.263  12.945 -0.1305 -0.9546 -0.7260
 5835TIP3    H238997   6.469   1.331  12.855  1.3654  0.5290 -1.3151
 5836TIP3   OH238998   5.572   2.346  16.258  0.1216 -0.2485 -0.1748
 5836TIP3    H138999   5.617   2.302  16.330 -0.5469 -2.9436 -1.2691
 5836TIP3    H239000   5.479   2.331  16.275 -0.0238 -2.6533 -2.4605
 5837TIP3   OH239001   2.357   3.629   0.530  0.0713  0.2828  0.5015
 5837TIP3    H139002   2.400   3.695   0.476 -0.0901 -1.3802 -1.8068
 5837TIP3    H239003   2.324   3.678   0.605  1.8770  2.4087  0.0233
 5838TIP3   OH239004   1.973   3.759  11.824 -0.1528 -0.3871 -0.7705
 5838TIP3    H139005   2.035   3.779  11.754 -0.4962  1.3890 -0.6224
 5838TIP3    H239006   2.020   3.698  11.881  0.8233 -0.3872 -1.5499
 5839TIP3   OH239007   1.477   4.567  13.328 -0.2625  0.2449  0.1993
 5839TIP3    H139008   1.537   4.499  13.358  0.7174  0.2034 -1.7230
 5839TIP3    H239009   1.532   4.645  13.320 -1.3731  1.3350  2.4011
 5840TIP3   OH239010   1.780   1.076  15.568 -0.2181  0.0842 -0.1011
 5840TIP3    H139011   1.716   1.062  15.499  2.0674  0.8040 -2.5097
 5840TIP3    H239012   1.741   1.144  15.624 -3.0706 -2.0673  0.7441
 5841TIP3   OH239013   3.335   5.155   1.462  0.1082  0.2924  0.1911
 5841TIP3    H139014   3.296   5.242   1.463  0.8456  0.6397  2.1071
 5841TIP3    H239015   3.278   5.102   1.518  0.5591 -0.0450  0.3358
 5842TIP3   OH239016   2.197   5.579  14.525  0.5749  0.3927 -0.3299
 5842TIP3    H139017   2.182   5.672  14.537  0.8290  0.5482 -1.1376
 5842TIP3    H239018   2.219   5.570  14.432  0.7084 -0.4460 -0.2270
 5843TIP3   OH239019   0.256   2.213  12.669  0.1628  0.1219  0.4375
 5843TIP3    H139020   0.299   2.161  12.600 -1.8239 -2.5954  1.0901
 5843TIP3    H239021   0.305   2.296  12.670  2.9856 -1.3452 -1.2964
 5844TIP3   OH239022   6.635   5.774   3.805 -0.0008  0.1695 -0.1282
 5844TIP3    H139023   6.577   5.712   3.849  1.6949 -2.0492 -0.8392
 5844TIP3    H239024   6.592   5.859   3.815 -3.0337 -1.2449 -0.0810
 5845TIP3   OH239025   3.346   0.410   2.190  0.3098 -0.1894 -0.3596
 5845TIP3    H139026   3.253   0.388   2.194  0.0964  0.7945  0.8386
 5845TIP3    H239027   3.384   0.365   2.266  0.2915  1.5792  0.7385
 5846TIP3   OH239028   4.393   2.567  16.029 -0.0025  0.1671  0.7118
 5846TIP3    H139029   4.316   2.570  16.085  0.3806 -2.6166  1.5795
 5846TIP3    H239030   4.362   2.596  15.944 -1.6296  0.5779  1.4004
 5847TIP3   OH239031   0.705   2.469   3.507  0.2632  0.8228  0.1521
 5847TIP3    H139032   0.709   2.484   3.413  0.4308 -1.2484 -0.2280
 5847TIP3    H239033   0.660   2.385   3.516  1.3084  0.3921  1.8324
 5848TIP3   OH239034   3.988   2.017  17.150  0.1226  0.6689 -0.0491
 5848TIP3    H139035   4.057   1.980  17.096 -1.6833 -0.6370 -1.5959
 5848TIP3    H239036   4.006   2.111  17.151  1.3441  0.4745 -1.2558
 5849TIP3   OH239037   1.795   5.127   5.306  1.1126  0.5457 -0.0667
 5849TIP3    H139038   1.745   5.045   5.314  0.7052  0.7810 -0.1902
 5849TIP3    H239039   1.729   5.196   5.316  1.3179  0.8563 -0.8260
 5850TIP3   OH239040   4.793   1.965   3.986 -0.0855  0.1558 -0.1027
 5850TIP3    H139041   4.798   2.026   4.060  2.6624 -0.4885  0.3371
 5850TIP3    H239042   4.710   1.919   3.999 -1.4274  2.5587  0.4936
 5851TIP3   OH239043   4.344   1.870   3.199  0.3646  0.5311 -0.6560
 5851TIP3    H139044   4.388   1.955   3.196  0.1293  0.6365 -1.1300
 5851TIP3    H239045   4.410   1.808   3.167  0.2011  0.6803 -1.3041
 5852TIP3   OH239046   6.053   0.088   4.025 -0.0148 -0.0665  0.3305
 5852TIP3    H139047   6.142   0.098   4.058  0.7308  0.2297 -1.6569
 5852TIP3    H239048   6.028   0.175   3.995 -0.5063 -0.4054 -0.2664
 5853TIP3   OH239049   0.559   0.883  16.780  0.3567  0.1955  0.2151
 5853TIP3    H139050   0.543   0.866  16.687 -0.1146  0.0594  0.3165
 5853TIP3    H239051   0.481   0.850  16.824  1.1575 -0.9904  0.7989
 5854TIP3   OH239052   6.316   6.623   1.699  0.0043 -0.1668  0.0786
 5854TIP3    H139053   6.304   6.626   1.793 -0.8723  3.3155 -0.0093
 5854TIP3    H239054   6.240   6.574   1.666 -0.6917  0.2351  1.0668
 5855TIP3   OH239055   2.477   5.303  11.332  0.1150  0.5687  0.3400
 5855TIP3    H139056   2.446   5.215  11.355 -0.1090  0.0374 -1.7241
 5855TIP3    H239057   2.531   5.330  11.405 -0.0926 -1.1538  1.1819
 5856TIP3   OH239058   3.149   4.529  13.250  0.0126 -0.1510  0.6812
 5856TIP3    H139059   3.151   4.545  13.344 -0.7284  0.9728  0.5276
 5856TIP3    H239060   3.231   4.565  13.217 -0.0097  0.0136  0.8097
 5857TIP3   OH239061   6.449   5.785  11.552 -0.2726  0.6069  0.3164
 5857TIP3    H139062   6.404   5.779  11.637  0.3474 -0.5223  0.5772
 5857TIP3    H239063   6.414   5.866  11.513 -3.2049 -0.6397  0.1101
 5858TIP3   OH239064   1.106   4.916   4.204  0.1274  0.9071  0.0562
 5858TIP3    H139065   1.138   4.935   4.116 -0.9433 -0.2557 -0.6333
 5858TIP3    H239066   1.017   4.951   4.205 -0.3379 -0.2342  0.2041
 5859TIP3   OH239067   2.347   3.116  12.397  0.6857  0.4128  0.5676
 5859TIP3    H139068   2.263   3.073  12.382  0.1443  1.0353  1.6939
 5859TIP3    H239069   2.338   3.158  12.483  2.1902  0.3857  0.7681
 5860TIP3   OH239070   0.704   4.603  14.656 -0.1765  0.2735  0.2347
 5860TIP3    H139071   0.778   4.663  14.649  0.7246 -0.7737  0.5741
 5860TIP3    H239072   0.641   4.636  14.592  0.7092  0.9977 -0.2962
 5861TIP3   OH239073   0.544   0.972   0.886  0.4037  0.6060 -0.1377
 5861TIP3    H139074   0.538   0.877   0.877  1.9848  0.3980  0.7887
 5861TIP3    H239075   0.454   1.003   0.871 -0.1676 -1.0312 -0.2487
 5862TIP3   OH239076   1.539   1.155  13.289  0.2400 -0.4720  0.0178
 5862TIP3    H139077   1.520   1.248  13.298  0.8816 -0.4147  0.9644
 5862TIP3    H239078   1.463   1.119  13.244 -1.0977  0.1094  1.7098
 5863TIP3   OH239079   5.995   6.214   0.176  0.3600 -0.2022 -0.1946
 5863TIP3    H139080   6.007   6.126   0.213 -0.7626  0.0424  0.8065
 5863TIP3    H239081   5.968   6.198   0.085  1.0322 -0.8599 -0.2919
 5864TIP3   OH239082   2.928   3.995   3.344 -0.2126  0.3132  0.2393
 5864TIP3    H139083   2.962   4.012   3.256 -1.1584 -0.6260 -0.3250
 5864TIP3    H239084   2.875   3.916   3.335 -1.6178  1.0768  1.3247
 5865TIP3   OH239085   0.014   5.862  12.482 -0.3959 -0.7453  0.1381
 5865TIP3    H139086   0.091   5.917  12.468 -1.5931  0.9048 -0.2358
 5865TIP3    H239087   0.034   5.812  12.561  1.1008 -0.4524 -0.0281
 5866TIP3   OH239088   5.789   1.978  13.046 -0.1751 -0.1182  0.0408
 5866TIP3    H139089   5.848   2.042  13.087 -1.9800  1.1101  0.8207
 5866TIP3    H239090   5.788   1.904  13.107  0.1936  0.0454  0.2487
 5867TIP3   OH239091   2.933   2.887   6.514  0.1360  0.0367  0.0177
 5867TIP3    H139092   2.871   2.875   6.441 -0.2034  1.5921  0.0223
 5867TIP3    H239093   2.996   2.816   6.504 -2.1605 -2.2325  0.5753
 5868TIP3   OH239094   3.696   4.584  12.240 -0.2951 -0.5613 -0.2996
 5868TIP3    H139095   3.766   4.593  12.176  0.5795 -0.2987  0.6855
 5868TIP3    H239096   3.716   4.504  12.288 -0.2132 -0.0557  0.5303
 5869TIP3   OH239097   1.608   0.116   0.135 -1.0215  0.2158 -0.3510
 5869TIP3    H139098   1.554   0.156   0.203 -3.9677 -1.6656 -1.3713
 5869TIP3    H239099   1.617   0.184   0.068 -1.3152  0.8589  0.2482
 5870TIP3   OH239100   1.532   6.585  11.605 -0.3723  0.0714  0.5931
 5870TIP3    H139101   1.486   6.653  11.655  0.8638 -0.0792  2.0158
 5870TIP3    H239102   1.599   6.633  11.555 -1.6650  0.2333 -1.0788
 5871TIP3   OH239103   5.399   0.680   0.475  0.1508 -0.2991  0.5601
 5871TIP3    H139104   5.328   0.616   0.476  0.2733 -0.5159 -1.1173
 5871TIP3    H239105   5.458   0.652   0.545 -1.6167  0.1619  2.2939
 5872TIP3   OH239106   2.317   5.500  14.003 -0.0963  0.2753 -0.4075
 5872TIP3    H139107   2.374   5.538  13.937 -0.4760 -2.0157 -2.1701
 5872TIP3    H239108   2.360   5.418  14.027 -0.0423  0.9708  2.1695
 5873TIP3   OH239109   0.432   1.826   4.808 -0.1380  0.1672 -0.2368
 5873TIP3    H139110   0.520   1.824   4.846 -0.5569  2.1613  1.0062
 5873TIP3    H239111   0.375   1.847   4.882 -1.5165  0.1515 -1.2547
 5874TIP3   OH239112   3.743   2.568   1.360  0.3001  0.2666 -0.3419
 5874TIP3    H139113   3.780   2.568   1.448 -0.7271  1.4994  0.1172
 5874TIP3    H239114   3.664   2.514   1.366  0.4244  0.0501 -0.6024
 5875TIP3   OH239115   6.468   5.599   5.189 -0.5432 -0.8017 -0.2072
 5875TIP3    H139116   6.431   5.660   5.253 -0.2069  0.2373 -0.9698
 5875TIP3    H239117   6.557   5.631   5.175 -0.7357 -0.7617 -1.4700
 5876TIP3   OH239118   4.660   3.241  15.393  0.8743  0.2416 -0.0414
 5876TIP3    H139119   4.735   3.220  15.336  1.5186  2.0403  0.0727
 5876TIP3    H239120   4.583   3.214  15.342  1.4522  1.5102 -1.6666
 5877TIP3   OH239121   2.129   2.802   2.932 -0.2042 -0.0819 -0.3481
 5877TIP3    H139122   2.201   2.865   2.934 -1.1784  1.0566  0.9827
 5877TIP3    H239123   2.050   2.855   2.926 -1.1113 -1.0712  1.6251
 5878TIP3   OH239124   2.482   5.771  13.538  0.6412  0.2967 -0.5983
 5878TIP3    H139125   2.549   5.829  13.574  0.3468 -0.4253  1.2068
 5878TIP3    H239126   2.400   5.804  13.573  0.0322  0.9146 -2.4578
 5879TIP3   OH239127   4.701   4.128  16.224 -0.4257 -0.3116  0.4029
 5879TIP3    H139128   4.667   4.040  16.206  1.0873 -0.7293 -0.5944
 5879TIP3    H239129   4.674   4.180  16.148 -0.1665 -0.2531  0.3524
 5880TIP3   OH239130   0.167   3.453  15.801  0.7566  0.3246 -0.0503
 5880TIP3    H139131   0.076   3.476  15.817  0.7604 -0.9136  2.1489
 5880TIP3    H239132   0.216   3.533  15.825  0.3346  0.4709  0.3439
 5881TIP3   OH239133   4.337   0.527  10.556  0.1226 -0.0932  0.3551
 5881TIP3    H139134   4.369   0.588  10.489 -1.7039  0.9879  0.3949
 5881TIP3    H239135   4.416   0.484  10.589  1.3513  1.3335 -0.5830
 5882TIP3   OH239136   0.734   6.065  11.710  0.3190  0.2252  0.0020
 5882TIP3    H139137   0.645   6.099  11.698  0.5460  1.3034  1.0610
 5882TIP3    H239138   0.777   6.079  11.626 -0.2488  0.5628 -0.2415
 5883TIP3   OH239139   1.781   1.894   1.598 -0.7238 -0.1004 -0.0976
 5883TIP3    H139140   1.862   1.859   1.636 -2.0952 -1.3472  1.8375
 5883TIP3    H239141   1.789   1.989   1.609  0.5268 -0.1918 -0.0546
 5884TIP3   OH239142   5.137   4.018   4.111 -0.1925 -0.1969  0.3549
 5884TIP3    H139143   5.088   3.945   4.148 -2.2089  1.0677  0.3165
 5884TIP3    H239144   5.178   3.982   4.032  0.3648 -1.7193  1.2817
 5885TIP3   OH239145   4.933   0.319  12.908 -0.7320  0.3319  0.1348
 5885TIP3    H139146   4.887   0.251  12.958  0.6581 -1.6607 -1.1242
 5885TIP3    H239147   5.026   0.296  12.918 -0.1274  2.6775  0.4590
 5886TIP3   OH239148   6.707   3.868   2.439 -0.1259 -0.0834 -0.4600
 5886TIP3    H139149   6.724   3.950   2.486  0.7387 -1.0604  1.0077
 5886TIP3    H239150   6.615   3.849   2.458 -0.0905  0.1001 -0.0941
 5887TIP3   OH239151   6.436   4.505   3.457  0.4196  0.8042  0.1689
 5887TIP3    H139152   6.522   4.489   3.418  0.8797  1.5695  0.8258
 5887TIP3    H239153   6.435   4.449   3.535 -0.1144 -0.0088 -0.4139
 5888TIP3   OH239154   6.702   5.355   5.178 -0.5437  0.1472 -0.4983
 5888TIP3    H139155   6.792   5.322   5.175 -1.1511 -1.6123 -0.9879
 5888TIP3    H239156   6.684   5.369   5.271  0.1438  0.2595 -0.3781
 5889TIP3   OH239157   1.839   4.530   0.169  0.5579 -0.6696  0.1161
 5889TIP3    H139158   1.745   4.548   0.173  0.4443 -1.0477 -0.6696
 5889TIP3    H239159   1.879   4.598   0.223 -0.2100 -0.8998  1.0041
 5890TIP3   OH239160   4.500   1.703  11.634  0.3916 -0.3895  0.1637
 5890TIP3    H139161   4.552   1.652  11.572  0.1666 -0.4701  0.0425
 5890TIP3    H239162   4.435   1.748  11.580  1.7289  1.4998  0.0113
 5891TIP3   OH239163   4.947   6.596   4.827 -0.2623  0.5781 -0.1375
 5891TIP3    H139164   4.998   6.619   4.750  0.0268  0.2069 -0.0615
 5891TIP3    H239165   4.878   6.538   4.793 -0.9981  1.5509 -0.3301
 5892TIP3   OH239166   0.223   0.299   5.252  0.1810  0.1845  0.5985
 5892TIP3    H139167   0.230   0.218   5.302  0.5498 -0.5967 -0.6750
 5892TIP3    H239168   0.313   0.330   5.245  0.2392 -0.1537 -0.2641
 5893TIP3   OH239169   5.924   5.683  13.912 -0.6615  0.3710 -0.2246
 5893TIP3    H139170   5.855   5.732  13.957 -1.3545  0.4210 -1.3044
 5893TIP3    H239171   6.000   5.741  13.914 -0.6341  0.3141  0.9808
 5894TIP3   OH239172   3.510   6.661  16.832 -0.1083 -0.4194  0.0407
 5894TIP3    H139173   3.526   6.598  16.763  0.7533  0.3730 -0.5007
 5894TIP3    H239174   3.551   6.742  16.801 -3.2306  1.1348 -0.4047
 5895TIP3   OH239175   1.241   0.420  11.803  0.6380  0.7689 -0.6868
 5895TIP3    H139176   1.274   0.470  11.878  0.9592 -1.5026  0.7876
 5895TIP3    H239177   1.311   0.426  11.738  1.9807 -0.1834  0.6173
 5896TIP3   OH239178   0.202   1.399  14.345 -0.3383 -0.3780  0.0668
 5896TIP3    H139179   0.198   1.322  14.402  0.6398  0.5842  1.5196
 5896TIP3    H239180   0.149   1.465  14.391  0.8707  0.5707  0.1598
 5897TIP3   OH239181   4.977   5.933  12.296  0.1487 -0.2608 -0.5775
 5897TIP3    H139182   5.014   6.021  12.307 -0.4841 -0.1122  0.4030
 5897TIP3    H239183   4.908   5.944  12.230 -0.2380  0.0732 -0.1203
 5898TIP3   OH239184   0.887   4.184   1.911 -0.2643  0.1884  0.3971
 5898TIP3    H139185   0.973   4.196   1.872 -0.3198 -2.8569 -0.9864
 5898TIP3    H239186   0.902   4.191   2.005  1.1383  1.2880  0.1301
 5899TIP3   OH239187   0.680   0.600  16.615  0.3552  0.1057 -0.7408
 5899TIP3    H139188   0.605   0.585  16.673 -0.2195  0.3454 -1.4219
 5899TIP3    H239189   0.710   0.688  16.637 -0.0356  0.3044 -1.0025
 5900TIP3   OH239190   3.152   0.154  13.832 -1.1702  0.0993  0.3800
 5900TIP3    H139191   3.079   0.174  13.774 -0.7193 -2.5905 -1.2853
 5900TIP3    H239192   3.153   0.059  13.837  2.8747 -0.0966 -0.6012
 5901TIP3   OH239193   2.474   0.371   4.318 -0.4575 -0.4154 -0.2120
 5901TIP3    H139194   2.534   0.406   4.384  0.3559  1.6847 -1.9648
 5901TIP3    H239195   2.428   0.448   4.284 -1.0314 -1.4658 -1.9264
 5902TIP3   OH239196   0.304   0.387   4.021  0.1657 -0.2508 -0.0556
 5902TIP3    H139197   0.280   0.411   4.111 -0.5644 -1.0414 -0.0308
 5902TIP3    H239198   0.343   0.300   4.030  0.8543  0.0125 -0.4116
 5903TIP3   OH239199   6.181   2.953  16.974  0.1073  0.3508 -0.2433
 5903TIP3    H139200   6.198   2.962  17.067  0.8454 -3.0846  0.0748
 5903TIP3    H239201   6.253   2.999  16.931  1.2717 -0.3222  0.9467
 5904TIP3   OH239202   0.022   4.314   1.299 -0.2842 -0.6668  0.1579
 5904TIP3    H139203  -0.009   4.224   1.299  0.2350 -0.8556  0.7818
 5904TIP3    H239204   0.041   4.334   1.207 -3.3910 -0.1125 -0.4893
 5905TIP3   OH239205   6.831   1.799  14.204  0.3295 -0.5274  0.3112
 5905TIP3    H139206   6.924   1.818  14.201  0.3628 -0.8321 -0.9845
 5905TIP3    H239207   6.789   1.882  14.227  0.7945  0.0567 -0.8782
 5906TIP3   OH239208   0.212   4.309   4.810 -0.3819 -0.5267 -0.1980
 5906TIP3    H139209   0.282   4.254   4.844 -0.1450 -0.7484 -1.0248
 5906TIP3    H239210   0.216   4.297   4.715 -2.4645 -1.6571 -0.1951
 5907TIP3   OH239211   3.701   3.096   6.181 -0.3784 -0.1383 -0.3439
 5907TIP3    H139212   3.778   3.097   6.124  0.9973 -0.4330  1.4158
 5907TIP3    H239213   3.689   3.188   6.207  0.9753 -0.3856  1.3401
 5908TIP3   OH239214   1.723   2.367  13.063 -0.4548 -0.1977  0.6793
 5908TIP3    H139215   1.658   2.385  13.131 -0.7642  0.2199  0.2770
 5908TIP3    H239216   1.746   2.453  13.029 -2.7823 -0.5217 -2.0401
 5909TIP3   OH239217   0.386   5.195   5.476 -0.6450  1.1681  0.5461
 5909TIP3    H139218   0.375   5.119   5.533 -0.9740 -0.8058 -1.9443
 5909TIP3    H239219   0.300   5.238   5.477 -0.8444  0.7745  1.0241
 5910TIP3   OH239220   5.370   6.317  13.029  0.2568 -0.0260 -0.2923
 5910TIP3    H139221   5.329   6.307  13.115 -0.3652  0.7539 -0.4876
 5910TIP3    H239222   5.464   6.314  13.047  0.2830  3.2314  0.8861
 5911TIP3   OH239223   3.093   3.881   1.229  0.1517 -0.9292  0.1381
 5911TIP3    H139224   3.031   3.948   1.257 -0.2392 -0.2624 -2.1279
 5911TIP3    H239225   3.056   3.799   1.263 -0.3692 -0.2344  1.3319
 5912TIP3   OH239226   4.480   1.317  14.898 -0.0500 -0.3528  0.1644
 5912TIP3    H139227   4.480   1.413  14.900  0.9477 -0.2754 -1.6946
 5912TIP3    H239228   4.415   1.292  14.964 -2.2792  1.6359 -1.1270
 5913TIP3   OH239229   3.728   2.979  11.321  0.3141  0.1482 -0.4042
 5913TIP3    H139230   3.816   2.959  11.289 -0.1098 -0.6342 -1.1526
 5913TIP3    H239231   3.723   3.074  11.321  1.1437  0.1981 -0.3950
 5914TIP3   OH239232   3.944   6.665  15.408 -0.3354 -0.1019 -0.4304
 5914TIP3    H139233   3.934   6.722  15.484  1.7836  1.5315 -1.2509
 5914TIP3    H239234   3.858   6.663  15.367 -1.3507 -0.4853  1.5877
 5915TIP3   OH239235   3.409   0.073  15.969  0.0055  0.2632  0.0110
 5915TIP3    H139236   3.499   0.048  15.947 -0.5895 -1.7816 -0.3241
 5915TIP3    H239237   3.414   0.100  16.060  0.5672 -2.5343  0.9265
 5916TIP3   OH239238   0.747   5.377   4.538  0.0520 -0.4717 -0.6233
 5916TIP3    H139239   0.677   5.336   4.590  1.3912 -1.1569  0.6937
 5916TIP3    H239240   0.805   5.416   4.603  2.7354 -2.8188 -1.4231
 5917TIP3   OH239241   3.021   4.898  15.493 -0.4290  0.1480  0.2169
 5917TIP3    H139242   3.114   4.920  15.498 -0.5161  1.3538 -1.9588
 5917TIP3    H239243   3.012   4.816  15.542  2.0902 -0.9092 -0.9318
 5918TIP3   OH239244   3.318   1.558  14.825  0.0813 -0.2008  0.1324
 5918TIP3    H139245   3.292   1.647  14.800 -1.9754 -0.4629  1.1251
 5918TIP3    H239246   3.413   1.559  14.821  0.0395  1.3334 -2.1895
 5919TIP3   OH239247   0.995   5.163  13.151  0.4807  0.7274 -0.2506
 5919TIP3    H139248   1.046   5.233  13.109  0.3418  2.6429  2.5035
 5919TIP3    H239249   1.059   5.112  13.200  0.3294  0.1259 -0.6704
 5920TIP3   OH239250   0.241   5.221   7.052  0.4376  0.0461  0.1041
 5920TIP3    H139251   0.335   5.231   7.035  0.7847 -1.5455  0.8217
 5920TIP3    H239252   0.199   5.236   6.967  1.2189  1.8967  0.0119
 5921TIP3   OH239253   3.257   4.741   2.794 -0.4690  0.3302  0.0275
 5921TIP3    H139254   3.244   4.702   2.707 -0.0772 -0.8237  0.4650
 5921TIP3    H239255   3.181   4.713   2.844 -1.2600  1.9113 -0.2201
 5922TIP3   OH239256   2.353   6.101  12.179 -0.3061  0.0974  0.0333
 5922TIP3    H139257   2.323   6.099  12.088 -0.2465  3.3941 -0.1840
 5922TIP3    H239258   2.280   6.140  12.227  0.3140  0.0169  1.0674
 5923TIP3   OH239259   0.343   5.876   5.119  0.5104  0.4033  0.0080
 5923TIP3    H139260   0.306   5.792   5.147 -1.8311  1.3130 -0.1538
 5923TIP3    H239261   0.432   5.854   5.089 -0.4852 -2.2508 -1.3213
 5924TIP3   OH239262   0.952   2.334   2.076  0.4899  0.6034  0.0595
 5924TIP3    H139263   0.985   2.416   2.112 -0.1861  1.5397 -1.3498
 5924TIP3    H239264   1.025   2.300   2.024  0.4378  0.8578 -0.1858
 5925TIP3   OH239265   6.807   4.619   2.607 -0.0380  0.4577  0.5441
 5925TIP3    H139266   6.719   4.609   2.644  0.0955 -1.7359  0.3923
 5925TIP3    H239267   6.795   4.606   2.513  0.2111  2.0194  0.2712
 5926TIP3   OH239268   6.110   0.146  15.385  0.2259  0.2398 -0.1110
 5926TIP3    H139269   6.068   0.144  15.471 -0.2346  0.1941 -0.3358
 5926TIP3    H239270   6.052   0.095  15.328  0.7929 -0.1737 -0.3324
 5927TIP3   OH239271   6.218   5.212   0.107 -0.2422 -0.1675 -0.2193
 5927TIP3    H139272   6.141   5.163   0.078  0.4218 -0.6841 -1.1712
 5927TIP3    H239273   6.263   5.153   0.168 -1.3801  0.7294  1.5662
 5928TIP3   OH239274   5.580   6.571   0.524 -0.5322  0.1729 -0.8298
 5928TIP3    H139275   5.636   6.564   0.602 -0.2312 -1.6206 -1.1609
 5928TIP3    H239276   5.642   6.586   0.452 -0.4642 -1.3701 -1.1339
 5929TIP3   OH239277   5.297   3.739   2.588 -0.0299 -0.3950 -0.2091
 5929TIP3    H139278   5.274   3.648   2.604  0.3604  0.0935  4.2443
 5929TIP3    H239279   5.244   3.789   2.649  1.2502  2.2017 -1.0633
 5930TIP3   OH239280   1.304   0.127  14.195 -0.1956  0.9170  0.1390
 5930TIP3    H139281   1.338   0.129  14.105  1.3034  1.3382  0.6936
 5930TIP3    H239282   1.363   0.183  14.245 -0.3780 -0.1478  1.6159
 5931TIP3   OH239283   3.413   3.415  13.477  0.0323  0.5507  0.3956
 5931TIP3    H139284   3.382   3.431  13.388  0.8935  2.0718  0.3267
 5931TIP3    H239285   3.460   3.332  13.473 -1.5111 -0.3320 -0.1305
 5932TIP3   OH239286   6.082   1.342  12.464 -0.0278 -0.2686  0.1190
 5932TIP3    H139287   6.054   1.323  12.375  0.7899 -0.3960 -0.1235
 5932TIP3    H239288   6.001   1.351  12.514 -0.5313  1.1515 -0.9061
 5933TIP3   OH239289   6.677   5.118  15.613 -0.8449  0.1438 -0.1644
 5933TIP3    H139290   6.712   5.204  15.590  0.6531 -0.5904 -0.7839
 5933TIP3    H239291   6.612   5.099  15.545  1.1038 -0.5298 -1.9547
 5934TIP3   OH239292   6.189   3.260  11.298 -0.5419 -0.2939  0.0998
 5934TIP3    H139293   6.217   3.185  11.245 -0.0281  0.1477 -0.2672
 5934TIP3    H239294   6.263   3.277  11.357  0.1603  1.0936 -1.1045
 5935TIP3   OH239295   3.407   5.859  11.313  0.5006 -0.0616 -0.4866
 5935TIP3    H139296   3.368   5.822  11.234  0.0698 -0.8250  0.0597
 5935TIP3    H239297   3.457   5.934  11.283 -0.4659  0.2497 -1.3653
 5936TIP3   OH239298   6.134   1.131   5.070 -0.0683 -0.0772  0.1511
 5936TIP3    H139299   6.046   1.119   5.033 -0.9072  0.3358  1.9060
 5936TIP3    H239300   6.133   1.220   5.104  1.1697  0.0519 -0.1356
 5937TIP3   OH239301   5.808   5.078   3.908  0.2351  0.3037  0.0620
 5937TIP3    H139302   5.775   5.159   3.947 -1.4768 -0.4007  0.1587
 5937TIP3    H239303   5.901   5.077   3.930  0.0889  1.7735  0.8685
 5938TIP3   OH239304   2.552   2.521  12.654 -0.4517 -0.3189  0.1407
 5938TIP3    H139305   2.625   2.562  12.609 -0.2505 -1.3251 -0.4455
 5938TIP3    H239306   2.486   2.506  12.586 -1.2253  0.5564  0.6514
 5939TIP3   OH239307   0.859   3.110  13.071 -0.0267 -0.4221  1.0967
 5939TIP3    H139308   0.931   3.066  13.118 -0.0366 -0.2965  1.2326
 5939TIP3    H239309   0.880   3.204  13.079  2.5191 -0.4053 -3.1082
 5940TIP3   OH239310   5.021   5.338  16.890  0.3076  0.4363 -0.4626
 5940TIP3    H139311   5.071   5.281  16.832 -1.5558  1.0679 -2.8456
 5940TIP3    H239312   5.029   5.425  16.850  1.8351  1.6592  2.2402
 5941TIP3   OH239313   0.500   2.276   5.656 -0.4743  0.2959  0.1771
 5941TIP3    H139314   0.568   2.271   5.722 -1.0908  0.9613  0.8781
 5941TIP3    H239315   0.509   2.195   5.606  1.1158  0.5837 -0.0477
 5942TIP3   OH239316   5.462   6.592   3.388 -0.0834 -0.0934 -0.3590
 5942TIP3    H139317   5.518   6.636   3.452  0.7235 -0.2651 -0.9317
 5942TIP3    H239318   5.468   6.499   3.412 -0.4266 -0.0762 -0.1967
 5943TIP3   OH239319   1.703   3.586  12.565  0.6956 -0.1849  0.3347
 5943TIP3    H139320   1.660   3.634  12.494 -0.6403  0.9555  1.8385
 5943TIP3    H239321   1.703   3.495  12.536  0.6913  0.3114 -1.3471
 5944TIP3   OH239322   1.772   5.589   1.040 -0.7022  0.0647  0.3398
 5944TIP3    H139323   1.813   5.617   1.121 -0.0342  0.6438 -0.1833
 5944TIP3    H239324   1.728   5.668   1.006 -1.6702 -0.3701  0.5361
 5945TIP3   OH239325   4.193   0.088   2.670  0.3310  0.7432  0.1535
 5945TIP3    H139326   4.120   0.046   2.715 -0.5583  2.4628  0.4216
 5945TIP3    H239327   4.182   0.063   2.578  0.6246 -0.6566  0.4789
 5946TIP3   OH239328   1.356   3.931  13.179  0.3388 -0.6020  0.1060
 5946TIP3    H139329   1.313   3.848  13.200  2.3080 -1.4426  1.1565
 5946TIP3    H239330   1.419   3.943  13.250 -0.7616  2.5001  0.6971
 5947TIP3   OH239331   1.439   4.828  11.708  0.6546 -0.2235 -0.3894
 5947TIP3    H139332   1.407   4.892  11.645  0.7447  0.9247  0.6887
 5947TIP3    H239333   1.365   4.814  11.767  1.3697  0.7054  0.7676
 5948TIP3   OH239334   4.165   5.674  11.456  0.0048  0.5804 -0.3528
 5948TIP3    H139335   4.130   5.718  11.379  0.0246  1.2411  0.0120
 5948TIP3    H239336   4.087   5.651  11.507  0.0708  1.9006  0.3780
 5949TIP3   OH239337   2.607   3.533  16.827  0.0610 -0.0098 -0.1143
 5949TIP3    H139338   2.631   3.625  16.835  0.7038 -0.0528 -1.3638
 5949TIP3    H239339   2.579   3.508  16.915  3.3032  0.4129  1.1612
 5950TIP3   OH239340   3.863   6.526   0.412 -0.1910  0.1324 -0.3911
 5950TIP3    H139341   3.862   6.459   0.343  1.3731  1.0150 -1.3530
 5950TIP3    H239342   3.800   6.592   0.382 -1.1692 -0.5255  0.1752
 5951TIP3   OH239343   3.907   0.991   1.057  0.9727  0.5186  0.0341
 5951TIP3    H139344   3.927   0.910   1.103  1.1917  0.2879 -0.4670
 5951TIP3    H239345   3.829   1.025   1.101  0.8452  0.0085  0.2013
 5952TIP3   OH239346   4.224   1.724  10.633 -0.0956 -0.2244 -0.2149
 5952TIP3    H139347   4.218   1.663  10.560  0.8187 -2.3402  1.3670
 5952TIP3    H239348   4.134   1.737  10.662 -0.2159 -1.7741  0.1467
 5953TIP3   OH239349   4.648   5.403   0.260  0.9229  0.0280  0.0446
 5953TIP3    H139350   4.681   5.473   0.204  2.4765 -0.7612 -0.0879
 5953TIP3    H239351   4.554   5.399   0.241  0.8020  2.0016  0.0149
 5954TIP3   OH239352   0.818   5.478  14.578  0.4332  0.4134  0.2259
 5954TIP3    H139353   0.908   5.447  14.578  0.2787 -0.0457  0.6469
 5954TIP3    H239354   0.826   5.574  14.582  0.9006  0.3601  0.7170
 5955TIP3   OH239355   6.500   4.260  14.832 -0.1372 -0.4446  0.1365
 5955TIP3    H139356   6.461   4.269  14.745 -1.4007 -1.9514  0.5082
 5955TIP3    H239357   6.594   4.252  14.815  0.4940  4.7373 -0.7094
 5956TIP3   OH239358   4.602   1.120   2.764  0.0251  0.7533 -0.0413
 5956TIP3    H139359   4.682   1.084   2.801  0.7935  0.9755 -1.4121
 5956TIP3    H239360   4.587   1.202   2.812 -0.3841 -0.1438  1.4199
 5957TIP3   OH239361   6.099   4.183  15.731 -0.1074 -0.3862 -0.5010
 5957TIP3    H139362   6.101   4.209  15.823  0.7940  1.0504 -0.8985
 5957TIP3    H239363   6.074   4.262  15.684 -0.5151 -1.0906 -1.5118
 5958TIP3   OH239364   3.307   3.363  15.938  0.3246 -0.0981 -0.6623
 5958TIP3    H139365   3.293   3.436  15.999  1.5113  1.5176 -2.2081
 5958TIP3    H239366   3.397   3.334  15.956 -0.2411 -1.4448  0.1528
 5959TIP3   OH239367   1.787   2.992  12.316  0.0197 -0.0334 -0.0876
 5959TIP3    H139368   1.699   3.006  12.351  0.2119  0.7429  0.0786
 5959TIP3    H239369   1.821   3.079  12.299  0.9959 -0.3075  0.4126
 5960TIP3   OH239370   6.542   6.798   1.665 -0.2225  0.3668 -0.6095
 5960TIP3    H139371   6.603   6.733   1.631  0.3657  0.0828  0.9134
 5960TIP3    H239372   6.456   6.758   1.655  0.0743 -0.3517 -0.3465
 5961TIP3   OH239373   0.917   5.505   4.697  0.5345  0.0079  0.5004
 5961TIP3    H139374   0.951   5.432   4.748  1.0721 -0.6147 -0.7093
 5961TIP3    H239375   0.973   5.508   4.619 -0.8359  0.3233 -0.5059
 5962TIP3   OH239376   5.230   0.073  12.732  0.4350  0.3844  0.3440
 5962TIP3    H139377   5.250   0.128  12.655  0.3050 -0.2362 -0.1387
 5962TIP3    H239378   5.166   0.010  12.700 -0.7981  1.0713  1.3637
 5963TIP3   OH239379   4.172   3.668   0.037 -0.4276 -0.1588 -0.0782
 5963TIP3    H139380   4.083   3.681   0.070 -0.7015 -1.4926 -0.2488
 5963TIP3    H239381   4.220   3.630   0.110  0.5259  2.2074  0.6136
 5964TIP3   OH239382   4.520   0.923   1.148  0.3192  0.0409  0.0082
 5964TIP3    H139383   4.522   0.829   1.164 -0.0360  0.2411  1.4307
 5964TIP3    H239384   4.571   0.936   1.068  1.5018 -1.2176  0.5249
 5965TIP3   OH239385   2.605   2.235   2.877  0.8039  0.3889  0.0461
 5965TIP3    H139386   2.553   2.300   2.831 -0.9377 -0.0952  1.2077
 5965TIP3    H239387   2.548   2.158   2.881  1.5485 -0.1218  1.4903
 5966TIP3   OH239388   0.485   3.260   5.109 -0.2021 -0.3875 -0.0790
 5966TIP3    H139389   0.575   3.243   5.136  1.3982  1.7467 -3.3275
 5966TIP3    H239390   0.463   3.187   5.052  0.3302  0.1153 -0.9515
 5967TIP3   OH239391   4.310   4.129   3.070 -0.2390 -0.3752 -0.6603
 5967TIP3    H139392   4.220   4.156   3.087 -0.0014 -0.3017  0.5849
 5967TIP3    H239393   4.336   4.081   3.149  0.3205 -1.7023 -1.6196
 5968TIP3   OH239394   2.954   6.779  15.500  0.5941 -0.4672  0.5567
 5968TIP3    H139395   2.892   6.720  15.457  0.2795 -1.4163  2.2133
 5968TIP3    H239396   2.906   6.862  15.507 -0.2274 -0.9764  1.1450
 5969TIP3   OH239397   1.018   6.619   1.483  0.5517 -0.2274 -0.4703
 5969TIP3    H139398   1.009   6.690   1.546  0.0345  0.0300 -0.8296
 5969TIP3    H239399   1.038   6.542   1.536  0.1291 -0.0127  0.0079
 5970TIP3   OH239400   4.061   5.011   2.073 -0.1693  0.1564 -0.2174
 5970TIP3    H139401   4.018   4.978   2.152 -0.5421 -0.7214 -0.7720
 5970TIP3    H239402   4.019   5.096   2.057  0.0050  0.4125  0.5908
 5971TIP3   OH239403   2.216   6.130  11.943 -0.6640 -0.1879 -0.1839
 5971TIP3    H139404   2.204   6.087  11.858 -0.8448  0.8813 -0.7191
 5971TIP3    H239405   2.128   6.133  11.981 -0.6963 -0.0490 -0.2684
 5972TIP3   OH239406   4.949   0.111  14.115 -0.1402 -0.0400  0.1122
 5972TIP3    H139407   4.906   0.132  14.198 -2.8894 -0.6257 -1.0741
 5972TIP3    H239408   4.959   0.196  14.071  2.2126  0.4041  1.3462
 5973TIP3   OH239409   2.681   0.040   1.816 -0.5237  0.7199  0.3953
 5973TIP3    H139410   2.668   0.088   1.898 -2.4947  0.4698  0.2802
 5973TIP3    H239411   2.645   0.098   1.749 -1.7741 -0.3546  0.1004
 5974TIP3   OH239412   5.432   1.337   0.219 -0.6047 -0.6041 -0.0806
 5974TIP3    H139413   5.506   1.286   0.252 -0.1102 -0.9296 -1.5776
 5974TIP3    H239414   5.472   1.407   0.168 -1.2730 -1.2563 -1.5959
 5975TIP3   OH239415   3.733   1.547   3.709  0.0799  0.0344  0.0566
 5975TIP3    H139416   3.668   1.531   3.777 -1.2055 -0.3431 -1.2195
 5975TIP3    H239417   3.793   1.611   3.747  0.8556 -1.9887  2.4523
 5976TIP3   OH239418   3.237   6.669  14.783 -0.1482  0.6761  0.0247
 5976TIP3    H139419   3.179   6.736  14.819 -0.3330  0.2506  0.5280
 5976TIP3    H239420   3.222   6.592  14.837 -0.6887 -0.0916 -1.1919
 5977TIP3   OH239421   2.955   1.765   3.310  0.0641 -0.5444  0.3920
 5977TIP3    H139422   2.930   1.724   3.393  0.4862 -1.2036  0.2017
 5977TIP3    H239423   3.007   1.841   3.335  1.9262 -1.8679  0.7370
 5978TIP3   OH239424   5.333   3.473  10.504  0.4516 -0.9957  0.1133
 5978TIP3    H139425   5.330   3.383  10.534  1.7268 -0.8926  0.5869
 5978TIP3    H239426   5.426   3.496  10.502  0.2328 -0.0775 -1.1697
 5979TIP3   OH239427   0.961   1.573   6.028  0.8018  0.4417 -0.5105
 5979TIP3    H139428   1.014   1.556   6.106 -0.4936  1.0335  0.5553
 5979TIP3    H239429   0.886   1.623   6.061 -0.0892  0.1901 -2.0487
 5980TIP3   OH239430   3.331   0.352  15.871 -0.3183  0.0055 -0.4497
 5980TIP3    H139431   3.361   0.265  15.899 -0.5832 -0.0377 -0.3020
 5980TIP3    H239432   3.319   0.401  15.952 -3.0679 -0.7513 -0.3119
 5981TIP3   OH239433   2.832   0.244  12.816  0.3121  0.1353 -0.2541
 5981TIP3    H139434   2.811   0.207  12.901 -3.0935  0.7564 -0.6917
 5981TIP3    H239435   2.830   0.339  12.829  0.0409  0.2324 -0.9439
 5982TIP3   OH239436   3.552   1.671   0.458  0.1590  0.3113  0.1871
 5982TIP3    H139437   3.461   1.641   0.458 -0.1617  1.2338  0.7874
 5982TIP3    H239438   3.547   1.762   0.487  1.3292  0.2139  0.7435
 5983TIP3   OH239439   4.416   5.850   3.465 -0.3908 -0.0374  0.1644
 5983TIP3    H139440   4.366   5.873   3.543 -0.3139  0.6223  0.0223
 5983TIP3    H239441   4.357   5.792   3.416  0.3531 -2.2491  1.7074
 5984TIP3   OH239442   3.958   5.919   2.784  0.0104  0.2961  0.0175
 5984TIP3    H139443   4.002   5.837   2.807  0.8644  0.3979 -1.1716
 5984TIP3    H239444   4.021   5.987   2.806  0.6966  0.4193 -2.1095
 5985TIP3   OH239445   4.891   0.259  11.513  0.5260  0.4934  0.2432
 5985TIP3    H139446   4.925   0.347  11.528 -0.6571  1.4632 -2.2123
 5985TIP3    H239447   4.965   0.212  11.474  0.6637  0.9249 -0.0243
 5986TIP3   OH239448   3.522   4.942   2.325 -0.0323 -0.0626 -0.2788
 5986TIP3    H139449   3.534   4.960   2.418 -0.2394 -0.4080 -0.1833
 5986TIP3    H239450   3.598   4.981   2.283  1.3873 -2.0285  0.2826
 5987TIP3   OH239451   3.143   1.651  12.444  0.0830 -0.0213  0.0455
 5987TIP3    H139452   3.159   1.606  12.527  0.8758  0.8253  0.3655
 5987TIP3    H239453   3.176   1.740  12.458  0.1961  0.1391 -1.1662
 5988TIP3   OH239454   1.436   1.183  11.767 -0.0287 -0.9872  0.4657
 5988TIP3    H139455   1.498   1.167  11.838  1.0272 -1.2214 -0.4854
 5988TIP3    H239456   1.377   1.108  11.769 -0.9342 -0.2866  2.0068
 5989TIP3   OH239457   2.034   1.946   5.460 -0.5385  0.7235 -0.0467
 5989TIP3    H139458   1.943   1.965   5.479 -0.7121  0.3401 -0.4723
 5989TIP3    H239459   2.056   2.001   5.386 -0.5698  0.4646 -0.2514
 5990TIP3   OH239460   6.641   4.144  13.793  0.2421  0.1925 -0.2419
 5990TIP3    H139461   6.656   4.215  13.855 -0.2984 -0.5100  0.7215
 5990TIP3    H239462   6.687   4.069  13.831 -0.8133 -0.4706 -0.2334
 5991TIP3   OH239463   4.773   3.399   5.172 -0.3816  0.1958  0.0396
 5991TIP3    H139464   4.780   3.434   5.261 -3.0485  1.0443  0.0071
 5991TIP3    H239465   4.694   3.440   5.136 -0.0452 -1.0289 -2.3189
 5992TIP3   OH239466   1.974   1.683   6.389 -0.5114 -0.0717  0.1382
 5992TIP3    H139467   2.008   1.722   6.470 -1.3321 -1.6002  1.2720
 5992TIP3    H239468   2.013   1.596   6.385 -1.1366 -0.3362 -0.6611
 5993TIP3   OH239469   2.162   5.407   0.516  0.1283  0.2967 -0.2945
 5993TIP3    H139470   2.169   5.312   0.509  0.2467  0.2693  0.1785
 5993TIP3    H239471   2.127   5.434   0.431  0.5643 -0.1196 -0.6152
 5994TIP3   OH239472   0.774   4.349   0.457 -0.2343  0.0463 -0.1558
 5994TIP3    H139473   0.739   4.374   0.542 -0.4932 -2.1802  0.4694
 5994TIP3    H239474   0.699   4.318   0.407 -0.1646  1.7825 -1.4317
 5995TIP3   OH239475   4.582   1.104   5.551 -0.0737  0.2698  0.0378
 5995TIP3    H139476   4.489   1.114   5.532  0.0573 -1.6063 -1.9768
 5995TIP3    H239477   4.625   1.171   5.498 -0.2393  1.2966  1.1519
 5996TIP3   OH239478   2.715   5.932  15.503 -0.7838 -0.3389  0.0355
 5996TIP3    H139479   2.684   5.936  15.593  0.1606  1.3422  0.3252
 5996TIP3    H239480   2.807   5.904  15.511 -0.0609  1.7961 -0.1843
 5997TIP3   OH239481   3.660   4.040  12.221 -0.3562 -0.0165 -0.1676
 5997TIP3    H139482   3.695   4.125  12.193  1.4703 -1.0807 -1.2963
 5997TIP3    H239483   3.598   4.016  12.152  0.7559 -0.5649 -0.9992
 5998TIP3   OH239484   1.319   3.613  16.954  0.6607  0.3075  0.1784
 5998TIP3    H139485   1.255   3.673  16.993  1.0266  0.5629  0.3936
 5998TIP3    H239486   1.274   3.529  16.950 -0.0801  0.7403 -0.7201
 5999TIP3   OH239487   3.810   1.984  12.113 -0.6745 -0.2135 -0.2274
 5999TIP3    H139488   3.736   1.961  12.168  0.2424  0.0652  1.1715
 5999TIP3    H239489   3.812   2.080  12.114  0.0042 -0.2261  0.1836
 6000TIP3   OH239490   4.171   3.569  14.421  0.2041  0.4444  0.1097
 6000TIP3    H139491   4.101   3.627  14.452 -0.9903 -2.0563  2.5840
 6000TIP3    H239492   4.248   3.596  14.471  0.9428  2.7183 -2.0771
 6001TIP3   OH239493   2.455   0.848  15.168 -0.0327 -0.5929 -0.6855
 6001TIP3    H139494   2.424   0.931  15.203 -0.1278 -0.7409 -0.4094
 6001TIP3    H239495   2.498   0.870  15.086 -1.4462 -0.4494 -1.4184
 6002TIP3   OH239496   3.335   5.978  10.403  0.5597 -0.0509 -0.4182
 6002TIP3    H139497   3.340   6.073  10.388  0.0557  0.4944  2.2995
 6002TIP3    H239498   3.251   5.966  10.447  1.5544 -1.4272  1.2124
 6003TIP3   OH239499   2.802   1.368  12.782  0.8218  0.8471 -0.5772
 6003TIP3    H139500   2.774   1.427  12.712  0.7357 -0.8694 -2.0499
 6003TIP3    H239501   2.755   1.286  12.765  1.9831 -0.1078  0.5948
 6004TIP3   OH239502   6.686   0.736  13.613  0.1645  0.1999  0.2710
 6004TIP3    H139503   6.718   0.813  13.660 -2.3239  1.0241  0.7716
 6004TIP3    H239504   6.594   0.729  13.638 -0.1878 -1.7972 -1.3040
 6005TIP3   OH239505   6.502   1.883   5.720 -0.5637 -0.0148 -0.0902
 6005TIP3    H139506   6.574   1.823   5.701 -0.0030  1.4553 -3.2890
 6005TIP3    H239507   6.428   1.826   5.741  0.1011 -1.8681 -2.3732
 6006TIP3   OH239508   4.374   6.835  16.298  0.0796 -0.0298 -0.0124
 6006TIP3    H139509   4.466   6.827  16.324  0.1132 -1.1907 -0.4276
 6006TIP3    H239510   4.377   6.886  16.217  0.3841 -0.1964 -0.1116
 6007TIP3   OH239511   0.406   1.339  11.603  0.5666 -0.0979 -0.0667
 6007TIP3    H139512   0.419   1.342  11.698 -0.6382  1.4132  0.0903
 6007TIP3    H239513   0.357   1.258  11.589  0.7917 -0.3597  0.5825
 6008TIP3   OH239514   0.179   6.022   2.803  0.2948 -0.2652  0.6882
 6008TIP3    H139515   0.161   6.085   2.873 -1.9284 -0.2274  0.1662
 6008TIP3    H239516   0.257   5.975   2.832  0.6952  1.2184  2.1433
 6009TIP3   OH239517   4.570   1.283   1.420 -0.0965 -0.4003 -0.2192
 6009TIP3    H139518   4.584   1.249   1.332  0.1474 -0.2441 -0.2420
 6009TIP3    H239519   4.475   1.294   1.427 -0.1300 -0.5778 -0.4010
 6010TIP3   OH239520   0.263   5.716   0.671  0.6139  0.3537  0.1816
 6010TIP3    H139521   0.349   5.756   0.654 -0.0737  0.9948 -2.1780
 6010TIP3    H239522   0.218   5.720   0.587 -1.1528 -1.4483  0.9570
 6011TIP3   OH239523   4.374   5.328   1.826  0.3636 -0.2121 -0.0964
 6011TIP3    H139524   4.340   5.336   1.915  0.6751  0.8194 -0.0500
 6011TIP3    H239525   4.450   5.386   1.825 -1.4173  2.3496 -1.8861
 6012TIP3   OH239526   0.127   4.442  14.948  0.1726 -0.2637  0.5193
 6012TIP3    H139527   0.099   4.489  15.026  0.4786  1.4059 -0.3309
 6012TIP3    H239528   0.196   4.496  14.910  0.3316 -1.2508 -0.6823
 6013TIP3   OH239529   2.610   1.479  10.994  0.2625  0.5251 -0.5565
 6013TIP3    H139530   2.585   1.404  11.048 -2.9250  0.6237 -1.6977
 6013TIP3    H239531   2.664   1.441  10.925 -2.8311 -1.2762 -2.2343
 6014TIP3   OH239532   5.719   1.985  13.966 -0.5280  0.5501  0.0574
 6014TIP3    H139533   5.683   2.050  14.026 -0.0022  0.7751  0.1303
 6014TIP3    H239534   5.782   1.935  14.019  0.6341  1.3495 -0.5230
 6015TIP3   OH239535   1.873   0.382  14.402  0.1622  0.0558 -0.2293
 6015TIP3    H139536   1.866   0.287  14.394  1.4948 -0.3285  2.1913
 6015TIP3    H239537   1.964   0.401  14.377 -0.3495  0.8537 -1.5906
 6016TIP3   OH239538   1.647   5.534   4.148  0.4048 -0.1188  0.4443
 6016TIP3    H139539   1.696   5.503   4.072 -1.1721  1.3728 -1.2563
 6016TIP3    H239540   1.659   5.464   4.213  3.3517 -0.5811 -0.4196
 6017TIP3   OH239541   6.497   2.099  16.516  0.5659 -0.6035  0.0505
 6017TIP3    H139542   6.455   2.103  16.430  1.5166  1.6311 -0.3798
 6017TIP3    H239543   6.501   2.005  16.536 -0.2026 -1.1503 -2.0603
 6018TIP3   OH239544   4.461   3.124   2.534  0.3552 -0.0434  0.2108
 6018TIP3    H139545   4.420   3.056   2.588 -0.5714  1.4379  1.4774
 6018TIP3    H239546   4.492   3.190   2.598  1.8572  0.4091 -0.9216
 6019TIP3   OH239547   5.903   4.448  13.187 -0.1851  0.4220 -0.1425
 6019TIP3    H139548   5.975   4.467  13.247 -0.8994 -0.3197  0.9790
 6019TIP3    H239549   5.871   4.362  13.213  0.0162 -0.3265 -2.1437
 6020TIP3   OH239550   4.486   4.549  14.602 -0.3970 -0.1127  0.0259
 6020TIP3    H139551   4.571   4.506  14.610 -0.1741  0.4089  0.4730
 6020TIP3    H239552   4.494   4.605  14.525 -0.6841 -0.8482 -0.5511
 6021TIP3   OH239553   5.195   3.239   2.413 -0.3417 -0.1856  0.3797
 6021TIP3    H139554   5.127   3.190   2.367  0.0550  0.7146 -1.2358
 6021TIP3    H239555   5.178   3.331   2.390  0.0348  0.2874  1.8525
 6022TIP3   OH239556   4.752   1.933   0.081  0.3403 -0.5859 -0.2811
 6022TIP3    H139557   4.762   1.945  -0.014 -0.0663  0.1023 -0.2391
 6022TIP3    H239558   4.707   2.012   0.111 -1.2874 -1.6413  0.2022
 6023TIP3   OH239559   6.680   6.325   2.012 -0.5419  0.3250 -0.0787
 6023TIP3    H139560   6.756   6.305   1.957 -1.4447 -0.2788 -1.1283
 6023TIP3    H239561   6.630   6.389   1.961 -0.6716  0.8465  0.6832
 6024TIP3   OH239562   3.757   3.509  13.669  0.3434 -0.3309 -0.3082
 6024TIP3    H139563   3.669   3.548  13.677 -0.4988 -1.7255 -2.0747
 6024TIP3    H239564   3.783   3.526  13.579  3.2234  2.5416  0.8889
 6025TIP3   OH239565   1.357   4.290  14.256 -0.1167 -0.1401 -0.1988
 6025TIP3    H139566   1.288   4.285  14.190  0.2342 -0.6451 -0.5371
 6025TIP3    H239567   1.351   4.207  14.304 -0.5445  0.3343  0.5983
 6026TIP3   OH239568   6.712   6.551  14.833  0.0605 -0.1471 -0.4212
 6026TIP3    H139569   6.648   6.512  14.892  0.4355 -0.9445 -0.5256
 6026TIP3    H239570   6.754   6.476  14.791  1.8512  0.3064  0.4652
 6027TIP3   OH239571   0.033   2.092  14.894 -0.0053 -0.0823  0.3822
 6027TIP3    H139572   0.103   2.120  14.836 -1.7865  1.1279 -1.2989
 6027TIP3    H239573   0.043   2.147  14.972  0.5649  0.4811 -0.0769
 6028TIP3   OH239574   4.037   5.723  11.153  0.1908  0.1643 -0.3402
 6028TIP3    H139575   3.957   5.748  11.199  0.6275  0.7243  0.1330
 6028TIP3    H239576   4.023   5.753  11.063  0.2834  1.1998 -0.0215
 6029TIP3   OH239577   6.354   2.137   5.172 -0.7508  0.3218 -0.2758
 6029TIP3    H139578   6.390   2.172   5.091 -1.5498  0.9275 -0.3909
 6029TIP3    H239579   6.297   2.207   5.205  0.2064  0.4370  1.2557
 6030TIP3   OH239580   2.586   3.109  14.259 -0.4560 -0.3754  0.3458
 6030TIP3    H139581   2.548   3.164  14.190 -1.6445 -0.5915  0.8125
 6030TIP3    H239582   2.557   3.020  14.237  1.3950 -0.8557 -0.3695
 6031TIP3   OH239583   5.150   1.478   1.418 -0.1102  0.0050 -0.3752
 6031TIP3    H139584   5.216   1.455   1.352  0.1234 -0.0345 -0.1311
 6031TIP3    H239585   5.140   1.573   1.411 -0.8475 -0.1137 -1.1740
 6032TIP3   OH239586   0.643   4.603  10.987  0.1522  0.0915 -0.6396
 6032TIP3    H139587   0.689   4.593  11.071  0.4427  0.5514 -0.7387
 6032TIP3    H239588   0.713   4.604  10.922 -0.1663 -3.0339 -1.2091
 6033TIP3   OH239589   0.870   5.398  13.325 -0.0006 -0.3318 -0.3265
 6033TIP3    H139590   0.910   5.335  13.266 -0.1526 -1.8517  1.1359
 6033TIP3    H239591   0.939   5.462  13.343  1.2888 -1.9923  0.8553
 6034TIP3   OH239592   1.441   3.773  13.732  0.2471 -0.2411 -0.7074
 6034TIP3    H139593   1.413   3.698  13.680 -1.5048  0.5691 -1.0124
 6034TIP3    H239594   1.363   3.796  13.784  1.6035 -0.3808  1.5281
 6035TIP3   OH239595   3.959   6.559   2.057  0.1496  0.1200  0.0256
 6035TIP3    H139596   4.042   6.576   2.101  0.2211 -0.9411  0.3280
 6035TIP3    H239597   3.963   6.466   2.033 -1.5353 -0.3547  1.3507
 6036TIP3   OH239598   5.301   2.320   3.922  0.1266  0.4402  0.7165
 6036TIP3    H139599   5.359   2.393   3.945  0.4672  0.1027  0.9366
 6036TIP3    H239600   5.359   2.244   3.917  0.4537  0.7662 -3.2554
 6037TIP3   OH239601   5.058   5.476   0.825 -0.2199 -0.1424  0.0494
 6037TIP3    H139602   5.138   5.439   0.863  0.5240  1.4695  0.1435
 6037TIP3    H239603   5.087   5.520   0.746 -1.1123 -0.0180 -0.2188
 6038TIP3   OH239604   2.464   6.443   2.972  0.6529 -0.2928 -0.2242
 6038TIP3    H139605   2.462   6.394   2.891  0.5730  0.4246 -0.6692
 6038TIP3    H239606   2.425   6.528   2.950 -0.8787 -0.6572  0.9632
 6039TIP3   OH239607   4.371   6.670   0.481 -0.1430 -0.4177 -0.3108
 6039TIP3    H139608   4.281   6.662   0.451 -0.9852 -0.3368  2.0309
 6039TIP3    H239609   4.381   6.762   0.502  1.8568  0.5113 -4.2685
 6040TIP3   OH239610   0.185   6.203  11.603  0.5854  0.0583 -0.1440
 6040TIP3    H139611   0.183   6.264  11.676  1.5478 -0.8014  0.6298
 6040TIP3    H239612   0.110   6.146  11.617  0.6977 -0.0277  0.1035
 6041TIP3   OH239613   1.514   1.617  17.141  0.6306  0.0629  0.0773
 6041TIP3    H139614   1.446   1.685  17.145  2.4813  1.9955  0.4062
 6041TIP3    H239615   1.592   1.663  17.110  2.1024 -1.8335  0.7780
 6042TIP3   OH239616   3.603   4.141  16.995  0.7138  0.2566 -0.5246
 6042TIP3    H139617   3.608   4.236  16.990  1.2805  0.1885 -1.5116
 6042TIP3    H239618   3.694   4.112  17.004  0.4024 -0.0961  2.7035
 6043TIP3   OH239619   2.275   4.240   6.453  0.1142 -0.3023 -0.0095
 6043TIP3    H139620   2.213   4.167   6.451  0.1233 -0.3032 -1.7541
 6043TIP3    H239621   2.360   4.200   6.430 -0.1123  0.3850 -2.3859
 6044TIP3   OH239622   4.145   2.344  13.761 -0.3945  0.0528  0.0159
 6044TIP3    H139623   4.187   2.331  13.846 -0.4759  0.7194  0.1689
 6044TIP3    H239624   4.213   2.325  13.697 -0.3758 -0.6012  0.2224
 6045TIP3   OH239625   3.906   3.142  16.452 -0.6677  0.3641 -0.5122
 6045TIP3    H139626   3.924   3.203  16.524 -0.1790 -0.1911 -0.1520
 6045TIP3    H239627   3.811   3.133  16.451 -0.6603  0.0398  0.3630
 6046TIP3   OH239628   1.454   2.748  12.271 -0.3163  0.2186  0.2669
 6046TIP3    H139629   1.393   2.705  12.211 -0.3028  1.3505 -0.5867
 6046TIP3    H239630   1.449   2.841  12.248  1.2812  0.4115  0.5703
 6047TIP3   OH239631   2.691   0.342   4.531 -0.0499  0.3337  0.9160
 6047TIP3    H139632   2.654   0.256   4.554  0.6010  0.6541  3.4287
 6047TIP3    H239633   2.754   0.360   4.601 -0.9430  3.3550  1.0429
 6048TIP3   OH239634   1.483   2.610   0.288 -0.0877 -0.2318  0.1569
 6048TIP3    H139635   1.463   2.611   0.194  0.2987  0.3054  0.0757
 6048TIP3    H239636   1.437   2.686   0.323  0.0439 -0.2378  0.3444
 6049TIP3   OH239637   3.994   1.479   2.626 -0.7383  0.4541  0.4867
 6049TIP3    H139638   4.004   1.394   2.583 -2.1303  0.4544  0.1024
 6049TIP3    H239639   3.966   1.458   2.715  1.7074  0.4677  1.3282
 6050TIP3   OH239640   4.753   2.977   3.211  0.6666 -0.1307 -0.0236
 6050TIP3    H139641   4.659   2.971   3.232  0.5854  0.5066 -0.1964
 6050TIP3    H239642   4.780   2.886   3.198 -0.7162 -0.1988 -3.4330
 6051TIP3   OH239643   1.383   0.178   1.611 -0.3315  0.1723 -0.7255
 6051TIP3    H139644   1.376   0.243   1.682  0.4514  0.7308 -1.1523
 6051TIP3    H239645   1.319   0.110   1.635  0.4078  0.0068  0.8815
 6052TIP3   OH239646   0.372   3.631   4.496  0.1846 -0.0560 -0.0055
 6052TIP3    H139647   0.376   3.562   4.430  1.6845  0.3396 -0.3625
 6052TIP3    H239648   0.446   3.689   4.476 -0.6927  1.3613  0.6173
 6053TIP3   OH239649   3.055   3.841  16.221 -0.1359  0.4579 -0.3227
 6053TIP3    H139650   2.962   3.836  16.199 -0.1465 -1.6204  0.0220
 6053TIP3    H239651   3.098   3.855  16.137 -0.6716 -0.1788 -0.7168
 6054TIP3   OH239652   6.250   6.642  13.771 -0.2061 -0.3866 -0.4566
 6054TIP3    H139653   6.167   6.625  13.728 -0.9796 -0.4978  1.0231
 6054TIP3    H239654   6.288   6.556  13.786 -0.2542 -0.3835 -0.3167
 6055TIP3   OH239655   5.842   5.215  13.289 -0.3465  0.6358  0.2707
 6055TIP3    H139656   5.911   5.149  13.297 -1.4518 -0.4923  0.8730
 6055TIP3    H239657   5.777   5.174  13.232 -1.2130  1.0514  0.9368
 6056TIP3   OH239658   2.960   2.488  12.725 -0.5575  0.3924 -0.1928
 6056TIP3    H139659   2.913   2.539  12.791  0.4547  0.7289  0.2763
 6056TIP3    H239660   2.933   2.398  12.741 -1.1238  0.5923  0.0000
 6057TIP3   OH239661   1.610   4.744   0.996 -0.7791 -0.0916 -0.3710
 6057TIP3    H139662   1.558   4.810   1.042 -1.1760  0.4113 -1.4999
 6057TIP3    H239663   1.585   4.661   1.036 -2.2377  0.1720 -0.6849
 6058TIP3   OH239664   4.927   4.740   1.947 -0.1077  0.2345 -0.2627
 6058TIP3    H139665   4.934   4.777   1.859 -2.2305  1.1936 -0.1049
 6058TIP3    H239666   4.839   4.765   1.976  0.6090  0.1337  2.2197
 6059TIP3   OH239667   6.697   4.230   3.647  0.1395 -0.4591  0.0086
 6059TIP3    H139668   6.724   4.196   3.732  0.1793 -0.9220 -0.1841
 6059TIP3    H239669   6.774   4.278   3.615 -0.0200  0.0711  0.4140
 6060TIP3   OH239670   5.076   2.573  16.760 -0.5299  0.0695 -0.5562
 6060TIP3    H139671   5.169   2.589  16.779 -1.0643 -0.2375  2.8979
 6060TIP3    H239672   5.061   2.618  16.677  2.5193  0.7353 -0.8811
 6061TIP3   OH239673   4.423   2.491   3.521 -0.6445 -0.0735  0.1075
 6061TIP3    H139674   4.385   2.546   3.589 -2.1534 -0.1928 -0.6063
 6061TIP3    H239675   4.494   2.444   3.565  0.1037  1.7345  0.9515
 6062TIP3   OH239676   5.164   4.148   1.560 -0.1861  0.2942  0.4084
 6062TIP3    H139677   5.162   4.221   1.621  0.9402  0.1384  0.6532
 6062TIP3    H239678   5.203   4.076   1.609  1.5961  0.4250 -0.7175
 6063TIP3   OH239679   2.498   0.322  10.768  0.6095 -0.2947 -0.0406
 6063TIP3    H139680   2.474   0.234  10.796 -0.7139 -0.1236 -0.5346
 6063TIP3    H239681   2.443   0.379  10.822  1.5859  0.2535  0.4037
 6064TIP3   OH239682   3.063   5.401  14.148  0.4163  0.1382 -0.3901
 6064TIP3    H139683   2.982   5.438  14.183  0.4969 -0.4732  0.4672
 6064TIP3    H239684   3.077   5.448  14.066 -0.6734  0.4209 -0.4292
 6065TIP3   OH239685   0.240   1.344   1.694  0.0210  0.0898 -0.4117
 6065TIP3    H139686   0.154   1.307   1.716 -0.2264  1.5604  1.3079
 6065TIP3    H239687   0.302   1.291   1.744  0.1931 -1.0737 -1.7741
 6066TIP3   OH239688   5.077   1.180   1.170 -0.6098  0.1946 -0.5647
 6066TIP3    H139689   5.092   1.113   1.104 -0.4800  0.3117 -0.6542
 6066TIP3    H239690   5.164   1.213   1.192 -0.0269 -2.9897  3.0441
 6067TIP3   OH239691   1.055   2.605  16.760 -0.5859  0.0637  0.1338
 6067TIP3    H139692   0.965   2.573  16.767 -0.3337 -1.0723 -1.3269
 6067TIP3    H239693   1.076   2.597  16.667  0.8933  0.6889  0.3904
 6068TIP3   OH239694   1.079   5.705   4.035 -0.4008  0.0237  0.1220
 6068TIP3    H139695   0.994   5.708   4.079 -0.0366 -0.3008  0.8600
 6068TIP3    H239696   1.141   5.680   4.104  0.3570  0.6435 -0.3134
 6069TIP3   OH239697   6.424   0.822  11.003 -0.6862  0.9647 -0.0738
 6069TIP3    H139698   6.414   0.789  11.093  0.9018  0.4216 -0.0745
 6069TIP3    H239699   6.376   0.759  10.949 -0.3494  0.4160  0.2512
 6070TIP3   OH239700   1.147   3.266   1.240  0.0946 -0.0130 -0.7025
 6070TIP3    H139701   1.186   3.307   1.163  0.9135  0.1859 -0.2010
 6070TIP3    H239702   1.122   3.340   1.296  3.3548 -0.0496  1.0908
 6071TIP3   OH239703   4.960   6.695   1.932  0.1106 -0.0254 -0.1412
 6071TIP3    H139704   5.041   6.674   1.979 -0.5450 -1.1570  0.5303
 6071TIP3    H239705   4.986   6.762   1.869  1.4244  0.1309  0.5245
 6072TIP3   OH239706   1.459   1.290   1.925  0.4663 -0.4177 -0.1735
 6072TIP3    H139707   1.403   1.368   1.922  0.5546 -0.3596 -0.3415
 6072TIP3    H239708   1.459   1.264   2.017 -1.8469 -1.8886 -0.4955
 6073TIP3   OH239709   1.582   4.533   1.154  0.2660 -0.3102  0.0246
 6073TIP3    H139710   1.561   4.556   1.244  0.0079 -0.4187 -0.0105
 6073TIP3    H239711   1.610   4.442   1.158  0.5885 -0.2127  0.0478
 6074TIP3   OH239712   6.122   2.877   0.757  0.1338  0.0791 -0.2882
 6074TIP3    H139713   6.097   2.874   0.665 -0.4094 -1.1707 -0.1275
 6074TIP3    H239714   6.189   2.945   0.762  0.4420 -0.0951 -1.6623
 6075TIP3   OH239715   1.977   6.797   5.154 -0.0443  0.5347 -0.6657
 6075TIP3    H139716   2.067   6.822   5.175  1.3973 -5.0382  1.5945
 6075TIP3    H239717   1.986   6.733   5.083 -2.1302 -0.4865 -0.0704
 6076TIP3   OH239718   2.505   4.036   5.527  0.3872 -0.1448 -0.0864
 6076TIP3    H139719   2.600   4.026   5.534  0.5604  0.0237 -1.7516
 6076TIP3    H239720   2.489   4.129   5.543  0.6868  0.1160 -1.2093
 6077TIP3   OH239721   5.893   1.326   2.207  0.2162  0.0259 -0.3009
 6077TIP3    H139722   5.924   1.394   2.147 -0.8537  1.3167  0.5483
 6077TIP3    H239723   5.806   1.355   2.234  0.6405 -0.5068  1.8365
 6078TIP3   OH239724   1.570   2.847   3.061 -0.0589 -0.0340  0.1021
 6078TIP3    H139725   1.597   2.928   3.018  0.5298 -0.1908  0.1737
 6078TIP3    H239726   1.638   2.783   3.039 -0.7837 -0.6590 -0.3802
 6079TIP3   OH239727   2.820   0.562   0.970 -0.3323  0.3278 -1.4332
 6079TIP3    H139728   2.903   0.537   0.928  0.0187 -0.4088 -0.3338
 6079TIP3    H239729   2.828   0.656   0.984  0.9696  0.0311  0.0231
 6080TIP3   OH239730   4.116   4.023   0.147 -0.2328 -0.2740 -0.3459
 6080TIP3    H139731   4.077   4.076   0.078 -0.3193  0.9682  0.6041
 6080TIP3    H239732   4.092   3.933   0.126 -1.1022  0.1771 -1.3624
 6081TIP3   OH239733   2.998   6.249   3.801 -0.2308 -0.0630 -0.5548
 6081TIP3    H139734   3.024   6.161   3.828 -2.5078 -0.5083  0.4184
 6081TIP3    H239735   3.032   6.305   3.871 -2.2871 -0.7110  1.0643
 6082TIP3   OH239736   2.550   1.579  11.341 -0.4340 -0.6418 -0.3106
 6082TIP3    H139737   2.515   1.567  11.252 -1.3317 -0.7465  0.0527
 6082TIP3    H239738   2.626   1.636  11.329 -1.6810  0.9479 -0.9229
 6083TIP3   OH239739   1.515   3.676  13.249 -0.0710 -0.3844 -0.8900
 6083TIP3    H139740   1.436   3.707  13.203 -0.6419  0.9172  0.8713
 6083TIP3    H239741   1.490   3.591  13.285 -0.9314  0.3050  0.2004
 6084TIP3   OH239742   1.748   2.427  12.509 -0.0316 -0.5146  0.6385
 6084TIP3    H139743   1.652   2.426  12.509 -0.0332 -0.3623  0.9631
 6084TIP3    H239744   1.772   2.519  12.509  0.1284 -0.5093 -1.3830
 6085TIP3   OH239745   0.413   1.994  17.066 -0.3002  0.7052  0.2356
 6085TIP3    H139746   0.456   1.966  16.985 -0.7396  1.7829 -0.4035
 6085TIP3    H239747   0.342   2.052  17.036 -1.8489 -0.5761  1.2832
 6086TIP3   OH239748   5.019   0.742  13.448  0.2227  0.1351  0.3615
 6086TIP3    H139749   4.992   0.708  13.363 -0.7938  1.7484 -0.0025
 6086TIP3    H239750   5.083   0.810  13.428 -0.6599  1.1194  0.8188
 6087TIP3   OH239751   6.221   2.685   0.114  0.3052 -0.4962 -0.2600
 6087TIP3    H139752   6.256   2.642   0.036  1.3184 -0.9760  0.4413
 6087TIP3    H239753   6.268   2.768   0.120 -1.9011  1.0044 -1.8137
 6088TIP3   OH239754   1.152   1.354   3.165 -0.1287  0.1493  0.0019
 6088TIP3    H139755   1.095   1.407   3.221 -0.0238 -0.0048  0.2596
 6088TIP3    H239756   1.141   1.265   3.198  1.1824  0.2768  0.8635
 6089TIP3   OH239757   4.345   1.403   5.428 -0.4075 -0.7157 -0.0187
 6089TIP3    H139758   4.259   1.444   5.433 -1.6900 -3.0926 -0.9690
 6089TIP3    H239759   4.342   1.332   5.493  0.7687 -0.9225 -0.1662
 6090TIP3   OH239760   4.590   0.137   5.143 -0.0825 -0.2768 -0.5344
 6090TIP3    H139761   4.515   0.078   5.138 -0.2401  0.0022 -2.5470
 6090TIP3    H239762   4.566   0.200   5.211  0.3084 -2.7006  2.0561
 6091TIP3   OH239763   4.023   1.504  14.303 -0.2253  0.1930 -0.2876
 6091TIP3    H139764   4.068   1.543  14.378 -0.8475  0.5745 -0.1076
 6091TIP3    H239765   3.935   1.541  14.306 -0.0427  0.7908 -1.6504
 6092TIP3   OH239766   2.580   1.932   0.325 -0.3740  0.0997  0.0472
 6092TIP3    H139767   2.559   1.950   0.417  2.1253  0.3820  0.6441
 6092TIP3    H239768   2.630   2.008   0.296 -0.7259 -0.1993 -1.4143
 6093TIP3   OH239769   2.298   4.438  12.084  0.1766  0.3579  0.7526
 6093TIP3    H139770   2.376   4.493  12.075  0.1328  0.1122 -2.9125
 6093TIP3    H239771   2.332   4.355  12.119  1.4107  0.6365  0.2968
 6094TIP3   OH239772   2.897   0.114   0.055  0.1857  0.0382  0.1719
 6094TIP3    H139773   2.975   0.108   0.001 -0.0162 -0.7363 -0.0447
 6094TIP3    H239774   2.872   0.023   0.072 -1.1111  0.2637 -0.4049
 6095TIP3   OH239775   1.762   5.284  16.916 -0.1321 -0.1318 -0.1593
 6095TIP3    H139776   1.768   5.276  16.821  0.2870  1.4853 -0.2956
 6095TIP3    H239777   1.806   5.206  16.950 -1.9503 -1.7243 -1.2542
 6096TIP3   OH239778   4.792   4.819   4.999 -0.0318 -0.0422  0.3874
 6096TIP3    H139779   4.800   4.897   4.944  0.5867 -1.0027 -0.9600
 6096TIP3    H239780   4.768   4.749   4.938  0.3253 -1.0852  1.3988
 6097TIP3   OH239781   6.559   0.810   5.688 -0.3352  0.3284 -0.4682
 6097TIP3    H139782   6.599   0.817   5.601  0.2429  0.8673 -0.1637
 6097TIP3    H239783   6.581   0.722   5.718  0.9049  0.7310 -0.1710
 6098TIP3   OH239784   2.400   4.318  13.963  0.1579 -0.0383  0.7680
 6098TIP3    H139785   2.422   4.400  13.920  3.0365 -1.4948 -0.8386
 6098TIP3    H239786   2.380   4.342  14.053 -2.3729  2.7130 -0.3363
 6099TIP3   OH239787   0.277   4.449   2.354  0.0056  0.0507  0.2471
 6099TIP3    H139788   0.330   4.419   2.428 -0.5506 -0.1001  0.5994
 6099TIP3    H239789   0.299   4.389   2.283 -0.6452 -0.8397  0.7689
 6100TIP3   OH239790   5.795   1.055   1.302  0.1027 -0.2937 -0.1200
 6100TIP3    H139791   5.703   1.060   1.278 -0.0320  0.1872  0.4903
 6100TIP3    H239792   5.807   1.122   1.369  0.8290 -0.5493  0.0211
 6101TIP3   OH239793   1.459   0.808   0.941  0.2737  0.0369  0.1664
 6101TIP3    H139794   1.540   0.758   0.935  0.1579 -0.3059  1.2875
 6101TIP3    H239795   1.394   0.754   0.896  0.2658 -0.5951  0.9089
 6102TIP3   OH239796   4.533   1.733  15.428  0.0306  0.3145 -0.2840
 6102TIP3    H139797   4.450   1.694  15.404  0.4706 -0.3020 -0.8334
 6102TIP3    H239798   4.585   1.732  15.348  0.4272  1.0735 -0.0542
 6103TIP3   OH239799   2.195   2.289   3.434 -0.0646  0.4425 -0.1387
 6103TIP3    H139800   2.284   2.296   3.468 -0.1706  1.1952  0.0020
 6103TIP3    H239801   2.207   2.282   3.339  0.2312 -1.7077  0.0039
 6104TIP3   OH239802   2.881   0.473   4.131 -0.5995  0.1849 -0.3607
 6104TIP3    H139803   2.920   0.451   4.046 -0.4587 -0.1221 -0.2183
 6104TIP3    H239804   2.843   0.391   4.162  1.8299 -0.4827  1.1776
 6105TIP3   OH239805   3.365   6.356   2.477  0.3196  0.8157 -0.0288
 6105TIP3    H139806   3.309   6.316   2.545 -1.2629  0.0840 -1.6678
 6105TIP3    H239807   3.317   6.434   2.450  0.2442  0.3800 -1.2044
 6106TIP3   OH239808   3.745   0.311  15.853  0.0949 -0.1075  0.1065
 6106TIP3    H139809   3.809   0.380  15.837  0.4575 -0.1136  1.3996
 6106TIP3    H239810   3.700   0.299  15.769  2.5796 -0.9641 -1.2078
 6107TIP3   OH239811   4.950   4.176   5.495 -0.2595 -0.4308 -0.0997
 6107TIP3    H139812   4.934   4.267   5.523 -0.1723 -0.4327 -0.0419
 6107TIP3    H239813   4.995   4.136   5.570 -0.1318 -0.4695 -0.1965
 6108TIP3   OH239814   3.816   3.069  15.586 -0.2492  0.7715 -0.2399
 6108TIP3    H139815   3.827   2.992  15.531 -0.0273  0.9048 -0.3860
 6108TIP3    H239816   3.905   3.101  15.601 -0.4018  1.6659 -1.1357
 6109TIP3   OH239817   2.697   3.590   2.659  0.2988  0.3166  0.0832
 6109TIP3    H139818   2.738   3.634   2.585  1.0768 -1.1317 -0.3838
 6109TIP3    H239819   2.770   3.572   2.719 -0.0861  0.1386  0.4992
 6110TIP3   OH239820   5.787   2.589  15.847  0.5740  0.1909  0.8250
 6110TIP3    H139821   5.784   2.503  15.889  0.7470 -0.9203 -1.2636
 6110TIP3    H239822   5.696   2.616  15.840  0.2908 -1.0434 -0.7407
 6111TIP3   OH239823   1.023   1.794  14.979 -0.1248  0.3395 -0.4695
 6111TIP3    H139824   1.060   1.833  14.900 -1.3612  2.3848 -0.0985
 6111TIP3    H239825   0.951   1.739  14.947 -0.8068  1.3855 -0.7749
 6112TIP3   OH239826   2.762   0.675   1.757 -0.5255 -0.0426 -0.0202
 6112TIP3    H139827   2.831   0.717   1.705 -1.1986 -1.0048 -1.7470
 6112TIP3    H239828   2.681   0.697   1.712 -1.4784  1.4513  2.2414
 6113TIP3   OH239829   3.960   6.332   1.490  0.1324  0.4437  0.3950
 6113TIP3    H139830   3.955   6.291   1.403 -1.1108  0.1369  0.5890
 6113TIP3    H239831   3.998   6.265   1.546 -0.5529  0.0738  0.4155
 6114TIP3   OH239832   6.802   5.749  14.325  0.2447  0.5759 -0.1184
 6114TIP3    H139833   6.847   5.825  14.289 -0.3677  0.4410 -1.2133
 6114TIP3    H239834   6.808   5.760  14.420  0.4978  1.7803 -0.2627
 6115TIP3   OH239835   6.330   2.078   2.040  0.2447 -0.3733  0.0482
 6115TIP3    H139836   6.328   2.165   1.999  0.0975  1.2341  3.1813
 6115TIP3    H239837   6.414   2.041   2.012 -0.1318  0.2895 -2.1626
 6116TIP3   OH239838   3.726   5.606  10.743 -0.1307  0.1083  0.7231
 6116TIP3    H139839   3.705   5.549  10.669 -0.2241 -0.3104  1.0666
 6116TIP3    H239840   3.820   5.596  10.755 -0.1964 -0.2262  0.9834
 6117TIP3   OH239841   1.072   4.881  14.885  0.0815  0.0765 -0.0043
 6117TIP3    H139842   1.126   4.820  14.936 -1.3142 -1.6664 -0.5044
 6117TIP3    H239843   1.046   4.948  14.948  0.9516 -0.3014  0.7886
 6118TIP3   OH239844   2.441   3.475   1.325  0.1695  0.2481 -0.7028
 6118TIP3    H139845   2.410   3.529   1.398 -0.1755  0.6444 -1.1405
 6118TIP3    H239846   2.463   3.538   1.256  4.2350  0.2699  0.3248
 6119TIP3   OH239847   6.679   0.453   3.210  0.0707 -0.6167 -0.6769
 6119TIP3    H139848   6.763   0.460   3.165 -0.7566 -0.9952 -2.3736
 6119TIP3    H239849   6.662   0.540   3.245  0.9195 -0.4029 -0.7961
 6120TIP3   OH239850   1.881   2.935   1.429 -0.3126  0.1010  0.0637
 6120TIP3    H139851   1.811   2.964   1.488  0.5537 -0.7229  1.5857
 6120TIP3    H239852   1.946   3.005   1.432  0.6857 -0.8235  1.8313
 6121TIP3   OH239853   1.192   5.050   5.583 -0.4818  0.4606  0.5786
 6121TIP3    H139854   1.148   4.966   5.583 -0.7557  0.5646 -0.9773
 6121TIP3    H239855   1.155   5.097   5.658  0.7147 -1.2692  2.3524
 6122TIP3   OH239856   2.918   6.644  12.216 -0.1662  0.1142 -0.0329
 6122TIP3    H139857   2.996   6.692  12.187 -0.8373  0.9605 -0.4718
 6122TIP3    H239858   2.913   6.569  12.158  1.0642 -0.7011  0.8472
 6123TIP3   OH239859   3.952   6.282   0.354 -0.3392 -0.2339  0.4766
 6123TIP3    H139860   3.983   6.320   0.437 -1.2939  0.1061  0.6901
 6123TIP3    H239861   3.965   6.188   0.366 -0.8895 -0.2304  1.2054
 6124TIP3   OH239862   6.571   1.652  14.098 -0.1121  0.4125 -0.0837
 6124TIP3    H139863   6.487   1.629  14.138 -0.9103 -0.2198 -1.9975
 6124TIP3    H239864   6.628   1.675  14.172 -1.8152  0.3868  1.2914
 6125TIP3   OH239865   1.814   5.938  15.606  0.1804  0.1036 -0.0635
 6125TIP3    H139866   1.826   5.969  15.516  0.4695 -1.5210 -0.6249
 6125TIP3    H239867   1.755   5.863  15.598  1.6463 -1.2258  0.8278
 6126TIP3   OH239868   4.736   6.133  15.058 -0.6069  0.1812  0.4042
 6126TIP3    H139869   4.819   6.174  15.035  0.6638 -2.2529  0.2793
 6126TIP3    H239870   4.735   6.133  15.154 -0.2535 -0.1467  0.4111
 6127TIP3   OH239871   2.451   0.800   1.827 -0.5708  0.8227  0.4282
 6127TIP3    H139872   2.375   0.826   1.775 -0.8775  0.1032  0.5061
 6127TIP3    H239873   2.511   0.760   1.764 -0.4549  0.9612  0.4484
 6128TIP3   OH239874   0.389   5.843  11.601 -0.1564 -0.0674  0.1233
 6128TIP3    H139875   0.400   5.863  11.508 -0.4583  0.4257  0.1946
 6128TIP3    H239876   0.453   5.899  11.646  0.6231 -0.9533  0.1544
 6129TIP3   OH239877   6.695   5.299   3.803 -0.0718 -0.0727  0.2391
 6129TIP3    H139878   6.760   5.364   3.774 -0.6841  1.6633  2.4768
 6129TIP3    H239879   6.651   5.272   3.723  0.8522  1.5882 -0.8866
 6130TIP3   OH239880   1.195   3.531   5.703  0.3793 -0.2434 -0.6205
 6130TIP3    H139881   1.259   3.602   5.704 -0.1749  0.2579  0.5845
 6130TIP3    H239882   1.247   3.452   5.688  1.0413  0.3659 -1.6521
 6131TIP3   OH239883   1.589   1.586   1.858  0.5759  0.0146 -0.0109
 6131TIP3    H139884   1.630   1.597   1.944  1.8721  0.0786 -0.6035
 6131TIP3    H239885   1.617   1.498   1.830  0.2404  0.0289 -0.3970
 6132TIP3   OH239886   0.476   3.934  13.061  0.1557 -0.0548  0.2650
 6132TIP3    H139887   0.511   3.864  13.006 -0.2599  0.7157 -1.0332
 6132TIP3    H239888   0.411   3.977  13.005 -0.9402  0.2080  1.6827
 6133TIP3   OH239889   6.313   1.038  12.558 -0.4641  0.3506  0.4699
 6133TIP3    H139890   6.274   1.047  12.471 -0.9347  0.2242  0.6592
 6133TIP3    H239891   6.238   1.017  12.615 -0.0147 -0.6383  0.7241
 6134TIP3   OH239892   1.273   4.533   2.369  0.0853  0.6684  0.1861
 6134TIP3    H139893   1.316   4.543   2.284 -1.6266 -3.0268 -1.3597
 6134TIP3    H239894   1.192   4.485   2.349 -0.4303 -0.3165  3.8989
 6135TIP3   OH239895   0.210   1.794  15.369  0.3222 -0.0263 -0.2196
 6135TIP3    H139896   0.172   1.882  15.368  0.3495 -0.0191 -1.3765
 6135TIP3    H239897   0.134   1.736  15.368  0.3120 -0.0177 -0.0036
 6136TIP3   OH239898   3.310   3.601  13.873 -0.1742  0.1851  0.3928
 6136TIP3    H139899   3.398   3.637  13.873  0.1221 -0.4934 -0.4115
 6136TIP3    H239900   3.278   3.616  13.784 -1.2593  1.2941  0.9254
 6137TIP3   OH239901   5.666   3.389  16.796 -0.4020 -0.0231 -0.4521
 6137TIP3    H139902   5.746   3.337  16.800  0.4378  1.2752  0.5897
 6137TIP3    H239903   5.694   3.478  16.818 -2.2835  0.2737  1.0304
 6138TIP3   OH239904   0.266   5.012  11.393 -0.9239  0.7001 -0.2270
 6138TIP3    H139905   0.215   5.037  11.470  1.6426  0.7343  1.5850
 6138TIP3    H239906   0.357   5.025  11.419  0.3027 -3.2899 -1.7681
 6139TIP3   OH239907   6.283   4.462  12.861 -0.2880 -0.3323  0.2465
 6139TIP3    H139908   6.192   4.455  12.890  0.2093  0.3280  2.0788
 6139TIP3    H239909   6.334   4.464  12.942  1.4770 -1.9641 -0.7465
 6140TIP3   OH239910   2.700   6.422   2.443 -0.3521 -0.8738  0.8583
 6140TIP3    H139911   2.760   6.495   2.460 -0.2874 -0.4015 -1.0853
 6140TIP3    H239912   2.754   6.356   2.399 -1.1584 -0.4971 -0.8056
 6141TIP3   OH239913   2.086   0.453  11.920  0.4675 -0.5846 -0.0301
 6141TIP3    H139914   2.088   0.503  12.002  1.1165 -0.7761  0.0778
 6141TIP3    H239915   2.174   0.461  11.885  0.6366 -1.7813  0.0718
 6142TIP3   OH239916   2.103   3.919   4.680 -0.3062 -0.6101  0.6310
 6142TIP3    H139917   2.144   3.834   4.700 -0.2717 -0.9819 -0.8998
 6142TIP3    H239918   2.084   3.914   4.587  0.5469  1.4463  0.3063
 6143TIP3   OH239919   4.824   3.076  14.913 -0.0371 -0.0471  0.1813
 6143TIP3    H139920   4.904   3.041  14.872  1.1322  1.0572  1.4277
 6143TIP3    H239921   4.801   3.151  14.859 -0.4671 -0.5973 -0.4078
 6144TIP3   OH239922   4.659   3.004  13.326 -0.0087 -0.2095 -0.4708
 6144TIP3    H139923   4.690   2.956  13.403 -0.1071  2.1426  1.1133
 6144TIP3    H239924   4.573   2.966  13.307 -0.3840 -0.2361  1.1439
 6145TIP3   OH239925   0.159   0.404   4.280 -0.0808 -0.1651 -0.1887
 6145TIP3    H139926   0.178   0.378   4.370  1.6804 -0.2846 -0.5701
 6145TIP3    H239927   0.081   0.352   4.257  0.5427 -1.5517  0.6591
 6146TIP3   OH239928   5.903   3.749   2.615  0.9594  0.1690 -0.0193
 6146TIP3    H139929   5.846   3.681   2.651  1.1940 -0.3179 -0.5469
 6146TIP3    H239930   5.992   3.716   2.629  1.1633  1.2166  1.3840
 6147TIP3   OH239931   4.995   0.205  10.623  0.6941  0.1142 -0.5643
 6147TIP3    H139932   4.980   0.299  10.616  2.1847  0.2666 -2.6167
 6147TIP3    H239933   4.970   0.170  10.538  1.4043 -1.1505 -0.2816
 6148TIP3   OH239934   0.694   2.067   2.045  0.0444 -0.0854  0.3621
 6148TIP3    H139935   0.790   2.060   2.041  0.0348  0.0721 -0.4785
 6148TIP3    H239936   0.664   1.978   2.062  0.3237 -0.2754 -0.0993
 6149TIP3   OH239937   4.189   3.789   3.906 -0.0093 -0.1670 -0.0322
 6149TIP3    H139938   4.187   3.843   3.985 -1.0540 -0.5574  0.2325
 6149TIP3    H239939   4.267   3.735   3.916  0.9512  1.1486 -0.2230
 6150TIP3   OH239940   4.351   0.618  12.338  0.6538  0.1471 -0.2821
 6150TIP3    H139941   4.405   0.628  12.260 -1.9064 -0.2542 -2.2139
 6150TIP3    H239942   4.302   0.700  12.344 -1.6430 -1.0945 -1.1486
 6151TIP3   OH239943   1.372   3.278  13.905 -0.4052  0.4784 -0.1795
 6151TIP3    H139944   1.461   3.310  13.896  0.1469 -0.0472  2.5029
 6151TIP3    H239945   1.375   3.220  13.982 -2.3330 -2.3011 -1.9844
 6152TIP3   OH239946   4.633   4.337   0.673 -0.2808  0.0687 -0.0695
 6152TIP3    H139947   4.630   4.261   0.730 -0.3059 -0.4498 -0.7570
 6152TIP3    H239948   4.576   4.315   0.599 -1.4117  1.2950  0.3756
 6153TIP3   OH239949   2.780   4.953   0.763  1.0640  0.3731 -0.2590
 6153TIP3    H139950   2.720   5.027   0.765  1.5622  0.8719 -2.0168
 6153TIP3    H239951   2.723   4.876   0.758  0.5588  0.7135  0.1602
 6154TIP3   OH239952   0.014   2.720  14.557  0.4713 -0.0401 -0.3004
 6154TIP3    H139953   0.024   2.741  14.650 -0.1189  1.8371 -0.6198
 6154TIP3    H239954   0.102   2.733  14.520  0.6703 -0.6356 -0.0575
 6155TIP3   OH239955   5.957   6.418  12.173 -0.0841  0.9581  0.1156
 6155TIP3    H139956   5.897   6.464  12.231 -0.9221 -0.4072  0.3601
 6155TIP3    H239957   5.908   6.404  12.092 -0.3115 -0.6236  0.4998
 6156TIP3   OH239958   4.526   6.775  16.851  0.0726 -0.2040  0.7089
 6156TIP3    H139959   4.528   6.786  16.756 -0.6731 -1.4068  0.5330
 6156TIP3    H239960   4.599   6.829  16.883 -0.1888  0.8863 -0.4600
 6157TIP3   OH239961   0.144   2.216  12.280  0.3280  0.3430  0.4475
 6157TIP3    H139962   0.095   2.243  12.358 -1.3561  0.6913 -0.6761
 6157TIP3    H239963   0.231   2.195  12.313 -0.5374 -0.2395  2.5394
 6158TIP3   OH239964   0.648   0.742  14.647 -0.0359 -0.1231 -0.5369
 6158TIP3    H139965   0.688   0.701  14.570  0.9010  1.4842 -0.9632
 6158TIP3    H239966   0.561   0.702  14.653  0.9055 -2.3267 -0.7287
 6159TIP3   OH239967   5.910   4.726  13.935 -0.4365  0.0263  0.4461
 6159TIP3    H139968   5.892   4.683  14.018  1.1619 -1.7366 -0.0387
 6159TIP3    H239969   5.878   4.666  13.868 -0.4487  0.7633 -0.2331
 6160TIP3   OH239970   6.300   3.273   6.663  0.0367 -0.5586 -0.1704
 6160TIP3    H139971   6.271   3.254   6.752  2.4657  0.7300  0.9746
 6160TIP3    H239972   6.371   3.336   6.673 -0.8435  1.1111 -3.1555
 6161TIP3   OH239973   5.033   3.581   0.657  0.5912 -0.2042 -0.2516
 6161TIP3    H139974   5.026   3.556   0.749  0.7787 -1.3773 -0.5521
 6161TIP3    H239975   5.019   3.676   0.658  0.2893 -0.2406  0.9473
 6162TIP3   OH239976   5.635   0.792   1.597  0.1025  0.0333 -0.0384
 6162TIP3    H139977   5.672   0.759   1.515 -0.2236 -0.5692  0.0516
 6162TIP3    H239978   5.620   0.885   1.581 -2.3349 -0.5291 -1.5649
 6163TIP3   OH239979   1.709   5.354  15.277 -0.7382  0.0891 -0.1566
 6163TIP3    H139980   1.707   5.449  15.265 -1.4625  0.1747  0.5934
 6163TIP3    H239981   1.783   5.339  15.335  0.6142 -0.0051 -1.8415
 6164TIP3   OH239982   4.204   2.090  15.224  0.3869  0.1677  0.1091
 6164TIP3    H139983   4.267   2.100  15.152 -0.3487  0.3970 -0.5151
 6164TIP3    H239984   4.160   2.007  15.206 -0.0555  0.4030  0.0845
 6165TIP3   OH239985   1.461   3.147   4.690  0.1620  0.1513  0.1322
 6165TIP3    H139986   1.519   3.082   4.650 -0.2883  0.5861 -1.2721
 6165TIP3    H239987   1.414   3.186   4.617 -2.6699 -0.8674  1.2726
 6166TIP3   OH239988   4.464   2.437  15.671 -0.4778 -0.2874 -0.4084
 6166TIP3    H139989   4.432   2.397  15.752  1.2375  1.8235  1.4321
 6166TIP3    H239990   4.424   2.524  15.670  1.9073  0.8954 -0.1200
 6167TIP3   OH239991   3.034   0.821  12.044  0.5759  0.2933 -0.7938
 6167TIP3    H139992   3.107   0.803  12.103 -0.4128 -1.7673 -0.1117
 6167TIP3    H239993   3.072   0.813  11.956  1.1008 -1.3515 -0.4628
 6168TIP3   OH239994   2.698   5.910  15.052  0.0581  0.2415  0.1841
 6168TIP3    H139995   2.754   5.941  14.981  0.4488  1.4007  0.9675
 6168TIP3    H239996   2.663   5.990  15.092  0.7164 -0.3226  1.9886
 6169TIP3   OH239997   0.834   3.586  15.286 -0.4891 -0.0248  0.0872
 6169TIP3    H139998   0.781   3.581  15.365  0.7395  0.3969  0.9628
 6169TIP3    H239999   0.781   3.636  15.225 -1.3942 -0.2311  0.6925
 6170TIP3   OH240000   0.222   6.782  14.314  0.1462  0.6381  0.0158
 6170TIP3    H140001   0.299   6.731  14.288  0.1270  1.2173 -1.2268
 6170TIP3    H240002   0.250   6.874  14.305 -1.2937  0.9185 -2.5416
 6171TIP3   OH240003   6.576   0.259  14.913  0.1556 -0.3904 -0.3005
 6171TIP3    H140004   6.580   0.195  14.985 -0.8948 -1.5396 -1.2164
 6171TIP3    H240005   6.488   0.294  14.918  0.5827  0.6997 -0.0919
 6172TIP3   OH240006   4.569   3.286  12.417 -0.0349  0.3487 -0.3504
 6172TIP3    H140007   4.552   3.268  12.510 -0.1722  0.3052 -0.3842
 6172TIP3    H240008   4.598   3.203  12.381  0.0471  0.3726 -0.3394
 6173TIP3   OH240009   5.286   2.578   1.368  0.4957 -0.2774 -0.3714
 6173TIP3    H140010   5.332   2.662   1.363  1.0350 -0.4557  1.0704
 6173TIP3    H240011   5.355   2.513   1.381 -0.0710 -0.5571  1.7921
 6174TIP3   OH240012   4.480   5.199  12.602  0.6717  0.3328 -0.1751
 6174TIP3    H140013   4.404   5.257  12.601 -0.1947 -0.7929 -0.8513
 6174TIP3    H240014   4.517   5.210  12.690 -2.1478 -1.4735  1.3921
 6175TIP3   OH240015   1.184   4.311   1.181  0.7173  0.4249 -0.5964
 6175TIP3    H140016   1.107   4.361   1.156 -1.7016 -1.8910  1.6026
 6175TIP3    H240017   1.212   4.348   1.264 -1.1807 -1.6979  1.1250
 6176TIP3   OH240018   1.446   4.306   3.297  0.3241 -0.8995 -0.1216
 6176TIP3    H140019   1.525   4.359   3.297  1.7288 -2.8424  1.0439
 6176TIP3    H240020   1.455   4.248   3.222  1.1831 -2.6243  1.2240
 6177TIP3   OH240021   5.521   6.343   2.263 -0.9272  0.2655  0.2024
 6177TIP3    H140022   5.483   6.328   2.350 -0.4185  0.5108  0.4760
 6177TIP3    H240023   5.571   6.264   2.244 -0.8826  0.2885  0.2228
 6178TIP3   OH240024   6.786   5.542  11.432  0.4497 -0.1887 -0.1894
 6178TIP3    H140025   6.863   5.504  11.475 -0.4239 -1.3018  0.4637
 6178TIP3    H240026   6.732   5.575  11.504  0.2946  0.5640 -0.6378
 6179TIP3   OH240027   2.390   5.856  14.799 -0.5257 -0.0437 -0.0757
 6179TIP3    H140028   2.458   5.920  14.783  2.3772 -2.6708  0.7181
 6179TIP3    H240029   2.386   5.849  14.895 -0.9565 -0.8519 -0.1421
 6180TIP3   OH240030   4.705   4.940   2.733  0.4707 -0.3409  0.7372
 6180TIP3    H140031   4.792   4.909   2.760  0.4399 -0.5247  0.6270
 6180TIP3    H240032   4.655   4.943   2.815  0.6420 -0.0306  0.8324
 6181TIP3   OH240033   4.525   5.581   0.582 -0.0673 -0.2519 -0.0544
 6181TIP3    H140034   4.595   5.519   0.564  0.5821  0.5387 -0.2942
 6181TIP3    H240035   4.556   5.631   0.657  0.7519  1.7456 -1.6412
 6182TIP3   OH240036   4.324   3.437   2.414  0.2458 -0.3849 -0.1968
 6182TIP3    H140037   4.282   3.380   2.479 -0.9919 -0.3738 -0.9500
 6182TIP3    H240038   4.305   3.396   2.330  1.6815 -0.3034 -0.5934
 6183TIP3   OH240039   5.911   3.646   6.058 -1.1452  0.0006  0.2540
 6183TIP3    H140040   5.937   3.579   5.995 -0.5692  0.0340  0.4531
 6183TIP3    H240041   5.861   3.710   6.006  2.2022  1.8666 -0.9739
 6184TIP3   OH240042   3.565   5.003   3.144  0.0452  0.3351 -0.1310
 6184TIP3    H140043   3.540   4.975   3.232  1.3292  0.3080  0.2374
 6184TIP3    H240044   3.484   5.040   3.107 -1.2325 -2.0869  0.0546
 6185TIP3   OH240045   6.757   2.817   4.515  0.0039  0.3387  0.1141
 6185TIP3    H140046   6.852   2.823   4.524 -0.1686  0.3728  2.4330
 6185TIP3    H240047   6.743   2.732   4.472  1.0504  0.0621  0.2790
 6186TIP3   OH240048   3.359   5.521  13.519 -0.1887 -0.7402 -0.2478
 6186TIP3    H140049   3.313   5.444  13.553 -0.3507 -0.3984  0.3201
 6186TIP3    H240050   3.430   5.536  13.580 -1.1793  0.5823  0.6525
 6187TIP3   OH240051   4.156   2.618  16.158 -0.4219  0.3351 -0.0288
 6187TIP3    H140052   4.081   2.662  16.197  0.6577  2.9593 -0.6797
 6187TIP3    H240053   4.214   2.600  16.232  0.2276  2.3950  0.0111
 6188TIP3   OH240054   0.475   4.259   1.147 -0.5775  0.5232 -0.4284
 6188TIP3    H140055   0.506   4.347   1.123  1.9748 -0.2488 -0.2433
 6188TIP3    H240056   0.508   4.202   1.077  1.3600 -0.8162  1.4421
 6189TIP3   OH240057   0.764   2.891  15.635 -0.5816 -0.1347  0.0371
 6189TIP3    H140058   0.768   2.986  15.626  0.5702 -0.3104 -2.0492
 6189TIP3    H240059   0.690   2.865  15.581 -1.6907 -0.3654  1.6201
 6190TIP3   OH240060   1.862   4.995  14.181 -0.3518  0.4245  0.6014
 6190TIP3    H140061   1.900   5.082  14.196 -0.1983  0.5804 -0.6454
 6190TIP3    H240062   1.864   4.953  14.268  1.9653  0.6998  0.7373
 6191TIP3   OH240063   6.210   3.332  14.298 -0.8098  0.0917 -0.2699
 6191TIP3    H140064   6.151   3.403  14.325  0.4439  1.0639  0.0417
 6191TIP3    H240065   6.221   3.278  14.376 -0.3923  0.5736  0.0108
 6192TIP3   OH240066   3.099   2.672  15.463 -0.2757 -0.0089 -0.1903
 6192TIP3    H140067   3.161   2.602  15.483 -0.1836  0.4621  1.3245
 6192TIP3    H240068   3.153   2.751  15.460 -0.4447  0.0815 -1.4517
 6193TIP3   OH240069   3.896   3.985   4.027 -0.4485 -0.0086  0.6103
 6193TIP3    H140070   3.890   3.899   4.069 -0.4028 -0.5595 -0.4699
 6193TIP3    H240071   3.805   4.007   4.005 -0.3818 -0.2040  0.1031
 6194TIP3   OH240072   5.795   6.752  11.195  0.2792  0.0728 -0.3254
 6194TIP3    H140073   5.749   6.668  11.188  0.6123 -0.2235  0.8122
 6194TIP3    H240074   5.888   6.729  11.201  0.3643  0.5063  0.1369
 6195TIP3   OH240075   6.099   5.558   4.289  0.3186  0.3793 -0.6434
 6195TIP3    H140076   6.163   5.534   4.356  0.7095 -0.4430 -1.2934
 6195TIP3    H240077   6.151   5.598   4.219  0.2771 -1.1075 -1.5696
 6196TIP3   OH240078   5.424   2.471  12.828 -0.0455  0.2222  0.0038
 6196TIP3    H140079   5.349   2.414  12.843 -1.0299  1.2321 -0.8878
 6196TIP3    H240080   5.401   2.552  12.874  0.8987  0.2493  0.4459
 6197TIP3   OH240081   2.462   3.331  12.843 -0.0823  0.5860 -0.0525
 6197TIP3    H140082   2.531   3.355  12.781 -0.6747  0.7023 -0.6769
 6197TIP3    H240083   2.419   3.413  12.866  0.3904  0.5988  0.8411
 6198TIP3   OH240084   1.311   4.849   0.113 -0.3208 -0.5892  0.4397
 6198TIP3    H140085   1.254   4.831   0.187  0.6153 -2.2076  0.8187
 6198TIP3    H240086   1.253   4.851   0.037 -1.7461  3.7784  1.3353
 6199TIP3   OH240087   2.460   4.931   6.049  0.1204  0.3953  0.1780
 6199TIP3    H140088   2.478   5.016   6.008  0.5661 -0.4027 -1.3533
 6199TIP3    H240089   2.546   4.898   6.074  0.1106 -0.2945 -0.6733
 6200TIP3   OH240090   5.519   3.471  10.786 -0.1929  0.1144  0.0642
 6200TIP3    H140091   5.584   3.467  10.716  0.1200  0.2477  0.3499
 6200TIP3    H240092   5.562   3.518  10.857 -0.1173 -1.0318  0.7889
 6201TIP3   OH240093   6.138   5.339  12.091  0.0851 -0.1252  0.4096
 6201TIP3    H140094   6.143   5.335  12.186 -1.6006  1.0062  0.5822
 6201TIP3    H240095   6.213   5.287  12.061  0.3771 -0.8937  2.3322
 6202TIP3   OH240096   5.567   0.655  11.481 -0.5723  0.9238 -0.1086
 6202TIP3    H140097   5.503   0.608  11.535  0.4967  1.1321  1.3950
 6202TIP3    H240098   5.515   0.718  11.431 -1.5060  1.4375  1.4589
 6203TIP3   OH240099   1.526   1.894   0.697 -0.3167  0.5429  0.2568
 6203TIP3    H140100   1.530   1.815   0.644 -0.5185  0.2656  0.6563
 6203TIP3    H240101   1.551   1.866   0.785  1.6293  1.2957  0.0024
 6204TIP3   OH240102   5.874   1.721   1.655  0.2494  0.4135 -0.1806
 6204TIP3    H140103   5.894   1.770   1.735  0.7348  0.3550 -0.2626
 6204TIP3    H240104   5.790   1.756   1.626  0.3886  0.9054 -0.0075
 6205TIP3   OH240105   2.297   2.467  10.636  0.1916 -0.5010  0.1160
 6205TIP3    H140106   2.282   2.374  10.622 -2.1474 -0.4957  2.0297
 6205TIP3    H240107   2.225   2.510  10.590 -0.0793  0.2097  1.1821
 6206TIP3   OH240108   2.951   6.506  16.251 -0.3197 -0.4958  0.4730
 6206TIP3    H140109   2.961   6.513  16.156 -2.4834 -0.7966  0.1755
 6206TIP3    H240110   3.036   6.475  16.282  0.4899 -0.1910 -1.3382
 6207TIP3   OH240111   4.860   0.801   5.513 -0.2081 -0.4694  0.4133
 6207TIP3    H140112   4.937   0.770   5.466 -0.1956  1.4011 -0.9322
 6207TIP3    H240113   4.811   0.852   5.448 -1.6003 -0.0388  1.7308
 6208TIP3   OH240114   3.355   0.809  10.324  0.5407 -0.4740 -0.2920
 6208TIP3    H140115   3.349   0.840  10.233  2.1843 -1.6105 -0.8279
 6208TIP3    H240116   3.264   0.803  10.353 -0.0069  0.1771 -1.7647
 6209TIP3   OH240117   5.304   6.056  15.270 -0.3447 -0.7174  0.1846
 6209TIP3    H140118   5.214   6.062  15.300  0.2075  0.2309  1.7565
 6209TIP3    H240119   5.312   6.123  15.203 -0.7606 -0.6989  0.1506
 6210TIP3   OH240120   0.901   5.899   2.408  0.2733 -0.1993  0.1429
 6210TIP3    H140121   0.951   5.976   2.432  1.2554 -0.4233 -1.0459
 6210TIP3    H240122   0.960   5.825   2.425  0.1995 -0.5059 -0.8451
 6211TIP3   OH240123   4.304   3.726  15.621  0.3977  0.5962 -0.3004
 6211TIP3    H140124   4.389   3.743  15.581  0.8305 -1.8310 -0.5869
 6211TIP3    H240125   4.292   3.797  15.685  3.4152  0.1259  0.9509
 6212TIP3   OH240126   4.360   4.403   2.239 -0.2288 -0.1082 -0.0155
 6212TIP3    H140127   4.379   4.461   2.166  0.5637 -0.4519 -0.0867
 6212TIP3    H240128   4.266   4.415   2.255 -0.4594 -0.1826 -1.2158
 6213TIP3   OH240129   1.259   0.397   0.860  0.6645 -0.2102  0.4987
 6213TIP3    H140130   1.306   0.324   0.900  0.1138 -0.9602 -0.2015
 6213TIP3    H240131   1.168   0.384   0.886  0.6778  0.6670  1.0116
 6214TIP3   OH240132   2.402   6.310   1.924  0.4129 -0.1949  0.3481
 6214TIP3    H140133   2.382   6.353   2.007 -0.8400  0.9336 -0.4850
 6214TIP3    H240134   2.439   6.226   1.948  0.9286  0.4874  2.0412
 6215TIP3   OH240135   3.012   5.146  16.283  0.1637 -0.5326  0.0841
 6215TIP3    H140136   3.086   5.086  16.287  1.0980  0.6551  1.2300
 6215TIP3    H240137   3.020   5.200  16.361 -2.0546 -0.5058  0.3697
 6216TIP3   OH240138   4.195   2.162   0.279  0.0116 -0.2809 -0.3045
 6216TIP3    H140139   4.246   2.130   0.204 -0.8496 -0.3686 -0.8703
 6216TIP3    H240140   4.113   2.114   0.273 -0.2102 -0.0071  0.4901
 6217TIP3   OH240141   2.088   4.402   2.713  0.2904 -0.0080  0.4813
 6217TIP3    H140142   2.064   4.371   2.801 -0.7210  2.5954  1.2066
 6217TIP3    H240143   2.047   4.488   2.706  1.5276  0.4561 -2.0448
 6218TIP3   OH240144   4.704   2.546  11.499 -0.2215  0.3465 -0.6542
 6218TIP3    H140145   4.630   2.486  11.487  1.3869 -2.2946  1.4556
 6218TIP3    H240146   4.681   2.623  11.446 -3.6813 -0.9747 -1.3690
 6219TIP3   OH240147   6.759   3.786  12.592 -0.1385  0.5694 -0.1690
 6219TIP3    H140148   6.827   3.725  12.564 -0.8212 -0.4457  0.3011
 6219TIP3    H240149   6.690   3.778  12.526 -0.6153  0.1288  0.3581
 6220TIP3   OH240150   2.933   5.293   1.503  0.9617 -0.0087 -0.3055
 6220TIP3    H140151   2.872   5.318   1.572 -0.4965 -0.8369 -1.2397
 6220TIP3    H240152   2.975   5.213   1.535  0.8899  0.0569 -0.0491
 6221TIP3   OH240153   6.615   3.956  16.729 -0.2228 -0.1799  0.7997
 6221TIP3    H140154   6.657   4.039  16.703  0.2505 -0.6905 -0.1133
 6221TIP3    H240155   6.583   3.973  16.817 -0.4116  1.0869  0.5173
 6222TIP3   OH240156   1.343   1.815  17.191 -0.1895  0.5405  0.0382
 6222TIP3    H140157   1.393   1.887  17.230 -0.2017  0.6780 -0.2032
 6222TIP3    H240158   1.258   1.853  17.171 -0.6239  0.1369  1.0556
 6223TIP3   OH240159   1.070   1.054  14.395 -0.2728 -0.0333 -0.1215
 6223TIP3    H140160   1.108   0.996  14.329 -0.7736 -2.8660  1.9050
 6223TIP3    H240161   1.139   1.062  14.462 -1.0286 -0.1879  0.6894
 6224TIP3   OH240162   1.825   0.516  16.708 -0.1422  0.0077 -0.1310
 6224TIP3    H140163   1.865   0.581  16.765  1.0201  0.9832 -1.9558
 6224TIP3    H240164   1.844   0.432  16.750 -0.1143  0.7268  1.3383
 6225TIP3   OH240165   1.617   6.333   0.750 -0.1779  0.0709  0.0615
 6225TIP3    H140166   1.567   6.251   0.754 -1.1840  0.7374  1.6904
 6225TIP3    H240167   1.625   6.361   0.841  3.4752 -0.1409 -0.0625
 6226TIP3   OH240168   5.508   0.900  14.233 -0.1928  0.0808  0.0479
 6226TIP3    H140169   5.475   0.987  14.256 -0.2696  0.6127 -1.8706
 6226TIP3    H240170   5.440   0.840  14.263 -1.2808  0.8924 -0.7277
 6227TIP3   OH240171   2.335   5.743   6.410  0.1313 -0.4307  0.4178
 6227TIP3    H140172   2.415   5.716   6.457  0.6373  0.8372  0.3148
 6227TIP3    H240173   2.363   5.752   6.319 -0.3062 -0.6465  0.2589
 6228TIP3   OH240174   6.121   1.408  13.890  0.1464  0.3772 -0.3388
 6228TIP3    H140175   6.147   1.402  13.798 -0.2163 -0.4473 -0.3935
 6228TIP3    H240176   6.075   1.492  13.896 -2.4709 -0.8455 -1.6003
 6229TIP3   OH240177   5.901   1.593   5.803  0.3689  0.6151  0.3805
 6229TIP3    H140178   5.947   1.537   5.865 -0.7398  1.0180  1.6115
 6229TIP3    H240179   5.826   1.541   5.774  0.1723  0.9026  0.3641
 6230TIP3   OH240180   0.489   3.475   0.236  0.1799  0.0843 -0.2376
 6230TIP3    H140181   0.461   3.464   0.145  0.0424  2.0801 -0.5009
 6230TIP3    H240182   0.581   3.449   0.236 -0.8633 -4.2115  0.1021
 6231TIP3   OH240183   4.916   6.466  11.411  0.5947 -0.1168  0.1524
 6231TIP3    H140184   4.930   6.546  11.462  0.7060 -0.6816  1.0203
 6231TIP3    H240185   4.910   6.396  11.476 -4.0726 -0.3276 -0.1599
 6232TIP3   OH240186   0.063   2.836  13.753 -0.0775 -0.0728 -0.2475
 6232TIP3    H140187   0.125   2.887  13.702  0.9973  0.1739  1.2458
 6232TIP3    H240188   0.011   2.900  13.801  1.3372 -0.2783  1.7051
 6233TIP3   OH240189   5.491   1.364  12.715  0.0385  0.4903  0.1975
 6233TIP3    H140190   5.435   1.288  12.696  2.1806 -1.3577  0.8258
 6233TIP3    H240191   5.514   1.398  12.628  0.1840 -0.4756 -0.1603
 6234TIP3   OH240192   0.800   3.443  15.648  0.1838 -0.5253 -1.2918
 6234TIP3    H140193   0.793   3.460  15.742  0.8538 -0.1792 -1.2997
 6234TIP3    H240194   0.894   3.431  15.632  0.0468 -0.9059 -1.8634
 6235TIP3   OH240195   3.493   1.081  10.441  0.0372 -0.2801 -0.2458
 6235TIP3    H140196   3.467   1.132  10.364 -1.6907 -2.0094 -0.8885
 6235TIP3    H240197   3.569   1.127  10.476  0.6107  0.7997 -2.7238
 6236TIP3   OH240198   0.732   0.134  14.146  0.3190 -0.4283  0.5547
 6236TIP3    H140199   0.663   0.200  14.146 -0.1600 -0.9205  1.4667
 6236TIP3    H240200   0.812   0.183  14.165  0.4025  0.2938 -1.4140
 6237TIP3   OH240201   0.392   4.783   2.657 -0.3683 -0.3486  0.1474
 6237TIP3    H140202   0.322   4.794   2.592 -0.6109 -0.3784  0.4056
 6237TIP3    H240203   0.473   4.802   2.608 -0.7077  2.2255  0.4244
 6238TIP3   OH240204   6.740   2.519  17.090  0.2043  0.3296 -0.2022
 6238TIP3    H140205   6.742   2.610  17.120 -0.0492 -0.0292  0.9600
 6238TIP3    H240206   6.670   2.478  17.140  0.0132 -0.4072 -1.0404
 6239TIP3   OH240207   6.576   0.145   0.741 -0.2222 -0.4791 -0.1081
 6239TIP3    H140208   6.537   0.146   0.829  0.4808  0.0443  0.2012
 6239TIP3    H240209   6.537   0.220   0.697  2.2805  1.6544  1.0458
 6240TIP3   OH240210   3.444   0.291   1.954  0.1238 -0.0547 -0.1393
 6240TIP3    H140211   3.527   0.274   1.997 -0.4705 -1.6566  0.4674
 6240TIP3    H240212   3.400   0.354   2.011  1.0750  1.1412 -0.6965
 6241TIP3   OH240213   6.093   1.490  12.134  0.7208  0.1617  0.1030
 6241TIP3    H140214   6.017   1.434  12.148  1.1238 -0.1943  0.9512
 6241TIP3    H240215   6.136   1.453  12.057  0.5482 -0.2189  0.1857
 6242TIP3   OH240216   2.355   6.177   2.281  0.3864 -0.5487  0.4837
 6242TIP3    H140217   2.441   6.213   2.303  0.4116 -1.0981  1.3099
 6242TIP3    H240218   2.314   6.160   2.366 -1.0069  0.7773  0.1242
 6243TIP3   OH240219   2.500   2.563  11.260  0.1936 -0.1209 -0.0811
 6243TIP3    H140220   2.595   2.572  11.265  0.0817  1.0848  0.0727
 6243TIP3    H240221   2.465   2.638  11.309 -0.8293  0.0305 -0.9917
 6244TIP3   OH240222   4.256   0.738  16.201  0.0340  0.0066 -0.9262
 6244TIP3    H140223   4.197   0.766  16.271  0.6004 -1.0196 -0.0126
 6244TIP3    H240224   4.199   0.700  16.135 -0.5950  1.7835 -1.4575
 6245TIP3   OH240225   4.430   3.648   3.960  0.0733  0.1476  0.7659
 6245TIP3    H140226   4.491   3.669   4.031 -1.1298 -0.5119  2.0367
 6245TIP3    H240227   4.423   3.553   3.961 -0.9214  0.2071  0.5911
 6246TIP3   OH240228   3.331   0.433   0.984  0.0850 -0.0747 -0.2254
 6246TIP3    H140229   3.361   0.349   0.947  0.8949  0.7620 -1.5374
 6246TIP3    H240230   3.391   0.450   1.056  0.0931 -0.4706 -0.1338
 6247TIP3   OH240231   0.474   4.617  12.094  0.1609 -0.1558  0.3886
 6247TIP3    H140232   0.400   4.578  12.048 -0.3196  2.3576 -1.1957
 6247TIP3    H240233   0.440   4.699  12.129  1.2296 -0.7593  3.1148
 6248TIP3   OH240234   5.097   2.584  14.138  0.6392 -0.0807  0.5245
 6248TIP3    H140235   5.188   2.557  14.140  0.7330 -0.1180 -1.6632
 6248TIP3    H240236   5.084   2.618  14.049 -1.6025 -0.5928  0.5894
 6249TIP3   OH240237   6.292   0.647   5.315  0.3346 -0.0018  0.1272
 6249TIP3    H140238   6.209   0.601   5.305  0.5524 -1.2171  3.0479
 6249TIP3    H240239   6.268   0.736   5.337 -0.1670 -0.0500 -0.2124
 6250TIP3   OH240240   3.718   5.102   4.688  0.2913 -0.3799 -0.1447
 6250TIP3    H140241   3.811   5.098   4.712  0.4175  0.1461 -0.5338
 6250TIP3    H240242   3.676   5.039   4.747  0.4954  1.3186  1.9510
 6251TIP3   OH240243   0.410   0.508  11.496 -0.0443 -0.3752 -0.2449
 6251TIP3    H140244   0.419   0.592  11.452  0.4295 -0.0998  0.3584
 6251TIP3    H240245   0.495   0.466  11.487 -0.4193 -1.0032 -0.9521
 6252TIP3   OH240246   3.507   4.021  15.502  0.0366 -0.1272 -0.2813
 6252TIP3    H140247   3.442   4.015  15.432 -0.0103  1.1928 -0.3841
 6252TIP3    H240248   3.556   4.101  15.482  1.0963 -0.6173  0.2965
 6253TIP3   OH240249   2.030   6.445   6.416 -0.5679 -0.0182 -0.4614
 6253TIP3    H140250   2.045   6.351   6.412  0.5842  0.1837 -1.5344
 6253TIP3    H240251   1.962   6.461   6.351 -0.4821 -0.0726 -0.5666
 6254TIP3   OH240252   5.728   3.735   4.164 -0.6128  0.0282  0.2450
 6254TIP3    H140253   5.793   3.707   4.100 -0.5854  0.7043 -0.0286
 6254TIP3    H240254   5.769   3.807   4.210 -1.2152  0.5662 -0.0360
 6255TIP3   OH240255   1.820   3.623  12.067  0.1152 -0.1550  0.0453
 6255TIP3    H140256   1.893   3.683  12.054 -0.1420 -0.1340 -1.5530
 6255TIP3    H240257   1.831   3.556  11.998 -1.1167 -0.3875  0.0424
 6256TIP3   OH240258   6.624   2.218   1.182  0.0418 -0.5129  0.2923
 6256TIP3    H140259   6.669   2.303   1.187 -2.3280  0.8063  1.6227
 6256TIP3    H240260   6.589   2.215   1.093  1.8859 -1.1351 -0.4551
 6257TIP3   OH240261   1.280   0.778   4.703 -0.4261  0.1055  0.2863
 6257TIP3    H140262   1.269   0.740   4.616  0.2207 -1.4325  0.8504
 6257TIP3    H240263   1.329   0.712   4.752 -0.4520  1.1106  1.7126
 6258TIP3   OH240264   0.371   2.190  14.341 -0.2756  0.1972 -1.0433
 6258TIP3    H140265   0.391   2.143  14.260  1.1533  1.4771 -1.4970
 6258TIP3    H240266   0.344   2.123  14.403 -1.4428 -0.8057 -2.5858
 6259TIP3   OH240267   3.742   3.204   4.045 -0.3604 -0.7907  0.3018
 6259TIP3    H140268   3.825   3.211   3.999 -1.0946 -3.2019 -1.6426
 6259TIP3    H240269   3.766   3.192   4.137  1.3444  0.1959  0.0099
 6260TIP3   OH240270   0.748   0.961   4.112 -0.5379  0.1659 -0.3477
 6260TIP3    H140271   0.653   0.973   4.121 -0.4969  0.4890 -0.3536
 6260TIP3    H240272   0.757   0.903   4.036 -0.7035  0.5723 -0.6774
 6261TIP3   OH240273   5.769   2.854   1.229  0.1261  0.2509  0.1580
 6261TIP3    H140274   5.829   2.859   1.154 -1.8764  1.3397 -1.4807
 6261TIP3    H240275   5.818   2.805   1.295  2.2473 -0.1849 -1.5943
 6262TIP3   OH240276   0.921   6.080  14.327 -0.0380  0.5712  0.0180
 6262TIP3    H140277   0.892   6.032  14.249 -2.3891 -1.0257  1.7258
 6262TIP3    H240278   1.016   6.078  14.323 -0.0884 -0.0835 -2.4207
 6263TIP3   OH240279   3.492   3.377  11.077  0.1687 -0.4971  0.5451
 6263TIP3    H140280   3.571   3.429  11.065  1.4894 -2.8576 -2.1292
 6263TIP3    H240281   3.423   3.428  11.036  0.8712  0.3459  0.3840
 6264TIP3   OH240282   2.466   5.092  14.483 -0.1968 -0.5225 -0.0734
 6264TIP3    H140283   2.437   5.078  14.573 -1.0161  1.3144  0.0095
 6264TIP3    H240284   2.480   5.187  14.477  0.6411 -0.7051 -1.6563
 6265TIP3   OH240285   0.304   0.773   6.530 -0.5592  0.0094 -0.2366
 6265TIP3    H140286   0.374   0.820   6.576 -2.0503  2.0491  0.0771
 6265TIP3    H240287   0.281   0.701   6.589 -0.5955  0.9809  0.9965
 6266TIP3   OH240288   2.182   5.302   0.084 -0.1780 -0.1163  0.5985
 6266TIP3    H140289   2.201   5.360   0.158 -0.4214  0.1016  0.4901
 6266TIP3    H240290   2.101   5.335   0.047 -1.6330 -1.9601  1.9608
 6267TIP3   OH240291   5.104   5.891   3.885  0.4355  0.1943 -0.0360
 6267TIP3    H140292   5.074   5.904   3.975  0.3674 -1.6277  0.2464
 6267TIP3    H240293   5.052   5.953   3.834 -0.4789  0.3458  1.0168
 6268TIP3   OH240294   5.138   2.180  16.025 -0.0186  0.4107 -0.2733
 6268TIP3    H140295   5.136   2.101  15.971  1.8324 -0.7818  1.2956
 6268TIP3    H240296   5.109   2.151  16.112 -1.9424  2.0720 -0.2708
 6269TIP3   OH240297   3.790   0.901  13.990 -0.0357  0.1247  0.5161
 6269TIP3    H140298   3.722   0.906  13.923  0.0464 -2.5296  0.1307
 6269TIP3    H240299   3.764   0.965  14.056 -2.7851 -0.5995  0.2486
 6270TIP3   OH240300   5.485   5.855  15.204 -0.4980  0.1880 -0.1719
 6270TIP3    H140301   5.419   5.920  15.227 -0.5149  0.1588 -0.1385
 6270TIP3    H240302   5.462   5.778  15.256 -0.5093  0.1372 -0.2522
 6271TIP3   OH240303   5.189   0.700  15.193  0.0061 -0.3777 -0.0548
 6271TIP3    H140304   5.126   0.752  15.143  1.0913 -0.7396 -1.8815
 6271TIP3    H240305   5.268   0.754  15.197  0.4488 -1.0087 -0.1201
 6272TIP3   OH240306   1.404   2.380  14.127 -0.4111  0.2642  0.2279
 6272TIP3    H140307   1.418   2.286  14.117  0.2473  0.0769  2.3814
 6272TIP3    H240308   1.483   2.421  14.091 -0.7292  0.0214 -0.7730
 6273TIP3   OH240309   3.345   0.118   5.108  0.0017  0.0470  0.1321
 6273TIP3    H140310   3.377   0.127   5.018 -2.9852  1.1088 -0.9677
 6273TIP3    H240311   3.274   0.181   5.114  0.5493  0.4856  3.5320
 6274TIP3   OH240312   4.695   6.022  17.034  0.1147 -0.2155  0.1229
 6274TIP3    H140313   4.680   6.055  16.946 -1.5340  2.1147  1.1647
 6274TIP3    H240314   4.778   6.062  17.061  1.4330 -2.1322 -0.7914
 6275TIP3   OH240315   2.622   1.734   0.012  0.1846 -0.1723 -0.2537
 6275TIP3    H140316   2.666   1.817   0.026 -0.2253 -0.2656  1.8258
 6275TIP3    H240317   2.623   1.690   0.097 -1.3178 -1.4519 -0.8278
 6276TIP3   OH240318   6.199   5.268  11.755 -0.2981 -0.1760  0.2423
 6276TIP3    H140319   6.126   5.296  11.700 -0.7855 -1.7960  0.0095
 6276TIP3    H240320   6.164   5.193  11.803  1.1645 -0.8908  0.2257
 6277TIP3   OH240321   1.148   0.221   5.626  0.3788 -0.3472 -0.7036
 6277TIP3    H140322   1.097   0.229   5.545 -0.1094  0.8862 -0.2933
 6277TIP3    H240323   1.176   0.310   5.646 -0.8619 -0.3448  1.3339
 6278TIP3   OH240324   6.791   2.442  13.210 -0.1982  0.6633 -0.3237
 6278TIP3    H140325   6.828   2.456  13.123  1.0902  1.0655  0.2718
 6278TIP3    H240326   6.785   2.530  13.248  0.9552  0.3501  0.6557
 6279TIP3   OH240327   2.963   6.708  15.786  0.9911  0.1748  0.0641
 6279TIP3    H140328   3.017   6.771  15.833  0.7961 -0.3244  0.9729
 6279TIP3    H240329   2.985   6.722  15.693  3.2187 -0.5147  0.4486
 6280TIP3   OH240330   4.945   4.427  13.275  0.3108 -0.0310  0.9092
 6280TIP3    H140331   5.018   4.371  13.248  0.1430  0.9292 -1.7412
 6280TIP3    H240332   4.987   4.505  13.311  0.6398  0.6139 -0.8068
 6281TIP3   OH240333   3.334   6.418   2.909 -0.0106  0.3153 -0.2863
 6281TIP3    H140334   3.323   6.499   2.958  0.3878  0.9572 -1.2216
 6281TIP3    H240335   3.429   6.411   2.896 -0.0758 -0.1020 -0.5317
 6282TIP3   OH240336   3.918   4.891   2.295 -0.3573 -0.0363  0.5122
 6282TIP3    H140337   3.969   4.811   2.306  0.4776  0.2056 -1.2163
 6282TIP3    H240338   3.856   4.871   2.224 -2.0562 -0.0078  1.9201
 6283TIP3   OH240339   1.009   0.175  11.584 -0.2076 -0.3374  0.2716
 6283TIP3    H140340   1.050   0.141  11.505  1.8056  2.1337  0.1229
 6283TIP3    H240341   1.082   0.188  11.645 -0.8950  2.5767  0.6355
 6284TIP3   OH240342   6.807   2.386   5.870  0.3299  0.0669 -0.2271
 6284TIP3    H140343   6.797   2.360   5.961  1.2145 -0.8159 -0.3773
 6284TIP3    H240344   6.718   2.381   5.834  0.4418 -2.8525 -0.2729
 6285TIP3   OH240345   6.581   1.844  16.630  0.3638 -0.4440  0.2258
 6285TIP3    H140346   6.601   1.903  16.703  0.4947  0.9268 -0.8933
 6285TIP3    H240347   6.666   1.825  16.590  0.1724 -0.2360 -0.2840
 6286TIP3   OH240348   0.103   1.604  11.509  0.0251  1.2362 -0.1826
 6286TIP3    H140349   0.054   1.620  11.429 -0.3026 -0.5304 -0.3706
 6286TIP3    H240350   0.170   1.540  11.484  0.3110  1.1254  0.8051
 6287TIP3   OH240351   6.491   5.207   0.516 -0.1444 -0.5599 -0.5173
 6287TIP3    H140352   6.435   5.139   0.481  0.1347 -0.3087 -1.4810
 6287TIP3    H240353   6.471   5.209   0.610 -1.8072 -0.3999 -0.8489
 6288TIP3   OH240354   3.150   2.817   3.749 -0.5752 -0.2961 -0.0138
 6288TIP3    H140355   3.071   2.860   3.716 -1.2758 -0.7272  1.0364
 6288TIP3    H240356   3.220   2.881   3.735 -1.1849  0.2700 -0.5512
 6289TIP3   OH240357   6.089   2.255  11.768 -0.0511 -0.2574  0.3453
 6289TIP3    H140358   6.013   2.255  11.710  1.1081  1.7297 -1.3006
 6289TIP3    H240359   6.052   2.248  11.856 -2.3386  2.6936 -0.2433
 6290TIP3   OH240360   0.611   3.670  15.499  0.6022 -0.2913  0.6062
 6290TIP3    H140361   0.582   3.751  15.457  0.0171  0.0231  1.5755
 6290TIP3    H240362   0.530   3.627  15.526  0.7882 -2.2091 -1.6285
 6291TIP3   OH240363   6.723   3.460  12.508  0.2844 -0.1687  0.5262
 6291TIP3    H140364   6.786   3.396  12.542  0.9039  0.1719  0.0456
 6291TIP3    H240365   6.644   3.445  12.559  0.6904 -0.7431  1.0063
 6292TIP3   OH240366   4.802   0.050   3.739  0.0628  0.3803 -0.0313
 6292TIP3    H140367   4.728   0.081   3.686  0.4881  1.9339  0.2182
 6292TIP3    H240368   4.866   0.019   3.675 -0.4289 -0.0907 -0.2962
 6293TIP3   OH240369   1.371   6.829   5.831 -0.1036 -0.0253  0.0276
 6293TIP3    H140370   1.280   6.830   5.863  0.2492 -0.3681  1.1022
 6293TIP3    H240371   1.374   6.758   5.767 -0.1073 -1.4843  1.5763
 6294TIP3   OH240372   0.891   4.216   5.674 -0.2508 -0.1342 -0.0951
 6294TIP3    H140373   0.897   4.130   5.716 -3.7931 -0.2066  0.5843
 6294TIP3    H240374   0.905   4.198   5.581 -2.3363 -1.7844 -0.1574
 6295TIP3   OH240375   2.842   4.567  16.801  0.1213  0.0246 -0.2902
 6295TIP3    H140376   2.877   4.638  16.748 -1.2201 -0.1234 -1.4326
 6295TIP3    H240377   2.749   4.588  16.811 -0.1372 -1.1756 -0.0014
 6296TIP3   OH240378   5.604   3.327  12.419 -0.4807  0.4889 -0.1397
 6296TIP3    H140379   5.543   3.367  12.480 -0.4513  2.1998 -1.1779
 6296TIP3    H240380   5.681   3.384  12.422 -0.6253  0.8418 -2.0169
 6297TIP3   OH240381   1.544   6.667  16.187 -0.2315  0.3244 -0.1672
 6297TIP3    H140382   1.482   6.677  16.115  3.8706  0.1660 -4.1323
 6297TIP3    H240383   1.597   6.591  16.164  2.2250  1.0934  2.3027
 6298TIP3   OH240384   3.515   4.750   5.604 -0.0890  0.4586  0.4521
 6298TIP3    H140385   3.508   4.687   5.531  1.1066  2.8879 -1.9331
 6298TIP3    H240386   3.592   4.722   5.652 -1.2972 -1.6063  1.3235
 6299TIP3   OH240387   0.992   0.498   3.550  0.0634  0.7618 -0.1472
 6299TIP3    H140388   1.077   0.468   3.582  0.9166  0.7134 -2.3019
 6299TIP3    H240389   1.005   0.511   3.456 -2.6551 -0.4840 -0.7996
 6300TIP3   OH240390   4.826   0.929   2.315 -0.1887  0.5907  0.0255
 6300TIP3    H140391   4.893   0.869   2.350  1.5983  1.7146 -1.2771
 6300TIP3    H240392   4.874   1.011   2.300 -2.5364  2.4174  1.7556
 6301TIP3   OH240393   3.607   2.103   0.928  0.5569  0.3143  0.2116
 6301TIP3    H140394   3.630   2.013   0.952  1.6067  0.8509  1.3410
 6301TIP3    H240395   3.599   2.102   0.833  1.4198 -0.7832  0.1380
 6302TIP3   OH240396   0.075   1.814   0.979  0.0920 -0.6152  0.5699
 6302TIP3    H140397   0.037   1.863   0.906 -1.1897  2.3620  3.0192
 6302TIP3    H240398   0.001   1.792   1.035  1.1915 -1.2299  1.8566
 6303TIP3   OH240399   1.570   5.817   2.507  0.5584  0.1825  0.9776
 6303TIP3    H140400   1.533   5.816   2.595 -1.0576  2.7844  0.4251
 6303TIP3    H240401   1.569   5.725   2.480  0.5342 -0.6123  3.4061
 6304TIP3   OH240402   5.832   4.170  13.291 -0.3992  0.1578 -0.0297
 6304TIP3    H140403   5.736   4.167  13.286 -0.3994 -0.8515  0.3034
 6304TIP3    H240404   5.855   4.100  13.353  0.5479  0.4488 -0.0399
 6305TIP3   OH240405   3.261   2.458  16.098 -0.4420  0.7606  0.2968
 6305TIP3    H140406   3.259   2.372  16.140  0.0894  1.0811  1.0023
 6305TIP3    H240407   3.221   2.444  16.012 -0.7055 -0.1065  0.5504
 6306TIP3   OH240408   6.385   0.350  16.030 -0.4554 -0.2365 -0.3394
 6306TIP3    H140409   6.342   0.302  16.101  0.8176 -1.0574 -0.0762
 6306TIP3    H240410   6.476   0.320  16.034 -0.3345 -0.2369 -2.2631
 6307TIP3   OH240411   6.574   4.455  13.471 -0.1717 -0.6552 -0.2659
 6307TIP3    H140412   6.625   4.380  13.501 -0.4141 -0.9086 -0.4859
 6307TIP3    H240413   6.507   4.466  13.539  1.0968  0.6370  0.8249
 6308TIP3   OH240414   5.867   0.200  12.279  0.1721 -0.1886  0.1896
 6308TIP3    H140415   5.944   0.241  12.240  0.5370  1.0717  2.1160
 6308TIP3    H240416   5.895   0.111  12.300  0.8193 -0.0089  0.0948
 6309TIP3   OH240417   1.367   0.154  12.376  0.5606 -0.6164  0.7131
 6309TIP3    H140418   1.332   0.242  12.366  0.7021 -0.5649  0.6784
 6309TIP3    H240419   1.461   0.166  12.388  1.0087 -0.9050 -2.0345
 6310TIP3   OH240420   0.944   4.457  16.120  0.0476 -0.1996 -0.1312
 6310TIP3    H140421   0.906   4.545  16.130  0.0637 -0.1398 -0.5570
 6310TIP3    H240422   0.913   4.409  16.196  1.6808  0.7473  1.2146
 6311TIP3   OH240423   0.136   3.567   4.029  0.1488  0.1772  0.1118
 6311TIP3    H140424   0.105   3.625   3.960  0.1536 -0.1789 -0.1915
 6311TIP3    H240425   0.216   3.608   4.061  1.1854 -0.5989 -1.3703
 6312TIP3   OH240426   1.194   0.023  12.881 -0.0287  0.1056 -0.2531
 6312TIP3    H140427   1.120   0.075  12.913  0.1157 -0.1390  0.4807
 6312TIP3    H240428   1.220   0.067  12.800 -1.9503 -0.6629 -1.3545
 6313TIP3   OH240429   0.259   4.636   4.815  0.5161  0.2073  0.3077
 6313TIP3    H140430   0.270   4.694   4.740  1.3631 -0.4294 -0.0714
 6313TIP3    H240431   0.327   4.569   4.805 -0.5043 -0.9275  0.6699
 6314TIP3   OH240432   1.820   4.179  12.338 -0.2818 -0.3938  0.6865
 6314TIP3    H140433   1.882   4.129  12.390 -0.4467 -0.4134  0.8664
 6314TIP3    H240434   1.803   4.258  12.390  1.6602  0.9362 -0.5871
 6315TIP3   OH240435   1.996   3.303  12.052  0.0733 -0.1860  0.1862
 6315TIP3    H140436   1.957   3.350  11.979  1.9670  0.6696 -0.3197
 6315TIP3    H240437   1.959   3.215  12.046 -2.1482  0.6921  0.0761
 6316TIP3   OH240438   2.138   4.407   0.273 -0.0221  0.2139  0.4341
 6316TIP3    H140439   2.210   4.351   0.304 -0.5790 -0.5084  0.4448
 6316TIP3    H240440   2.177   4.456   0.201  1.1164  1.5002  1.8737
 6317TIP3   OH240441   2.362   4.579   1.801  0.1105  0.2642  0.5079
 6317TIP3    H140442   2.416   4.590   1.723 -0.9308 -0.1323 -0.2804
 6317TIP3    H240443   2.353   4.485   1.812  0.3905  0.3080  1.2288
 6318TIP3   OH240444   1.852   3.838  11.370 -0.2932  0.3399  0.8948
 6318TIP3    H140445   1.835   3.763  11.428  0.5640 -0.4906  0.1233
 6318TIP3    H240446   1.840   3.915  11.425 -1.9967 -0.3207  1.5054
 6319TIP3   OH240447   4.381   1.614  11.398  0.2970 -0.4430 -0.3127
 6319TIP3    H140448   4.432   1.607  11.317 -2.2985 -0.5820 -2.0344
 6319TIP3    H240449   4.332   1.532  11.403  1.1841 -0.9113  2.0362
 6320TIP3   OH240450   4.214   5.684  15.461 -0.2757 -0.3036 -0.4160
 6320TIP3    H140451   4.213   5.744  15.535 -0.6970 -0.1027 -0.5791
 6320TIP3    H240452   4.128   5.693  15.421 -0.2643 -0.8493 -0.5814
 6321TIP3   OH240453   2.187   1.674   5.907  0.5307  0.0953 -0.0512
 6321TIP3    H140454   2.173   1.612   5.979  0.5792  2.0019  1.7018
 6321TIP3    H240455   2.273   1.713   5.926  1.2494 -0.3835 -2.0175
 6322TIP3   OH240456   1.128   6.010   1.177 -0.1524  0.2172  0.1534
 6322TIP3    H140457   1.120   6.100   1.147  0.3789 -0.1451 -1.1541
 6322TIP3    H240458   1.223   5.993   1.178 -0.2868 -0.6641 -0.7048
 6323TIP3   OH240459   2.018   0.729   1.825 -0.3461  0.0394 -0.2162
 6323TIP3    H140460   1.988   0.668   1.757  0.0828  0.9564 -1.2567
 6323TIP3    H240461   2.090   0.776   1.785 -1.9949  2.7605 -0.2427
 6324TIP3   OH240462   1.955   2.562  14.645  0.4759  0.0719  0.3263
 6324TIP3    H140463   2.018   2.491  14.656 -0.4698 -0.4094  3.9138
 6324TIP3    H240464   1.974   2.623  14.716  1.6711  3.9633 -2.9646
 6325TIP3   OH240465   5.846   6.444   6.718 -0.3394 -0.2589 -0.2704
 6325TIP3    H140466   5.778   6.505   6.689 -0.0639 -0.8785 -2.3612
 6325TIP3    H240467   5.900   6.496   6.778 -3.1993 -0.0419  2.4327
 6326TIP3   OH240468   0.777   1.816  11.460  0.3208 -0.3777  0.6988
 6326TIP3    H140469   0.810   1.733  11.425  0.6505 -0.6756  1.6980
 6326TIP3    H240470   0.755   1.867  11.382  0.7775 -1.1313  0.0580
 6327TIP3   OH240471   1.657   2.808  13.513  0.8362  0.0486  0.0029
 6327TIP3    H140472   1.587   2.866  13.483  1.2006  0.8405  0.6354
 6327TIP3    H240473   1.735   2.837  13.465  0.9626 -0.0896  0.1217
 6328TIP3   OH240474   3.278   2.216  12.002  0.1140  0.0185 -0.1361
 6328TIP3    H140475   3.213   2.252  12.061 -2.0965 -1.0421 -1.7915
 6328TIP3    H240476   3.293   2.285  11.937  1.1449  0.4847  0.5695
 6329TIP3   OH240477   6.276   5.009   1.429  0.6229 -0.1959 -0.3792
 6329TIP3    H140478   6.338   5.031   1.500 -2.0493 -0.0754  2.1261
 6329TIP3    H240479   6.290   4.916   1.412  2.2834  0.0976 -0.7618
 6330TIP3   OH240480   1.427   1.421   3.148  0.2881  0.3644  0.2421
 6330TIP3    H140481   1.450   1.381   3.232 -1.4892  0.3208  0.7402
 6330TIP3    H240482   1.335   1.399   3.134 -0.0879  2.2554 -0.6320
 6331TIP3   OH240483   0.046   5.763   4.098  0.0303  0.1666  0.3851
 6331TIP3    H140484  -0.040   5.780   4.060  1.0769 -1.3703 -3.0431
 6331TIP3    H240485   0.041   5.801   4.185 -4.1027  0.1387  0.3757
 6332TIP3   OH240486   4.810   1.261  14.399 -0.0257  0.3429  0.1643
 6332TIP3    H140487   4.767   1.346  14.396  0.2229  0.4968  0.8816
 6332TIP3    H240488   4.842   1.253  14.488 -1.1659 -1.0736  0.4776
 6333TIP3   OH240489   3.884   4.364   1.058 -0.4324 -0.3080 -0.1334
 6333TIP3    H140490   3.839   4.445   1.032  0.2365  0.7820  1.8624
 6333TIP3    H240491   3.977   4.388   1.058 -0.2114 -1.1235  0.3243
 6334TIP3   OH240492   2.180   3.186  17.155 -0.1912 -0.6520  0.2327
 6334TIP3    H140493   2.085   3.174  17.155 -0.4484  0.6728  2.7949
 6334TIP3    H240494   2.214   3.109  17.202 -0.2737 -0.0110  1.4001
 6335TIP3   OH240495   1.507   3.598  14.039  0.4462  0.0761 -0.0639
 6335TIP3    H140496   1.421   3.556  14.036  0.5631 -0.1370 -0.7941
 6335TIP3    H240497   1.496   3.674  14.096 -0.1630 -0.0905  0.0418
 6336TIP3   OH240498   3.384   2.727  13.970 -0.2491 -0.2545 -0.1292
 6336TIP3    H140499   3.369   2.817  13.940  1.5332  0.7999  1.8156
 6336TIP3    H240500   3.426   2.684  13.895 -1.9552  0.2066 -1.4101
 6337TIP3   OH240501   2.868   0.241  16.805  0.4636  0.1297  0.0819
 6337TIP3    H140502   2.952   0.266  16.845  0.2289  0.0535  0.6362
 6337TIP3    H240503   2.890   0.167  16.749  0.9182  0.6722 -0.4747
 6338TIP3   OH240504   3.877   6.035   3.806 -0.2178 -0.2433 -0.0780
 6338TIP3    H140505   3.912   6.061   3.720 -1.2494 -2.8014 -1.3941
 6338TIP3    H240506   3.942   5.974   3.841 -0.4302 -0.2359  0.3318
 6339TIP3   OH240507   6.429   0.129   1.012  0.1614  0.1420 -0.0292
 6339TIP3    H140508   6.414   0.134   1.107 -0.2671  0.7358 -0.1269
 6339TIP3    H240509   6.380   0.051   0.985 -0.2585  0.3471  0.1323
 6340TIP3   OH240510   0.452   5.873   3.637 -0.4912 -0.2193 -0.6976
 6340TIP3    H140511   0.494   5.885   3.722  0.9538  0.6164 -1.4824
 6340TIP3    H240512   0.359   5.874   3.656 -0.2093 -1.7648  1.0735
 6341TIP3   OH240513   5.749   0.024  12.029 -0.0729 -0.0444  0.0619
 6341TIP3    H140514   5.749   0.100  12.087  0.2833  0.4881 -0.6187
 6341TIP3    H240515   5.691  -0.039  12.072 -0.8581  0.8437  0.3484
 6342TIP3   OH240516   2.408   1.252   3.657 -0.3506  0.7476 -0.5243
 6342TIP3    H140517   2.500   1.258   3.631  0.0429 -1.7811  0.0167
 6342TIP3    H240518   2.400   1.314   3.730  1.1216  0.5158 -0.1250
 6343TIP3   OH240519   6.139   2.429   5.536 -0.1338 -0.1444  0.2112
 6343TIP3    H140520   6.214   2.464   5.489 -0.4433 -0.5923 -0.6381
 6343TIP3    H240521   6.146   2.466   5.624  1.2668 -0.4457  0.2501
 6344TIP3   OH240522   0.532   5.894  13.756  0.0803  0.7409  0.0217
 6344TIP3    H140523   0.553   5.984  13.779  1.2118  0.1916  1.2513
 6344TIP3    H240524   0.595   5.841  13.805 -0.0121 -0.6899 -1.3319
 6345TIP3   OH240525   2.249   2.007   1.840  0.0792 -0.2803  0.2520
 6345TIP3    H140526   2.256   2.006   1.936  1.8274  0.8242  0.1897
 6345TIP3    H240527   2.327   2.054   1.811 -0.1127 -1.0919 -1.7607
 6346TIP3   OH240528   5.237   5.893   5.242  0.6823 -0.0170  0.0387
 6346TIP3    H140529   5.291   5.968   5.264 -0.3835  0.8490 -0.2055
 6346TIP3    H240530   5.298   5.819   5.239  2.0977  1.1272 -1.5796
 6347TIP3   OH240531   5.820   1.961  16.488 -0.2856 -0.0680  0.3235
 6347TIP3    H140532   5.893   1.899  16.485 -0.5653 -0.3731 -1.3039
 6347TIP3    H240533   5.785   1.960  16.399 -1.6426  0.8339  0.8223
 6348TIP3   OH240534   2.315   6.583  13.999  0.0632  0.0414 -0.5760
 6348TIP3    H140535   2.295   6.545  13.914 -1.3468  1.0594 -0.7367
 6348TIP3    H240536   2.304   6.510  14.061 -2.5938  0.0911 -0.8758
 6349TIP3   OH240537   0.717   4.001   5.864 -0.1628  0.3324  0.6242
 6349TIP3    H140538   0.703   4.033   5.953 -0.8633 -0.5805  0.8543
 6349TIP3    H240539   0.653   4.048   5.811 -0.1114  0.4848  0.6983
 6350TIP3   OH240540   5.432   5.292   6.332  0.1022 -0.3965 -0.1447
 6350TIP3    H140541   5.520   5.321   6.310  0.5690 -1.5391  0.1360
 6350TIP3    H240542   5.414   5.332   6.418 -1.0148  2.5764 -1.6273
 6351TIP3   OH240543   6.781   1.271  13.190 -0.2182  0.6565  0.0379
 6351TIP3    H140544   6.833   1.200  13.228  0.2108  0.8086 -0.2619
 6351TIP3    H240545   6.819   1.285  13.103 -1.6389 -0.1845 -0.7667
 6352TIP3   OH240546   3.556   3.375   4.324  0.4501  0.2591 -0.6854
 6352TIP3    H140547   3.461   3.373   4.316  0.3374  1.3880  0.1266
 6352TIP3    H240548   3.575   3.333   4.407  0.8145 -1.5220 -1.6199
 6353TIP3   OH240549   5.508   2.019   0.411 -0.1767 -0.3458 -0.1302
 6353TIP3    H140550   5.588   1.998   0.362 -1.0302 -0.3899 -1.5779
 6353TIP3    H240551   5.514   2.113   0.427  1.3431 -0.7405  2.0647
 6354TIP3   OH240552   1.194   4.644   5.823 -0.0185  0.2410  0.6339
 6354TIP3    H140553   1.163   4.688   5.902 -1.0966  2.3051 -0.8545
 6354TIP3    H240554   1.162   4.554   5.831 -2.4632  1.0963  1.3359
 6355TIP3   OH240555   3.430   5.434   5.975  0.0814  0.2600 -0.0505
 6355TIP3    H140556   3.429   5.403   6.065 -0.7280 -0.0843 -0.1679
 6355TIP3    H240557   3.508   5.394   5.936  0.5328  0.5523  0.5355
 6356TIP3   OH240558   1.511   3.059  12.367 -0.1499  0.5301 -0.6311
 6356TIP3    H140559   1.427   3.082  12.406  0.0247  1.3146 -0.7076
 6356TIP3    H240560   1.530   3.130  12.306  0.4444  0.2312 -0.8047
 6357TIP3   OH240561   6.194   5.178  15.595  0.0517  0.2091  0.2162
 6357TIP3    H140562   6.110   5.150  15.630  0.0071 -0.1880 -0.1966
 6357TIP3    H240563   6.256   5.165  15.667 -0.0406 -0.5653  0.1615
 6358TIP3   OH240564   4.174   0.868  14.751  0.2023  0.0217  0.1674
 6358TIP3    H140565   4.234   0.936  14.781  0.7697  0.4260 -1.7240
 6358TIP3    H240566   4.179   0.873  14.656 -4.4187  1.4706 -0.2299
 6359TIP3   OH240567   5.973   6.839  12.672 -0.1162 -0.1243 -0.2388
 6359TIP3    H140568   5.985   6.758  12.622  0.0767 -0.5378  0.4692
 6359TIP3    H240569   6.043   6.897  12.641  0.4763 -0.6496  0.0951
 6360TIP3   OH240570   3.238   0.157  16.563 -0.1458  0.0291  0.4555
 6360TIP3    H140571   3.166   0.104  16.598 -0.0815  0.2368  0.9116
 6360TIP3    H240572   3.194   0.237  16.531 -0.2620 -0.3606 -0.3795
 6361TIP3   OH240573   2.008   5.135   6.035  0.0416  0.7121  0.3960
 6361TIP3    H140574   2.027   5.108   6.125 -0.1388 -1.2841 -0.1100
 6361TIP3    H240575   1.955   5.063   5.999  2.0423  0.3141 -2.0299
 6362TIP3   OH240576   1.132   5.755   5.675 -0.4734 -0.2603 -0.0420
 6362TIP3    H140577   1.079   5.738   5.753 -0.8597 -0.8341 -0.4189
 6362TIP3    H240578   1.169   5.670   5.652 -0.1253 -0.0372 -0.3171
 6363TIP3   OH240579   4.223   0.851   5.663 -0.3113 -0.6770 -0.1750
 6363TIP3    H140580   4.268   0.767   5.667  1.1023  0.0438  0.0395
 6363TIP3    H240581   4.293   0.916   5.674 -1.4448  0.5104  0.3557
 6364TIP3   OH240582   4.569   2.220   0.835  0.3750 -0.3384 -0.2513
 6364TIP3    H140583   4.487   2.269   0.842  0.8053  0.9681 -3.0369
 6364TIP3    H240584   4.549   2.134   0.871 -1.0114  1.1479  2.9060
 6365TIP3   OH240585   1.400   0.529  12.446  0.0936  0.6280 -0.2849
 6365TIP3    H140586   1.442   0.594  12.390 -0.0739  0.1570 -0.9665
 6365TIP3    H240587   1.317   0.510  12.403 -0.8180  1.4903  1.0064
 6366TIP3   OH240588   1.355   5.694   6.237 -0.0177  0.1969 -0.5492
 6366TIP3    H140589   1.415   5.660   6.170 -0.1360  0.8008 -0.9708
 6366TIP3    H240590   1.396   5.776   6.265  0.1479 -0.1649  0.2895
 6367TIP3   OH240591   5.271   3.411  13.830 -0.1001 -0.0363  0.7943
 6367TIP3    H140592   5.275   3.485  13.770 -0.0757  0.3759  1.3013
 6367TIP3    H240593   5.205   3.353  13.792 -0.6222  0.5687  0.7617
 6368TIP3   OH240594   4.657   2.238  12.891 -0.1116  0.0083 -0.1673
 6368TIP3    H140595   4.580   2.190  12.861  0.4019 -0.9885  0.0753
 6368TIP3    H240596   4.654   2.233  12.986 -1.4095  2.6569  0.0250
 6369TIP3   OH240597   2.524   6.780   5.311  0.5673 -0.2768 -0.0988
 6369TIP3    H140598   2.615   6.805   5.325  0.3559 -0.0364  0.8900
 6369TIP3    H240599   2.474   6.839   5.366 -0.0644 -1.5834  0.7748
 6370TIP3   OH240600   3.545   4.862  15.648 -0.1811  0.3460 -0.4050
 6370TIP3    H140601   3.514   4.855  15.738 -0.5680  2.1860 -0.3640
 6370TIP3    H240602   3.626   4.912  15.653  0.2403 -0.2464 -1.0114
 6371TIP3   OH240603   2.309   6.365  11.426  0.2272 -0.2244 -0.0902
 6371TIP3    H140604   2.369   6.430  11.462  0.0208  0.2046 -0.5153
 6371TIP3    H240605   2.353   6.332  11.348  0.3098 -0.5598  0.0964
 6372TIP3   OH240606   6.725   3.112  16.017 -0.1831  0.2114 -0.2024
 6372TIP3    H140607   6.764   3.029  16.043 -2.0938 -1.1224 -1.3854
 6372TIP3    H240608   6.753   3.125  15.927 -1.1847  0.0031 -0.5590
 6373TIP3   OH240609   4.747   4.470  14.655 -0.4200 -0.8681 -0.6099
 6373TIP3    H140610   4.802   4.421  14.716 -1.0861 -0.0388  0.6914
 6373TIP3    H240611   4.810   4.516  14.598  0.3700  1.1493  1.7057
 6374TIP3   OH240612   2.951   4.503   1.985  0.4199  0.8324 -0.1594
 6374TIP3    H140613   3.034   4.456   1.985  0.0148  0.0947  0.3725
 6374TIP3    H240614   2.948   4.546   1.900  2.4215  2.8321  0.6704
 6375TIP3   OH240615   5.310   5.318   2.745 -0.0423  0.2429 -0.1981
 6375TIP3    H140616   5.221   5.285   2.757 -0.1956  0.8963  0.5784
 6375TIP3    H240617   5.364   5.263   2.803  0.2139 -0.6994 -1.2835
 6376TIP3   OH240618   1.558   0.861   4.872  0.1340 -0.1353  0.2650
 6376TIP3    H140619   1.636   0.860   4.817  0.9108 -1.4709  1.3179
 6376TIP3    H240620   1.546   0.769   4.897 -2.3126 -0.1235 -0.5725
 6377TIP3   OH240621   3.022   4.056   4.296 -0.2665  0.3271 -0.0930
 6377TIP3    H140622   3.011   4.146   4.264 -0.3984  0.6731  0.8890
 6377TIP3    H240623   3.108   4.056   4.337  0.5344 -0.5086 -1.6713
 6378TIP3   OH240624   3.136   3.080  16.268  0.5775  0.0633  0.6701
 6378TIP3    H140625   3.067   3.018  16.290  0.2713 -0.0267 -0.4973
 6378TIP3    H240626   3.119   3.105  16.177  2.9968 -1.2341 -0.2472
 6379TIP3   OH240627   6.403   3.612  14.433 -0.1112  0.5209 -0.4144
 6379TIP3    H140628   6.458   3.539  14.402 -0.7228 -0.3232  0.4294
 6379TIP3    H240629   6.360   3.645  14.355 -2.7212 -2.4647 -0.4086
 6380TIP3   OH240630   2.653   1.947   4.832  0.3610  0.4663 -0.3743
 6380TIP3    H140631   2.667   1.980   4.921 -0.8581 -1.5609  0.6410
 6380TIP3    H240632   2.726   1.888   4.817 -0.2518 -0.3826 -0.0804
 6381TIP3   OH240633   2.108   3.884  11.577  0.5712  0.0041  0.5539
 6381TIP3    H140634   2.140   3.962  11.622  0.9705  0.1005  0.1027
 6381TIP3    H240635   2.019   3.906  11.551  1.8298  1.7277 -2.8199
 6382TIP3   OH240636   6.105   5.187  12.959 -0.4272  0.0022  0.0412
 6382TIP3    H140637   6.118   5.282  12.961 -3.4626  0.5028  1.3343
 6382TIP3    H240638   6.114   5.160  13.051  0.4450 -0.9929 -0.3195
 6383TIP3   OH240639   2.302   2.959   2.498 -0.2722  0.9526  0.7403
 6383TIP3    H140640   2.269   3.025   2.559 -1.5541 -0.6105  1.8269
 6383TIP3    H240641   2.259   2.980   2.415 -0.8608  1.3307  1.1302
 6384TIP3   OH240642   3.837   2.124  14.039  0.7664  0.5451 -0.4776
 6384TIP3    H140643   3.858   2.077  13.959 -1.6975  1.0590 -1.5260
 6384TIP3    H240644   3.895   2.200  14.038 -0.0514  1.2018 -2.4726
 6385TIP3   OH240645   3.991   4.902  15.173  0.1475  0.0395  0.1681
 6385TIP3    H140646   4.064   4.846  15.146  0.5340 -0.3652  1.9228
 6385TIP3    H240647   3.961   4.863  15.255 -1.4204  0.7801 -0.0313
 6386TIP3   OH240648   3.802   6.167   2.310  0.1181 -0.4142 -0.3712
 6386TIP3    H140649   3.836   6.214   2.386 -0.5638 -1.4251  0.5829
 6386TIP3    H240650   3.724   6.217   2.283  0.5704  0.1516 -0.6516
 6387TIP3   OH240651   6.122   0.534   0.079 -0.5180  0.0362  0.7586
 6387TIP3    H140652   6.050   0.586   0.043  0.0097  0.1607 -0.1366
 6387TIP3    H240653   6.163   0.592   0.144 -0.6705  0.2912  0.6302
 6388TIP3   OH240654   0.243   0.922   2.461 -0.0257 -0.5570 -0.1165
 6388TIP3    H140655   0.169   0.972   2.494  0.5866  1.3519 -1.4506
 6388TIP3    H240656   0.268   0.865   2.534  0.1418  2.1219  2.1103
 6389TIP3   OH240657   4.038   6.005   0.405 -0.4165  0.2419  0.5015
 6389TIP3    H140658   4.098   5.989   0.478  1.3415  0.7633 -0.7493
 6389TIP3    H240659   4.094   6.001   0.327 -2.3243 -0.9301 -0.8899
 6390TIP3   OH240660   4.569   4.632   4.649 -0.2348 -0.1757  0.3695
 6390TIP3    H140661   4.525   4.716   4.660 -0.8939 -0.3853 -0.5394
 6390TIP3    H240662   4.501   4.573   4.615 -0.0413 -1.3488  1.9079
 6391TIP3   OH240663   4.099   2.930   2.755 -0.3633 -0.5550  0.9346
 6391TIP3    H140664   4.099   2.834   2.758 -1.2515 -0.5455  1.6415
 6391TIP3    H240665   4.006   2.954   2.756 -0.2058  0.2860 -1.0423
 6392TIP3   OH240666   1.459   2.922   3.918  0.1010 -0.2357 -0.4711
 6392TIP3    H140667   1.390   2.883   3.865 -1.9713  1.3653  0.8460
 6392TIP3    H240668   1.483   3.002   3.870 -0.8698  0.5523  0.3104
 6393TIP3   OH240669   4.519   4.209   4.684  0.4317 -0.1665 -0.1942
 6393TIP3    H140670   4.613   4.210   4.702  0.4843 -1.9867 -0.1762
 6393TIP3    H240671   4.487   4.132   4.731 -1.1861  0.7441  0.2618
 6394TIP3   OH240672   2.428   6.694  11.961  0.0194 -0.6109  0.6294
 6394TIP3    H140673   2.337   6.722  11.951 -0.0882 -1.4041 -0.9471
 6394TIP3    H240674   2.423   6.599  11.974  0.6780 -1.0277 -1.7533
 6395TIP3   OH240675   6.145   4.778  13.805 -0.3884 -0.3639  0.6714
 6395TIP3    H140676   6.162   4.867  13.837  0.6888 -0.1749 -0.3279
 6395TIP3    H240677   6.058   4.756  13.838 -1.7150  1.9687 -0.9803
 6396TIP3   OH240678   6.558   2.207   4.193  0.4007  0.3160  0.5198
 6396TIP3    H140679   6.570   2.298   4.220 -1.6789  0.2873  1.7444
 6396TIP3    H240680   6.471   2.206   4.153  0.6926 -1.0064 -0.1146
 6397TIP3   OH240681   5.884   3.892  14.930  0.3169  0.5237  0.1711
 6397TIP3    H140682   5.904   3.827  14.863  0.2702  0.2827  0.3886
 6397TIP3    H240683   5.795   3.921  14.910 -0.4214 -0.9000  1.1951
 6398TIP3   OH240684   4.682   4.373  17.173 -0.0688 -0.1418 -0.2963
 6398TIP3    H140685   4.625   4.444  17.142 -0.2676 -0.5047 -0.7820
 6398TIP3    H240686   4.667   4.370  17.267  0.0277  0.5350 -0.2519
 6399TIP3   OH240687   2.794   6.173   1.698  0.3928  0.2572  0.2500
 6399TIP3    H140688   2.849   6.250   1.683 -1.5805  1.3486 -2.3763
 6399TIP3    H240689   2.755   6.155   1.612 -1.4448 -1.9075  1.4232
 6400TIP3   OH240690   4.684   1.819   4.785 -0.2453 -0.0951  0.2988
 6400TIP3    H140691   4.683   1.724   4.783  1.5854 -0.1361 -0.4110
 6400TIP3    H240692   4.628   1.842   4.859  0.1838 -1.7497  1.1794
 6401TIP3   OH240693   3.368   0.096  16.864 -0.5799  0.2964  0.3062
 6401TIP3    H140694   3.326   0.040  16.799 -0.8187  2.1778 -1.2523
 6401TIP3    H240695   3.461   0.076  16.857 -0.6858 -0.0840 -0.0335
 6402TIP3   OH240696   3.098   0.936   4.224 -0.0047 -0.4086  0.7066
 6402TIP3    H140697   3.072   0.844   4.218  0.1010 -0.6196  2.7135
 6402TIP3    H240698   3.183   0.940   4.181  0.1120 -1.3120  0.8239
 6403TIP3   OH240699   2.314   4.476   2.358  0.4389 -0.2116 -0.4449
 6403TIP3    H140700   2.382   4.411   2.344  1.0648 -0.0488  1.5001
 6403TIP3    H240701   2.232   4.432   2.335  0.7626 -1.9906  1.5162
 6404TIP3   OH240702   2.746   6.290  15.174  0.0836  0.0370  0.6369
 6404TIP3    H140703   2.701   6.358  15.124 -0.6351 -0.6665  0.3130
 6404TIP3    H240704   2.831   6.280  15.130 -0.8301 -1.1061 -0.9556
 6405TIP3   OH240705   1.715   2.583  10.810  0.5106  0.2005  0.4452
 6405TIP3    H140706   1.756   2.607  10.728  0.4699  1.3107  0.7382
 6405TIP3    H240707   1.776   2.522  10.851  1.0763  0.5498  0.1253
 6406TIP3   OH240708   5.721   6.492  14.909  0.1526  0.2513  0.0945
 6406TIP3    H140709   5.697   6.581  14.883  0.1591 -0.1785 -1.5165
 6406TIP3    H240710   5.642   6.455  14.948 -0.1705  0.6260 -0.2061
 6407TIP3   OH240711   1.874   2.554  13.411  0.1272  0.0392  0.2730
 6407TIP3    H140712   1.882   2.570  13.505  0.0373  0.3556  0.2294
 6407TIP3    H240713   1.820   2.476  13.404  3.4381 -2.4822  0.6122
 6408TIP3   OH240714   4.747   6.581  16.786 -0.0370  0.3071 -0.3054
 6408TIP3    H140715   4.724   6.643  16.716 -1.5682  0.3738  0.2167
 6408TIP3    H240716   4.759   6.635  16.863 -2.9130 -0.0802  0.5240
 6409TIP3   OH240717   4.257   1.820  11.053  0.7074  0.0272 -0.3367
 6409TIP3    H140718   4.203   1.895  11.078  0.0764 -0.5691  0.1510
 6409TIP3    H240719   4.336   1.828  11.107  0.3590 -0.0080  0.1798
 6410TIP3   OH240720   6.778   4.164  16.630  0.6858 -0.4441  0.0052
 6410TIP3    H140721   6.835   4.178  16.555  0.2740 -0.5611 -0.3369
 6410TIP3    H240722   6.766   4.251  16.668 -1.5409  0.1892 -1.8737
 6411TIP3   OH240723   0.941   5.432   4.037 -0.0756 -0.2190 -0.0789
 6411TIP3    H140724   0.964   5.504   3.978 -0.2500 -0.8602 -0.9542
 6411TIP3    H240725   0.873   5.468   4.093 -0.3615  0.2247 -0.6925
 6412TIP3   OH240726   2.178   6.195  17.050 -0.3214  0.2766 -0.4019
 6412TIP3    H140727   2.188   6.243  17.132 -0.8878  0.1258 -0.2381
 6412TIP3    H240728   2.267   6.186  17.015  0.3281 -2.0452  1.5583
 6413TIP3   OH240729   0.774   3.314   4.178 -0.7255  0.1286  0.4943
 6413TIP3    H140730   0.797   3.224   4.156 -0.0974  0.5094 -0.4324
 6413TIP3    H240731   0.842   3.342   4.240  0.8611  0.9354 -1.5137
 6414TIP3   OH240732   0.063   6.684  13.350  0.1811 -0.6236 -0.3853
 6414TIP3    H140733   0.148   6.710  13.315 -0.4876  1.2687 -0.7234
 6414TIP3    H240734   0.060   6.721  13.438 -0.2287 -0.7799 -0.3288
 6415TIP3   OH240735   4.514   2.593   0.930  0.4126 -0.2981 -0.2656
 6415TIP3    H140736   4.463   2.517   0.902 -0.9082  0.4592 -0.0196
 6415TIP3    H240737   4.604   2.571   0.908 -0.0710 -1.4870 -1.1763
 6416TIP3   OH240738   1.280   4.759  15.047 -0.0489 -0.0239 -0.0001
 6416TIP3    H140739   1.276   4.773  15.141 -0.7222  1.0893 -0.1776
 6416TIP3    H240740   1.371   4.779  15.024 -0.1002  0.5664  0.2898
 6417TIP3   OH240741   2.266   2.037   1.016 -0.3929 -0.2681 -0.1420
 6417TIP3    H140742   2.219   1.985   0.951 -1.4990  1.1957 -0.5646
 6417TIP3    H240743   2.219   2.021   1.098 -0.0545 -0.7788 -0.0453
 6418TIP3   OH240744   4.266   2.066  11.960 -0.0689 -0.2596 -0.4192
 6418TIP3    H140745   4.289   2.002  12.028 -0.4125  0.3729  0.3077
 6418TIP3    H240746   4.327   2.048  11.889  0.0647 -1.1708 -0.0870
 6419TIP3   OH240747   3.570   1.976  14.949 -0.0656  0.6464  0.1824
 6419TIP3    H140748   3.596   2.062  14.916  1.8908  0.4516  1.0962
 6419TIP3    H240749   3.642   1.918  14.925 -0.1692 -0.2067  1.8085
 6420TIP3   OH240750   1.700   2.207  14.470 -0.4717  0.0463  0.7597
 6420TIP3    H140751   1.660   2.277  14.419 -1.5384 -0.6524  0.5911
 6420TIP3    H240752   1.720   2.246  14.554 -2.5226  0.1934  1.2362
 6421TIP3   OH240753   5.993   1.439  11.787 -0.0866 -0.5645  0.3383
 6421TIP3    H140754   5.966   1.374  11.852 -0.3083 -0.9892 -0.1775
 6421TIP3    H240755   6.071   1.402  11.745  0.4644  0.0164  0.8251
 6422TIP3   OH240756   6.807   1.646   2.933  0.2090 -0.5887 -0.4701
 6422TIP3    H140757   6.748   1.694   2.875  0.2826 -1.0350 -0.9244
 6422TIP3    H240758   6.758   1.567   2.956  0.5172 -0.8265 -0.6220
 6423TIP3   OH240759   3.120   0.807  10.453 -0.1162 -0.2668  0.1641
 6423TIP3    H140760   3.035   0.851  10.459  0.5732  1.1386  0.1115
 6423TIP3    H240761   3.173   0.848  10.522  1.0013  0.0144 -0.8321
 6424TIP3   OH240762   6.131   4.090   5.655  0.3450  0.1632 -0.2510
 6424TIP3    H140763   6.068   4.046   5.712  1.3124  0.8393  1.4191
 6424TIP3    H240764   6.079   4.122   5.581 -0.8391 -1.2822 -0.0758
 6425TIP3   OH240765   3.216   5.453  12.750 -0.2253 -0.1149  0.0535
 6425TIP3    H140766   3.287   5.461  12.685 -1.2787  0.9189 -1.0350
 6425TIP3    H240767   3.238   5.519  12.816  0.8811 -1.2057  0.8168
 6426TIP3   OH240768   0.183   4.464   0.672 -0.6135  0.4150 -0.0543
 6426TIP3    H140769   0.277   4.485   0.672 -0.4169 -0.2458  2.3479
 6426TIP3    H240770   0.178   4.376   0.634 -0.3031  0.5765 -0.4743
 6427TIP3   OH240771   3.057   2.922   5.243  0.1273  0.0793  0.4020
 6427TIP3    H140772   3.096   2.873   5.316 -0.1870  0.4457  0.8181
 6427TIP3    H240773   3.019   2.854   5.186  0.3625 -0.2049  0.5811
 6428TIP3   OH240774   5.637   1.870   1.640 -0.6104  0.1448 -0.0046
 6428TIP3    H140775   5.604   1.957   1.665 -0.6180 -0.1557  1.0960
 6428TIP3    H240776   5.579   1.809   1.684 -0.0129 -0.4104  0.0276
 6429TIP3   OH240777   1.893   2.927  12.623  0.4157 -0.6437  0.0585
 6429TIP3    H140778   1.799   2.906  12.627  0.2039  0.3734  0.8755
 6429TIP3    H240779   1.897   3.009  12.573  0.8662 -0.6473  0.0857
 6430TIP3   OH240780   4.354   1.380   2.041 -0.5637  0.1320  0.3052
 6430TIP3    H140781   4.328   1.417   2.125 -0.7470  0.4732  0.1019
 6430TIP3    H240782   4.335   1.286   2.049  0.9726 -0.1247  1.2309
 6431TIP3   OH240783   0.943   4.562  13.634  0.5228  0.6512 -0.2703
 6431TIP3    H140784   0.981   4.648  13.614  2.2657 -0.2420 -0.9709
 6431TIP3    H240785   0.979   4.539  13.720  2.1534 -0.4492 -1.1846
 6432TIP3   OH240786   5.328   2.672  16.743 -0.4601 -0.2025 -0.4877
 6432TIP3    H140787   5.354   2.735  16.676  1.8149  1.9363  2.1349
 6432TIP3    H240788   5.398   2.608  16.745 -0.3346 -0.0555  0.0436
 6433TIP3   OH240789   2.925   2.901  16.325  0.0333  0.6210  0.1630
 6433TIP3    H140790   2.830   2.896  16.316  0.1384  1.1899 -1.5889
 6433TIP3    H240791   2.946   2.832  16.389 -1.4715 -0.0181  0.0237
 6434TIP3   OH240792   3.141   4.321  15.430 -0.5869 -0.6068 -0.0768
 6434TIP3    H140793   3.170   4.232  15.410 -0.3959 -0.2755 -1.3672
 6434TIP3    H240794   3.082   4.344  15.358 -0.2433  0.4861 -0.0324
 6435TIP3   OH240795   4.882   3.162  14.378 -0.2588 -0.4118 -0.3125
 6435TIP3    H140796   4.953   3.128  14.325  0.3812 -1.5680  1.2337
 6435TIP3    H240797   4.805   3.114  14.348 -0.4879  0.9367 -2.0827
 6436TIP3   OH240798   4.178   1.803  14.751  0.4367  0.0930  0.5836
 6436TIP3    H140799   4.173   1.772  14.841  1.9993 -0.1517  0.6127
 6436TIP3    H240800   4.269   1.828  14.739 -0.2225  2.3684 -0.2123
 6437TIP3   OH240801   4.753   1.545   1.274 -0.2755  0.1536 -0.2625
 6437TIP3    H140802   4.686   1.571   1.210  0.6865 -0.9068 -1.7645
 6437TIP3    H240803   4.819   1.500   1.222  0.7824 -0.3394  1.4435
 6438TIP3   OH240804   6.387   1.579   1.225  0.4625  0.3429  0.0745
 6438TIP3    H140805   6.309   1.531   1.199  1.4248 -0.8377 -0.7234
 6438TIP3    H240806   6.356   1.669   1.239 -1.1372 -0.2327  0.4052
 6439TIP3   OH240807   1.530   3.415   0.311  0.3496  0.2775  0.7119
 6439TIP3    H140808   1.494   3.479   0.249 -0.0961  0.5413  1.2273
 6439TIP3    H240809   1.611   3.455   0.342  0.5297  0.1840  0.3730
 6440TIP3   OH240810   0.974   4.913   2.731  0.5481 -0.6345  0.0572
 6440TIP3    H140811   0.956   4.827   2.694 -1.0668 -0.1655 -0.3668
 6440TIP3    H240812   1.038   4.952   2.672  0.9676 -1.3806  0.0137
 6441TIP3   OH240813   6.487   3.331   1.925 -0.0207 -0.6982 -0.2848
 6441TIP3    H140814   6.552   3.389   1.886 -0.6251 -0.6997 -1.3473
 6441TIP3    H240815   6.403   3.367   1.897 -0.5969  0.2238  2.3587
 6442TIP3   OH240816   6.347   5.321  17.075  0.0136 -0.4937 -0.2933
 6442TIP3    H140817   6.357   5.301  17.168 -1.1885  0.9302  0.1868
 6442TIP3    H240818   6.328   5.415  17.073  0.3934 -0.4212 -2.0172
 6443TIP3   OH240819   3.606   4.052   4.544 -0.2857 -0.0869 -0.4995
 6443TIP3    H140820   3.531   4.007   4.583  0.0033 -0.1570 -0.0102
 6443TIP3    H240821   3.614   4.014   4.457 -0.4392 -0.5252 -0.3274
 6444TIP3   OH240822   2.362   5.147  12.449 -0.2731 -0.4430  0.4137
 6444TIP3    H140823   2.308   5.118  12.375  0.4551 -2.3350  0.5538
 6444TIP3    H240824   2.436   5.192  12.408 -1.5821  1.6595  0.1997
 6445TIP3   OH240825   3.067   0.227   1.053  0.0600  0.2660 -0.7751
 6445TIP3    H140826   3.117   0.248   1.132  0.3151 -0.3075 -0.7827
 6445TIP3    H240827   3.062   0.311   1.006  1.6912  0.1894 -1.1468
 6446TIP3   OH240828   5.504   3.205   3.947 -0.2446  0.3051 -0.1992
 6446TIP3    H140829   5.546   3.285   3.915  1.2067 -0.6434 -0.8022
 6446TIP3    H240830   5.542   3.192   4.034 -0.2536  0.1114 -0.2248
 6447TIP3   OH240831   3.050   0.038   0.684  0.3871  0.0685 -0.3026
 6447TIP3    H140832   3.063   0.132   0.696 -1.7779  0.3824 -0.0541
 6447TIP3    H240833   3.136   0.005   0.657  0.8816  2.3185 -1.7592
 6448TIP3   OH240834   4.392   4.477   5.795  0.5838  0.4061  0.0805
 6448TIP3    H140835   4.400   4.561   5.840  0.0135  0.3308  0.3251
 6448TIP3    H240836   4.298   4.467   5.779  0.5325 -0.6447  0.9567
 6449TIP3   OH240837   6.203   0.903   5.279 -0.2112 -0.3096  0.2451
 6449TIP3    H140838   6.110   0.923   5.272 -0.0829  0.4069  0.5106
 6449TIP3    H240839   6.225   0.863   5.195 -0.3033  1.4645 -0.6664
 6450TIP3   OH240840   1.612   2.003   4.253  0.1456  0.4310  0.4169
 6450TIP3    H140841   1.578   1.991   4.164  1.7125  0.0546 -0.1776
 6450TIP3    H240842   1.579   2.088   4.280 -1.4775 -0.0350  0.0260
 6451TIP3   OH240843   5.113   5.392  11.588  0.2618  0.5136 -0.3463
 6451TIP3    H140844   5.174   5.331  11.546 -1.0582 -0.7108 -0.5595
 6451TIP3    H240845   5.150   5.478  11.570  0.7133 -0.0670 -2.4962
 6452TIP3   OH240846   3.002   4.747   2.445  1.0271  0.1384  0.3806
 6452TIP3    H140847   3.034   4.758   2.356  1.5275  0.7967  0.6350
 6452TIP3    H240848   3.063   4.684   2.484  0.3666 -0.7285  0.0436
 6453TIP3   OH240849   4.996   2.087   1.965  0.4607  0.1561 -0.0975
 6453TIP3    H140850   4.926   2.090   1.900 -0.0563 -0.8951  0.4043
 6453TIP3    H240851   5.070   2.047   1.919 -0.0292 -0.9561  0.0649
 6454TIP3   OH240852   6.711   0.600  16.333  1.0609  0.3925  0.2496
 6454TIP3    H140853   6.726   0.643  16.249  1.3465 -0.7588 -0.3104
 6454TIP3    H240854   6.722   0.507  16.314  0.5572  0.0746  1.4435
 6455TIP3   OH240855   0.367   0.303   3.219  0.0740  0.3092 -0.4097
 6455TIP3    H140856   0.374   0.212   3.189 -0.1007 -0.2055  1.0337
 6455TIP3    H240857   0.311   0.298   3.297  1.0478  1.4807  0.3938
 6456TIP3   OH240858   5.447   3.131   5.169  0.1807  0.2781  0.2921
 6456TIP3    H140859   5.397   3.052   5.147 -0.2643  0.5143  0.4277
 6456TIP3    H240860   5.518   3.099   5.225 -0.3898  0.0527  0.9071
 6457TIP3   OH240861   1.029   1.651   1.537 -0.5549 -0.4228  0.3598
 6457TIP3    H140862   1.052   1.744   1.541  0.8275 -0.7663  1.6719
 6457TIP3    H240863   1.041   1.620   1.627  0.1166 -2.1081 -0.2639
 6458TIP3   OH240864   2.201   5.769   5.138 -0.7093 -0.0836 -0.0298
 6458TIP3    H140865   2.274   5.713   5.164  0.7107  1.5714 -0.2729
 6458TIP3    H240866   2.155   5.718   5.071  0.2261 -1.1735  0.1204
 6459TIP3   OH240867   6.638   4.326   1.541 -0.2903 -0.1066  0.3002
 6459TIP3    H140868   6.729   4.355   1.536 -0.5533  0.5799 -0.7072
 6459TIP3    H240869   6.627   4.268   1.466 -0.2391 -1.5591  1.3606
 6460TIP3   OH240870   2.605   3.143  13.474 -0.1689 -0.0511 -0.5425
 6460TIP3    H140871   2.650   3.063  13.502 -1.2306  0.0097  1.5337
 6460TIP3    H240872   2.675   3.203  13.449  0.7777 -0.8033  0.2216
 6461TIP3   OH240873   3.445   6.807  14.176 -0.1951  0.2031 -0.6091
 6461TIP3    H140874   3.372   6.745  14.165  0.9681 -1.0992 -1.2572
 6461TIP3    H240875   3.497   6.770  14.248 -0.0125  0.9865 -0.3259
 6462TIP3   OH240876   2.168   6.682  15.934 -0.0355  0.5168  0.1976
 6462TIP3    H140877   2.085   6.715  15.899  0.1547  0.0060 -0.7581
 6462TIP3    H240878   2.234   6.743  15.903  0.1223  0.1181 -0.2612
 6463TIP3   OH240879   4.882   5.568   3.781  0.2825 -0.1776 -0.2182
 6463TIP3    H140880   4.836   5.523   3.853  1.9677  0.1168  1.0935
 6463TIP3    H240881   4.942   5.502   3.747  1.3785  0.4544  0.4334
 6464TIP3   OH240882   1.402   4.682   2.158 -0.3435 -0.0754  0.1517
 6464TIP3    H140883   1.419   4.601   2.110 -0.5548 -0.0279 -0.0081
 6464TIP3    H240884   1.489   4.719   2.175 -0.2091 -0.7031  0.8741
 6465TIP3   OH240885   2.971   3.073  15.175 -0.3152 -0.2490  0.1226
 6465TIP3    H140886   2.993   3.159  15.211  2.0824  0.0065 -1.6758
 6465TIP3    H240887   3.053   3.042  15.136 -1.4508 -2.7677 -0.4649
 6466TIP3   OH240888   1.528   2.206  12.560 -0.4483  0.4007 -0.2589
 6466TIP3    H140889   1.571   2.253  12.632 -1.3677  0.2894  0.3780
 6466TIP3    H240890   1.436   2.232  12.566 -0.6207  0.0275 -1.1143
 6467TIP3   OH240891   5.017   1.698   6.496  0.2348 -0.0213  0.3087
 6467TIP3    H140892   5.072   1.678   6.572  0.5104 -0.8008 -0.0850
 6467TIP3    H240893   4.945   1.636   6.502 -0.5404  0.8978  0.7400
 6468TIP3   OH240894   0.834   1.396   4.813  0.1494  0.4493  0.0740
 6468TIP3    H140895   0.901   1.463   4.799  1.2852 -0.5572  0.5429
 6468TIP3    H240896   0.813   1.404   4.906 -0.3239  0.6911 -0.0499
 6469TIP3   OH240897   0.725   3.805   5.368  0.1752 -0.5822  0.0293
 6469TIP3    H140898   0.679   3.725   5.344 -0.4656  0.4494 -2.4451
 6469TIP3    H240899   0.655   3.868   5.385  0.6858 -0.3159  1.2555
 6470TIP3   OH240900   0.869   4.046  16.086 -0.0015 -1.1079  0.4128
 6470TIP3    H140901   0.941   4.028  16.147 -0.5030 -1.0310  1.0355
 6470TIP3    H240902   0.874   3.975  16.022  0.8339 -0.9161  0.2544
 6471TIP3   OH240903   4.433   3.587  15.967  0.1822 -0.0314  0.8578
 6471TIP3    H140904   4.517   3.616  15.932 -0.5242 -0.3915 -1.2770
 6471TIP3    H240905   4.419   3.501  15.929 -1.9133  0.7229 -0.2621
 6472TIP3   OH240906   4.209   1.757   4.749  0.3068 -0.1607  0.5148
 6472TIP3    H140907   4.255   1.793   4.674  0.8594  3.1266  2.2378
 6472TIP3    H240908   4.124   1.800   4.748 -1.4857 -3.4062 -0.5486
 6473TIP3   OH240909   2.435   6.310  13.813 -0.1499 -0.0312 -0.6313
 6473TIP3    H140910   2.363   6.336  13.871 -0.8749 -0.0849 -1.4789
 6473TIP3    H240911   2.396   6.312  13.725  0.2118 -2.3257 -0.9127
 6474TIP3   OH240912   4.144   1.916  16.666 -0.8135  0.4497  0.3596
 6474TIP3    H140913   4.181   1.831  16.692 -1.4304 -1.3690 -3.9128
 6474TIP3    H240914   4.219   1.964  16.631 -0.9719  0.3165 -0.1779
 6475TIP3   OH240915   3.286   3.446  13.223  0.1439 -0.3439  0.2324
 6475TIP3    H140916   3.277   3.384  13.151  2.0839 -0.8552  0.3625
 6475TIP3    H240917   3.211   3.504  13.215 -0.1274 -0.9064 -1.6900
 6476TIP3   OH240918   1.833   5.513  15.496 -0.3428  0.5617  0.1513
 6476TIP3    H140919   1.927   5.500  15.503 -0.4737 -0.0478  0.8958
 6476TIP3    H240920   1.800   5.502  15.585 -1.0878  1.0413 -0.0538
 6477TIP3   OH240921   2.250   0.890  10.587  0.4159 -0.2322 -0.7366
 6477TIP3    H140922   2.186   0.960  10.581  1.0877  0.5450  0.7586
 6477TIP3    H240923   2.223   0.838  10.662  1.3997  0.0018 -0.1959
 6478TIP3   OH240924   1.931   0.035  16.001 -0.2813  0.5278 -0.8061
 6478TIP3    H140925   1.848   0.065  16.038  0.0487 -0.5886  0.9362
 6478TIP3    H240926   1.998   0.079  16.053  0.1959 -1.5088  0.3789
 6479TIP3   OH240927   1.779   3.176   4.714  0.3392  0.3256  0.2901
 6479TIP3    H140928   1.864   3.146   4.684 -0.0533  0.2400 -0.7748
 6479TIP3    H240929   1.780   3.270   4.702  0.3361  0.3432  0.4221
 6480TIP3   OH240930   0.952   0.108   1.418  0.2001  0.4681  0.2832
 6480TIP3    H140931   0.899   0.188   1.406  0.8434  0.7316 -1.0033
 6480TIP3    H240932   0.888   0.037   1.419 -0.3627  0.9589  1.1854
 6481TIP3   OH240933   1.084   6.818   4.278  0.4393 -0.2725  0.4589
 6481TIP3    H140934   1.167   6.858   4.252  0.4942 -1.0084 -0.6152
 6481TIP3    H240935   1.108   6.752   4.343  0.7362 -0.6295 -0.0050
 6482TIP3   OH240936   0.952   6.807  17.065  0.5522 -0.0701  0.2549
 6482TIP3    H140937   0.974   6.826  16.973 -0.0419 -0.4102  0.0361
 6482TIP3    H240938   0.857   6.804  17.066  0.5793 -1.8526  0.5105
 6483TIP3   OH240939   3.985   0.515  16.280 -0.4795 -0.4054 -0.2962
 6483TIP3    H140940   3.914   0.580  16.273  1.0311  1.3179 -0.3799
 6483TIP3    H240941   3.970   0.473  16.365 -0.6373  1.1991  0.5306
 6484TIP3   OH240942   2.415   3.866   3.521 -0.2019  0.2017  1.0769
 6484TIP3    H140943   2.401   3.922   3.597 -2.3482  0.6114  0.4428
 6484TIP3    H240944   2.491   3.903   3.477 -1.3928  2.4958  0.8301
 6485TIP3   OH240945   3.418   3.144   5.718  0.4835  0.0027  1.0147
 6485TIP3    H140946   3.357   3.071   5.710  1.8787 -1.1267  0.2223
 6485TIP3    H240947   3.488   3.111   5.774  1.6135  0.3699 -0.1468
 6486TIP3   OH240948   1.388   2.136   2.432 -0.4936  0.1115  0.9998
 6486TIP3    H140949   1.330   2.201   2.392  0.7749 -0.0705 -1.3035
 6486TIP3    H240950   1.330   2.065   2.459 -1.5862  0.9765  0.9843
 6487TIP3   OH240951   0.057   2.428  12.942 -0.5287 -0.0666 -0.1372
 6487TIP3    H140952   0.152   2.416  12.944 -0.6981 -1.6674  0.5712
 6487TIP3    H240953   0.036   2.441  12.850  0.3099 -0.4386 -0.3923
 6488TIP3   OH240954   2.169   5.445  14.760 -0.5528  0.0695  0.6353
 6488TIP3    H140955   2.126   5.359  14.762  0.8449 -0.7676 -1.5261
 6488TIP3    H240956   2.152   5.478  14.672  0.5703  1.1230  0.7928
 6489TIP3   OH240957   0.392   6.713   5.444  0.3132 -0.0553 -0.0539
 6489TIP3    H140958   0.348   6.798   5.442  0.4690  0.0204 -0.3658
 6489TIP3    H240959   0.321   6.649   5.448  0.1672  0.0623 -0.6843
 6490TIP3   OH240960   0.437   6.771  11.635  0.0657 -0.2297 -0.2557
 6490TIP3    H140961   0.476   6.855  11.613  0.2464  0.0746  1.1556
 6490TIP3    H240962   0.477   6.746  11.718  0.0751 -1.7574 -0.6912
 6491TIP3   OH240963   2.146   1.843  10.533  0.3170 -0.3725 -0.2210
 6491TIP3    H140964   2.096   1.910  10.487  1.6152  1.0734  0.4024
 6491TIP3    H240965   2.109   1.760  10.502 -2.7241  0.5827  0.5018
 6492TIP3   OH240966   5.168   4.169   0.305  0.0745  0.1875 -0.1666
 6492TIP3    H140967   5.209   4.198   0.223 -0.0957 -0.5827 -0.5288
 6492TIP3    H240968   5.124   4.088   0.282 -1.3111  0.7840  0.3177
 6493TIP3   OH240969   0.563   4.069   6.088  0.0389 -0.2865 -0.0573
 6493TIP3    H140970   0.477   4.029   6.077 -0.1005  0.2864 -1.2658
 6493TIP3    H240971   0.601   4.025   6.164 -0.8135 -1.4323 -0.2708
 6494TIP3   OH240972   0.097   1.680  12.448  0.0974 -0.1156  0.5734
 6494TIP3    H140973   0.192   1.680  12.437 -0.0964 -0.6434 -1.7734
 6494TIP3    H240974   0.064   1.719  12.367 -1.7147 -0.5260  1.0717
 6495TIP3   OH240975   4.710   0.233   1.225 -0.4292 -0.0390 -0.3045
 6495TIP3    H140976   4.787   0.272   1.184 -2.3847  1.5764 -2.8045
 6495TIP3    H240977   4.690   0.289   1.300  1.8941 -1.6948  1.6987
 6496TIP3   OH240978   0.877   5.490   4.309  0.2716 -0.0938  0.1813
 6496TIP3    H140979   0.844   5.450   4.389 -1.4224  0.9617  0.0578
 6496TIP3    H240980   0.970   5.468   4.307  0.5384  0.4906  2.8270
 6497TIP3   OH240981   4.068   3.261  16.039  0.2630 -0.0851  0.6567
 6497TIP3    H140982   3.985   3.286  15.999  0.9045  1.3831  0.1567
 6497TIP3    H240983   4.056   3.170  16.067 -0.6462 -0.7737 -1.7310
 6498TIP3   OH240984   5.871   6.686  12.894  0.4565 -0.1117  0.0787
 6498TIP3    H140985   5.791   6.642  12.865  0.5218 -0.4122  0.3460
 6498TIP3    H240986   5.895   6.743  12.821  0.7130 -0.9816 -0.5284
 6499TIP3   OH240987   4.528   6.656  13.741 -0.1826  0.5054 -0.5329
 6499TIP3    H140988   4.540   6.613  13.826  2.0881  0.1673 -0.9569
 6499TIP3    H240989   4.563   6.593  13.678 -0.7909  1.2171 -1.6086
 6500TIP3   OH240990   4.049   0.930   2.813  0.5128  0.0318 -0.3207
 6500TIP3    H140991   3.974   0.871   2.815  0.8354 -0.3696  0.5181
 6500TIP3    H240992   4.117   0.881   2.766  1.6385 -1.3909  2.5443
 6501TIP3   OH240993   5.968   2.662  11.887  0.4594  0.2789 -0.0893
 6501TIP3    H140994   5.874   2.646  11.894  0.5396 -1.9662 -2.4447
 6501TIP3    H240995   5.983   2.743  11.936 -3.3134  2.9229 -2.7196
 6502TIP3   OH240996   3.831   1.008   0.785 -0.1230 -0.1037 -0.2663
 6502TIP3    H140997   3.901   0.964   0.737  0.9031  1.5076 -0.2925
 6502TIP3    H240998   3.856   1.000   0.877 -0.1832  0.0078 -0.2398
 6503TIP3   OH240999   6.606   4.009   1.800 -0.4114  0.0553  0.3805
 6503TIP3    H141000   6.518   4.029   1.831 -0.8712 -2.2496  0.7319
 6503TIP3    H241001   6.607   3.914   1.788  1.4178  0.2350 -1.5587
 6504TIP3   OH241002   0.693   1.311  14.388  0.3177  0.0493 -0.5670
 6504TIP3    H141003   0.622   1.368  14.360  0.2796  0.7976  0.9725
 6504TIP3    H241004   0.698   1.244  14.320 -0.7926  0.8906 -1.5105
 6505TIP3   OH241005   4.585   0.415   2.220 -0.0545  0.1073 -0.3344
 6505TIP3    H141006   4.595   0.495   2.271 -0.2398  1.2081 -1.9248
 6505TIP3    H241007   4.497   0.421   2.183  0.3134 -0.3079 -1.3071
 6506TIP3   OH241008   1.919   0.477  13.182 -0.1653  0.2236 -0.4239
 6506TIP3    H141009   1.859   0.516  13.119 -1.5910  1.1941  1.4348
 6506TIP3    H241010   1.872   0.401  13.216  1.3291 -1.4026 -1.7434
 6507TIP3   OH241011   6.580   2.235   6.010 -0.3306 -0.0426 -0.4263
 6507TIP3    H141012   6.533   2.167   6.058  0.4631  0.2012  0.7417
 6507TIP3    H241013   6.665   2.242   6.055 -0.1221  1.2118 -0.9642
 6508TIP3   OH241014   1.867   4.813   4.395 -0.6244  0.0925 -0.0538
 6508TIP3    H141015   1.876   4.887   4.335  0.5314 -0.5820 -0.7455
 6508TIP3    H241016   1.834   4.742   4.340 -0.8304 -0.1746  0.4085
 6509TIP3   OH241017   5.669   4.794   0.535  0.3928  0.0964 -0.2504
 6509TIP3    H141018   5.667   4.699   0.527 -0.5859  0.1081 -0.2799
 6509TIP3    H241019   5.668   4.827   0.445 -2.6093  0.1422 -0.2900
 6510TIP3   OH241020   0.840   0.364   1.397 -0.1358 -0.4234 -0.2807
 6510TIP3    H141021   0.768   0.387   1.339 -1.0946  0.6030  1.2360
 6510TIP3    H241022   0.805   0.380   1.485  1.5078 -1.1880  0.5432
 6511TIP3   OH241023   0.335   0.041  14.578  0.2279 -0.0139 -0.0278
 6511TIP3    H141024   0.295  -0.039  14.544  0.8555 -0.1076 -0.5627
 6511TIP3    H241025   0.292   0.055  14.662 -0.6791 -0.3003 -0.4286
 6512TIP3   OH241026   6.723   6.267  15.880 -0.0249 -0.2097  0.0737
 6512TIP3    H141027   6.770   6.233  15.956 -1.0284 -0.1974  0.7136
 6512TIP3    H241028   6.766   6.225  15.805  1.7868  0.7222  0.5228
 6513TIP3   OH241029   4.437   3.491   1.727 -0.4670  0.1121 -0.6009
 6513TIP3    H141030   4.404   3.405   1.754 -1.8474  0.8656  0.2112
 6513TIP3    H241031   4.474   3.529   1.807 -3.0664  1.6738 -0.0109
 6514TIP3   OH241032   0.488   2.616  15.763 -0.2779 -0.2188 -0.1570
 6514TIP3    H141033   0.574   2.619  15.720  0.1968 -0.7795  0.7116
 6514TIP3    H241034   0.429   2.661  15.703  0.3229 -1.1169 -1.4798
 6515TIP3   OH241035   1.729   3.252  16.617 -0.1691 -0.3223 -0.6153
 6515TIP3    H141036   1.710   3.162  16.644 -1.7540  0.6978  2.1038
 6515TIP3    H241037   1.712   3.253  16.523  0.1777 -2.9093 -0.7713
 6516TIP3   OH241038   5.845   3.271   1.843  0.0518  0.0926 -0.1706
 6516TIP3    H141039   5.907   3.322   1.791 -0.5544  0.8633 -0.1601
 6516TIP3    H241040   5.876   3.278   1.933 -0.0067  0.4171 -0.1752
 6517TIP3   OH241041   1.931   2.554  11.244 -0.1888  0.7464  0.2956
 6517TIP3    H141042   1.997   2.555  11.174  0.8563  0.8013  1.2561
 6517TIP3    H241043   1.965   2.614  11.310 -0.6905 -0.0060  1.2699
 6518TIP3   OH241044   2.715   3.946  12.536 -0.4559  0.0986  0.0954
 6518TIP3    H141045   2.803   3.978  12.556 -0.7046 -0.5396  2.5406
 6518TIP3    H241046   2.705   3.962  12.443  1.3865  2.2854  0.1673
 6519TIP3   OH241047   5.506   1.822  14.659 -0.1431 -0.2302 -0.6664
 6519TIP3    H141048   5.492   1.848  14.750 -0.9086 -0.8934 -0.5773
 6519TIP3    H241049   5.593   1.857  14.637  1.4313 -2.5764  1.2662
 6520TIP3   OH241050   5.216   6.345   5.007 -0.3154 -0.1931 -0.3579
 6520TIP3    H141051   5.124   6.350   5.031 -0.1368  0.3423  0.2416
 6520TIP3    H241052   5.216   6.304   4.920 -1.1257 -0.0456 -0.4356
 6521TIP3   OH241053   6.579   3.266   2.390  0.3644 -0.2785  0.2430
 6521TIP3    H141054   6.538   3.344   2.427 -1.2883 -1.0661  0.1191
 6521TIP3    H241055   6.591   3.286   2.297  0.8745  0.1909  0.4026
 6522TIP3   OH241056   0.758   0.611   2.864  0.4985 -0.0688 -0.0554
 6522TIP3    H141057   0.809   0.538   2.830 -0.4531  0.1447 -2.1116
 6522TIP3    H241058   0.667   0.583   2.855  0.1504  0.9084  0.2372
 6523TIP3   OH241059   5.398   6.654   6.703  0.5647  0.1196  0.2225
 6523TIP3    H141060   5.457   6.718   6.663  0.0906  0.4584  0.0497
 6523TIP3    H241061   5.327   6.707   6.738  0.3742 -0.2838  0.4453
 6524TIP3   OH241062   1.967   3.875   4.449 -0.4462 -0.2697  0.1278
 6524TIP3    H141063   1.937   3.805   4.391 -1.2220  0.7604 -0.7444
 6524TIP3    H241064   1.921   3.953   4.419  1.8438  1.0548 -0.1827
 6525TIP3   OH241065   4.400   6.673  11.928 -0.2994  0.2695  0.7765
 6525TIP3    H141066   4.346   6.689  11.851  0.7296  0.0046 -0.0233
 6525TIP3    H241067   4.394   6.578  11.942  1.6641 -0.1382 -0.6728
 6526TIP3   OH241068   1.653   3.456   6.389 -0.7473  0.1759  0.8981
 6526TIP3    H141069   1.561   3.429   6.391 -1.0668  0.8690 -1.2711
 6526TIP3    H241070   1.649   3.551   6.372  0.3591  0.0946  0.1041
 6527TIP3   OH241071   2.894   3.849  13.497 -0.0171 -0.5873 -0.5326
 6527TIP3    H141072   2.832   3.780  13.521 -1.4982  0.4045 -1.3259
 6527TIP3    H241073   2.890   3.912  13.569 -0.9108  0.0779 -1.1312
 6528TIP3   OH241074   2.967   4.273   4.480 -0.3362  0.7077 -0.4480
 6528TIP3    H141075   3.058   4.299   4.493  0.2810 -0.9568 -1.1123
 6528TIP3    H241076   2.932   4.338   4.419 -0.5825  3.1862  2.1290
 6529TIP3   OH241077   3.558   1.904   4.358  0.0886  0.1365  0.2022
 6529TIP3    H141078   3.620   1.964   4.400 -0.5629 -0.0780  1.5243
 6529TIP3    H241079   3.493   1.961   4.317  0.6540  0.3477 -0.4181
 6530TIP3   OH241080   5.889   0.399  11.547  0.1683  0.4276  0.6361
 6530TIP3    H141081   5.846   0.470  11.499 -0.2412 -0.6539 -0.6678
 6530TIP3    H241082   5.978   0.396  11.511  0.9631  1.7285  2.3229
 6531TIP3   OH241083   2.756   6.808   1.166  0.4317 -0.8478 -0.5680
 6531TIP3    H141084   2.748   6.717   1.194 -1.4262 -0.0218  1.8916
 6531TIP3    H241085   2.839   6.838   1.204  1.0980 -1.4754 -1.4659
 6532TIP3   OH241086   0.378   1.461  15.523 -0.7053  0.0628  0.2535
 6532TIP3    H141087   0.335   1.378  15.503  0.5262 -0.8882  1.4287
 6532TIP3    H241088   0.359   1.516  15.447 -0.5724 -1.6531 -1.0863
 6533TIP3   OH241089   5.481   6.213   0.262 -0.0923 -0.8453 -0.1253
 6533TIP3    H141090   5.538   6.262   0.201 -2.2472  0.9822 -0.8308
 6533TIP3    H241091   5.524   6.221   0.347  0.7789  0.3857 -0.6503
 6534TIP3   OH241092   4.601   3.101   2.306  0.0791 -0.0645 -0.0586
 6534TIP3    H141093   4.537   3.107   2.377 -0.7938  0.5139 -0.8633
 6534TIP3    H241094   4.685   3.089   2.350 -0.4076  0.5649  1.0818
 6535TIP3   OH241095   1.997   5.146   0.298  0.2442 -0.2929 -0.2067
 6535TIP3    H141096   2.046   5.203   0.238  1.5610 -0.0468  1.0577
 6535TIP3    H241097   2.061   5.118   0.363 -0.7956 -1.8122  0.2205
 6536TIP3   OH241098   6.707   5.853  11.254 -0.0092 -0.5787 -1.1688
 6536TIP3    H141099   6.720   5.849  11.159 -2.3465 -0.1456 -1.5800
 6536TIP3    H241100   6.673   5.941  11.269 -1.0553 -1.1398 -0.1414
 6537TIP3   OH241101   1.839   1.667   0.412  0.9247 -0.2258  0.0018
 6537TIP3    H141102   1.859   1.631   0.325 -1.3461 -0.6671 -0.3870
 6537TIP3    H241103   1.910   1.634   0.467  1.4481 -1.4355 -1.3222
 6538TIP3   OH241104   5.301   4.349   1.697  0.7719  0.3662 -0.3070
 6538TIP3    H141105   5.342   4.295   1.764 -0.7086 -0.9384 -0.4120
 6538TIP3    H241106   5.281   4.431   1.741  1.7987  0.3510  0.2224
 6539TIP3   OH241107   1.962   4.043  13.984 -0.3873  0.0224  0.3546
 6539TIP3    H141108   2.033   4.039  13.920  0.6461  0.6535  1.4073
 6539TIP3    H241109   1.902   4.109  13.950  0.0058  0.1444 -0.1073
 6540TIP3   OH241110   6.658   4.142  11.664  0.2870 -0.7099 -0.6435
 6540TIP3    H141111   6.741   4.143  11.711  0.6919 -0.8361 -1.3495
 6540TIP3    H241112   6.682   4.134  11.572 -0.5290 -1.5484 -0.8008
 6541TIP3   OH241113   2.011   3.604   0.500 -0.1244 -0.2976 -0.0741
 6541TIP3    H141114   2.014   3.610   0.595 -0.5290  1.6378 -0.1409
 6541TIP3    H241115   2.022   3.511   0.481  1.4464 -0.5447  1.7843
 6542TIP3   OH241116   2.731   0.419  14.024  0.5737  0.0366  0.3748
 6542TIP3    H141117   2.794   0.351  14.046 -0.7658 -1.8910 -1.4215
 6542TIP3    H241118   2.741   0.432  13.930 -1.0464  0.3307  0.2104
 6543TIP3   OH241119   3.792   1.427  13.096 -0.0110 -0.2916 -0.1005
 6543TIP3    H141120   3.858   1.400  13.159 -0.2136 -0.9969 -0.1879
 6543TIP3    H241121   3.709   1.420  13.143 -0.3055 -2.0903 -0.8153
 6544TIP3   OH241122   2.890   0.156   2.683  1.0874 -0.1813  0.3547
 6544TIP3    H141123   2.961   0.183   2.625  0.0715 -0.2988 -1.0000
 6544TIP3    H241124   2.934   0.126   2.762  2.4357  2.5018  0.7572
 6545TIP3   OH241125   5.669   6.367   2.027 -0.0721 -0.1485 -0.3236
 6545TIP3    H141126   5.637   6.388   2.115 -1.1570  2.0732 -1.1506
 6545TIP3    H241127   5.761   6.345   2.039  0.1221  1.3013  1.2528
 6546TIP3   OH241128   6.536   3.367  17.171  0.3398 -0.1590 -0.0368
 6546TIP3    H141129   6.472   3.355  17.100  0.2242 -1.0562  0.2095
 6546TIP3    H241130   6.516   3.453  17.207 -0.0614  0.0035 -0.6386
 6547TIP3   OH241131   2.035   6.195   0.215  0.0961 -0.4557 -0.0874
 6547TIP3    H141132   2.075   6.198   0.301  0.1968 -0.3502 -0.1378
 6547TIP3    H241133   2.025   6.101   0.196  1.0435 -0.5027 -0.4080
 6548TIP3   OH241134   0.791   3.088  12.359 -0.2810 -0.1102 -0.0542
 6548TIP3    H141135   0.740   3.133  12.426 -0.5884  1.4304 -1.2692
 6548TIP3    H241136   0.806   3.154  12.291  0.4683 -1.4617 -1.2698
 6549TIP3   OH241137   6.781   1.980   0.279 -0.1641  0.1028 -0.3436
 6549TIP3    H141138   6.858   2.033   0.259 -0.8962  0.8665 -1.2171
 6549TIP3    H241139   6.817   1.900   0.317  1.0106  0.8018  0.0721
 6550TIP3   OH241140   3.101   6.398  15.363  0.1616  0.2204 -0.2053
 6550TIP3    H141141   3.050   6.421  15.285 -0.3979  1.6693  0.5517
 6550TIP3    H241142   3.154   6.475  15.381  0.2369 -0.0669  0.8797
 6551TIP3   OH241143   1.066   5.177   2.379 -0.0896 -0.7006  0.8856
 6551TIP3    H141144   1.098   5.129   2.455 -0.0376 -1.3420  0.4649
 6551TIP3    H241145   0.996   5.232   2.413  1.3274  0.6296  1.8177
 6552TIP3   OH241146   5.759   4.311  14.304 -0.3282 -0.1650  0.0580
 6552TIP3    H141147   5.770   4.287  14.396 -0.4943  2.5068  0.8623
 6552TIP3    H241148   5.681   4.367  14.303  0.5407  1.1024 -1.4116
 6553TIP3   OH241149   5.177   0.926  11.757 -0.6525  0.2282  0.2608
 6553TIP3    H141150   5.153   1.017  11.769  0.2145  0.4916  0.1004
 6553TIP3    H241151   5.212   0.898  11.842  1.6512  0.8797 -0.4161
 6554TIP3   OH241152   5.843   3.869   5.015 -0.1453 -0.3248  0.0843
 6554TIP3    H141153   5.779   3.933   5.044  1.0699  0.7524  0.4865
 6554TIP3    H241154   5.907   3.921   4.965  1.0842 -1.1310  0.7697
 6555TIP3   OH241155   0.992   4.774   0.841  0.4778 -0.3835  0.6391
 6555TIP3    H141156   0.989   4.698   0.783  0.2004 -0.8445  1.2361
 6555TIP3    H241157   0.916   4.763   0.899 -0.8106  1.4583 -0.5875
 6556TIP3   OH241158   2.089   3.030  14.896  0.2818  0.2258  0.9823
 6556TIP3    H141159   2.113   2.977  14.820 -3.2623 -1.3854  0.7570
 6556TIP3    H241160   2.053   2.967  14.958  2.9789  1.5122  4.1215
 6557TIP3   OH241161   3.298   0.761  12.081 -0.4679 -0.2823  0.4100
 6557TIP3    H141162   3.319   0.808  12.000  2.3018  0.4279  1.4409
 6557TIP3    H241163   3.306   0.668  12.056  0.3936 -0.0735 -0.1502
 6558TIP3   OH241164   6.509   3.841   4.513  0.2810  0.4269 -0.5333
 6558TIP3    H141165   6.491   3.934   4.526 -0.0374  0.3821 -0.6535
 6558TIP3    H241166   6.588   3.825   4.565 -0.7452  0.3288  1.0815
 6559TIP3   OH241167   2.672   1.177   3.930  0.1027  0.3567  0.3468
 6559TIP3    H141168   2.638   1.144   4.013  0.7246  2.2247  1.4042
 6559TIP3    H241169   2.600   1.229   3.894  0.1604  0.3265  0.1868
 6560TIP3   OH241170   1.548   3.709  17.082  0.0183  0.0454 -0.3916
 6560TIP3    H141171   1.545   3.803  17.065  0.4160  0.6327  2.3891
 6560TIP3    H241172   1.461   3.677  17.058 -0.1511  1.1099 -1.2643
 6561TIP3   OH241173   6.620   0.112   1.443  0.2418  0.6156  1.0137
 6561TIP3    H141174   6.600   0.068   1.526  2.6923  1.6206  2.2609
 6561TIP3    H241175   6.714   0.097   1.431  0.3918  2.3971 -0.4196
 6562TIP3   OH241176   0.681   2.125  11.809 -0.0147 -0.2551  0.6111
 6562TIP3    H141177   0.718   2.160  11.890  0.9998 -0.0143  0.0564
 6562TIP3    H241178   0.623   2.054  11.838 -1.1398  1.0339  1.6743
 6563TIP3   OH241179   6.200   5.595  13.371 -0.1966  0.3675 -0.1250
 6563TIP3    H141180   6.195   5.684  13.337  0.5515  0.9833  1.2921
 6563TIP3    H241181   6.291   5.585  13.399 -0.2522 -0.8741 -0.3544
 6564TIP3   OH241182   5.251   1.003  12.005 -0.3601 -0.3362 -0.0947
 6564TIP3    H141183   5.302   1.074  11.965 -1.4242  0.7059  0.3165
 6564TIP3    H241184   5.316   0.945  12.044  0.5587  0.2106 -0.7789
 6565TIP3   OH241185   6.447   3.693   0.364 -0.1258  0.5313  0.3033
 6565TIP3    H141186   6.470   3.705   0.456 -1.4056 -0.1815  0.7460
 6565TIP3    H241187   6.400   3.773   0.341  2.7354  2.0802 -0.6605
 6566TIP3   OH241188   2.958   0.263  11.261  0.3070  0.0561 -0.0826
 6566TIP3    H141189   2.925   0.256  11.171 -1.3481  1.7861  0.2990
 6566TIP3    H241190   3.052   0.246  11.254 -0.2703 -3.3232 -1.5574
 6567TIP3   OH241191   0.726   0.210   2.653 -0.0293 -0.5761 -0.0843
 6567TIP3    H141192   0.671   0.158   2.711 -0.0220  1.6886  2.1399
 6567TIP3    H241193   0.775   0.146   2.602 -1.1625 -2.7017  1.3442
 6568TIP3   OH241194   1.620   6.551   6.423 -0.1571 -0.2312  0.2017
 6568TIP3    H141195   1.701   6.598   6.442  0.0574  0.1217 -1.4226
 6568TIP3    H241196   1.558   6.580   6.490 -0.2625  2.9737 -1.1353
 6569TIP3   OH241197   3.276   1.604  12.922  0.1834 -0.4679 -0.4477
 6569TIP3    H141198   3.246   1.653  12.999  0.0901  0.5667 -1.1141
 6569TIP3    H241199   3.206   1.541  12.905 -0.0177 -0.3822  0.0322
 6570TIP3   OH241200   2.214   6.088   1.910  0.3262  0.1160  0.1582
 6570TIP3    H141201   2.173   6.157   1.859 -0.4384 -0.9784 -0.7245
 6570TIP3    H241202   2.283   6.054   1.854  1.6611  1.0708  1.1365
 6571TIP3   OH241203   6.064   1.236  14.366 -0.3126 -0.0403  0.3686
 6571TIP3    H141204   6.060   1.140  14.374  1.6282 -0.4405 -2.0257
 6571TIP3    H241205   6.061   1.251  14.271 -2.1404  2.4154  0.7569
 6572TIP3   OH241206   4.985   1.774  13.650 -0.0771  0.4390  0.1153
 6572TIP3    H141207   5.080   1.762  13.653 -0.0648  0.6250  0.5670
 6572TIP3    H241208   4.967   1.842  13.716 -0.4666  0.7651 -0.3193
 6573TIP3   OH241209   2.657   1.909   3.882 -0.0432  0.4049 -0.0415
 6573TIP3    H141210   2.716   1.834   3.889 -1.7818 -0.9461  1.2450
 6573TIP3    H241211   2.687   1.970   3.949 -1.1104 -1.0784  1.8839
 6574TIP3   OH241212   1.550   0.167  12.870 -0.1448 -0.6811 -0.0517
 6574TIP3    H141213   1.592   0.088  12.836 -0.1544  0.0680 -1.9359
 6574TIP3    H241214   1.534   0.221  12.792 -0.6620  0.9297  1.1170
 6575TIP3   OH241215   4.808   4.808  14.902  0.0692 -0.2122 -0.5227
 6575TIP3    H141216   4.838   4.717  14.903 -0.6471 -0.4772 -1.2952
 6575TIP3    H241217   4.737   4.808  14.837 -0.4213  0.7438  0.0014
 6576TIP3   OH241218   5.538   6.709  12.104  0.4225  0.1593 -0.1163
 6576TIP3    H141219   5.528   6.619  12.136  0.5611  0.0411 -0.4094
 6576TIP3    H241220   5.453   6.750  12.123  0.9890  0.5564  1.8635
 6577TIP3   OH241221   1.970   5.431   4.560 -0.2914 -0.0431 -0.4055
 6577TIP3    H141222   2.011   5.517   4.551  1.3740 -0.8801 -1.4734
 6577TIP3    H241223   2.014   5.392   4.635 -0.8309 -0.0714 -0.1047
 6578TIP3   OH241224   6.750   2.811  15.100 -0.2790  0.1427 -0.4734
 6578TIP3    H141225   6.677   2.762  15.139  0.3885  1.1096  2.1852
 6578TIP3    H241226   6.820   2.746  15.091  0.3735  0.3323  2.3910
 6579TIP3   OH241227   5.637   4.152  16.224 -0.0719  0.8255 -0.0294
 6579TIP3    H141228   5.676   4.108  16.299  0.7935  0.4526 -0.6697
 6579TIP3    H241229   5.711   4.197  16.182 -0.2860  0.0523 -1.3167
 6580TIP3   OH241230   3.453   5.233   1.213  0.2996  0.2983  0.6434
 6580TIP3    H141231   3.539   5.199   1.238  0.0740 -1.1909 -0.4923
 6580TIP3    H241232   3.399   5.219   1.291  0.5865 -0.6627  0.6917
 6581TIP3   OH241233   1.814   5.934  16.454  0.5697 -0.2030  0.2903
 6581TIP3    H141234   1.821   5.839  16.443  0.0118 -0.3208  0.8494
 6581TIP3    H241235   1.742   5.945  16.516 -0.4020  0.6511 -0.9516
 6582TIP3   OH241236   2.376   6.378  11.764  0.1964 -0.3523 -0.2512
 6582TIP3    H141237   2.303   6.324  11.734 -1.1393  1.3390 -0.2237
 6582TIP3    H241238   2.434   6.385  11.688 -0.5807 -0.2760 -0.8500
 6583TIP3   OH241239   5.048   2.671  14.860  0.1575  0.1671  0.1938
 6583TIP3    H141240   5.065   2.590  14.812  0.3529  0.0245  0.5042
 6583TIP3    H241241   4.966   2.654  14.908  0.3779  0.0323  0.5242
 6584TIP3   OH241242   5.192   4.061   2.560 -0.3831 -0.5907  0.0069
 6584TIP3    H141243   5.245   4.125   2.511 -2.7552  1.2462 -0.3230
 6584TIP3    H241244   5.235   4.055   2.645  1.2779 -0.4297 -0.7746
 6585TIP3   OH241245   6.147   1.164   2.994 -0.3485  0.2187 -0.5714
 6585TIP3    H141246   6.208   1.197   3.059 -0.3205  0.1763 -0.5767
 6585TIP3    H241247   6.062   1.165   3.038  0.0108 -2.0779  0.2703
 6586TIP3   OH241248   5.638   0.966  14.610  0.1610  0.0479  0.1336
 6586TIP3    H141249   5.604   0.877  14.597 -1.5749  0.6655  0.1343
 6586TIP3    H241250   5.619   0.985  14.702  1.6654 -0.0176  0.4740
 6587TIP3   OH241251   4.266   4.446  15.813 -0.3780 -0.0164 -0.4181
 6587TIP3    H141252   4.284   4.390  15.888  1.0246  2.4396  1.2377
 6587TIP3    H241253   4.274   4.388  15.737  0.5837 -2.1060  1.1671
 6588TIP3   OH241254   1.714   2.903   5.826 -0.5337 -0.4815 -0.3560
 6588TIP3    H141255   1.765   2.854   5.761 -0.5446 -0.0748 -0.6718
 6588TIP3    H241256   1.684   2.836   5.888 -0.7715 -0.9135 -0.9277
 6589TIP3   OH241257   3.638   5.070  14.252  0.5582  0.4096  0.3030
 6589TIP3    H141258   3.577   5.142  14.267 -1.3696 -0.4374 -2.5483
 6589TIP3    H241259   3.724   5.107  14.269 -0.5378  1.4461  5.4393
 6590TIP3   OH241260   6.065   2.120  14.203  0.3699  0.2720 -0.5239
 6590TIP3    H141261   6.137   2.166  14.160  0.2660 -0.6527 -1.7503
 6590TIP3    H241262   6.053   2.041  14.150 -2.7819  1.2699 -1.5140
 6591TIP3   OH241263   2.429   3.461  15.826  0.4574 -0.1684 -0.4343
 6591TIP3    H141264   2.480   3.542  15.814  0.0468  0.0733 -0.5641
 6591TIP3    H241265   2.458   3.428  15.911 -0.5246  0.9737  0.3717
 6592TIP3   OH241266   5.884   4.605  12.469  0.1668  0.1211 -0.8763
 6592TIP3    H141267   5.819   4.535  12.467 -2.1568  2.1529 -1.8981
 6592TIP3    H241268   5.907   4.614  12.561 -0.5099 -1.0715 -0.5758
 6593TIP3   OH241269   5.631   0.375   3.423 -0.0266 -0.0114 -0.3830
 6593TIP3    H141270   5.586   0.459   3.406  1.8038  1.4222  1.4386
 6593TIP3    H241271   5.713   0.382   3.373  1.1767  0.3219  1.5596
 6594TIP3   OH241272   2.970   5.078  11.056  0.3845  0.0849 -0.2025
 6594TIP3    H141273   3.040   5.019  11.085 -1.0638 -2.0378 -0.7709
 6594TIP3    H241274   2.905   5.074  11.126  0.5121  1.5104  0.0147
 6595TIP3   OH241275   1.539   5.960  14.889  0.7563  0.3185 -0.6241
 6595TIP3    H141276   1.513   5.938  14.799 -0.0093  0.0923 -0.3556
 6595TIP3    H241277   1.585   5.882  14.920 -1.1495 -0.6175  0.0113
 6596TIP3   OH241278   5.646   5.609   2.071 -0.0019  0.0992 -0.0488
 6596TIP3    H141279   5.550   5.609   2.074 -0.0928 -1.5061 -1.5170
 6596TIP3    H241280   5.667   5.655   1.990  0.5651  1.7935  1.0136
 6597TIP3   OH241281   5.951   4.560   0.501  0.0762 -0.1326 -0.4273
 6597TIP3    H141282   5.910   4.502   0.565  0.6038  0.8972  0.8913
 6597TIP3    H241283   5.987   4.632   0.553  3.6060 -0.9482 -1.4491
 6598TIP3   OH241284   3.443   2.622  15.837 -0.4429 -0.5945  0.4641
 6598TIP3    H141285   3.492   2.600  15.916  0.7193 -0.2925 -0.1574
 6598TIP3    H241286   3.473   2.559  15.771 -0.2428  0.1296 -0.1570
 6599TIP3   OH241287   2.029   5.673  14.876 -0.1140  0.3221  0.1018
 6599TIP3    H141288   2.067   5.587  14.861  0.0214  0.5683 -1.1056
 6599TIP3    H241289   2.063   5.727  14.804 -0.8521  1.1636  0.3601
 6600TIP3   OH241290   5.113   3.675   5.122  0.3354  0.2833  0.4788
 6600TIP3    H141291   5.137   3.583   5.107 -0.7873  0.0898 -0.2384
 6600TIP3    H241292   5.098   3.711   5.035  0.9065  1.1999  0.7443
 6601TIP3   OH241293   6.814   2.552  11.459  0.3168  0.4447 -0.7405
 6601TIP3    H141294   6.744   2.487  11.451  0.7988 -0.0360 -1.0304
 6601TIP3    H241295   6.787   2.624  11.401 -0.2598  0.5521 -0.3496
 6602TIP3   OH241296   0.115   6.179  16.505  0.3231 -0.8374  0.2212
 6602TIP3    H141297   0.080   6.127  16.578  0.2156  0.1831  0.9150
 6602TIP3    H241298   0.099   6.125  16.428 -0.0803 -1.6948  0.8801
 6603TIP3   OH241299   0.070   6.828   2.935 -0.1750 -0.3507  0.4116
 6603TIP3    H141300   0.018   6.757   2.974 -2.0125 -0.1805 -1.5436
 6603TIP3    H241301   0.056   6.902   2.994  0.8896 -1.2623  1.8835
 6604TIP3   OH241302   2.212   2.918  11.251 -0.3587  0.2486  0.0905
 6604TIP3    H141303   2.199   2.989  11.189 -0.8511  0.1484  0.0742
 6604TIP3    H241304   2.211   2.839  11.197  0.2397  0.2308  0.1016
 6605TIP3   OH241305   1.471   0.843   5.545 -0.2943  0.3970  1.0883
 6605TIP3    H141306   1.479   0.750   5.567  1.8262  0.6873  1.7827
 6605TIP3    H241307   1.495   0.889   5.626  0.7087  1.5324  0.1797
 6606TIP3   OH241308   0.170   3.916   0.043 -0.0817 -0.2138 -0.2336
 6606TIP3    H141309   0.172   3.860   0.120 -0.1805  0.2325  0.0944
 6606TIP3    H241310   0.110   3.987   0.065  0.6984  0.4882 -0.3196
 6607TIP3   OH241311   6.592   0.765  15.401  0.5985  0.3955 -0.2408
 6607TIP3    H141312   6.592   0.675  15.432 -0.2846  0.3802 -0.2549
 6607TIP3    H241313   6.661   0.768  15.336  2.7172  0.4959  1.8690
 6608TIP3   OH241314   4.359   3.213   2.201 -0.6987 -0.0969 -0.1002
 6608TIP3    H141315   4.416   3.139   2.224 -0.6918  0.3801  1.6163
 6608TIP3    H241316   4.272   3.186   2.230 -1.1710 -0.3571 -1.6641
 6609TIP3   OH241317   4.656   5.411   3.535 -0.4701  0.0014  0.9327
 6609TIP3    H141318   4.653   5.360   3.616  0.5355 -1.1510  0.2775
 6609TIP3    H241319   4.609   5.358   3.471  1.6212 -0.7492 -0.0631
 6610TIP3   OH241320   3.799   1.837  14.863  0.1647  0.8786 -0.0107
 6610TIP3    H141321   3.890   1.819  14.885  0.0297 -0.5252 -0.5082
 6610TIP3    H241322   3.796   1.840  14.768 -0.4603 -0.0783 -0.0394
 6611TIP3   OH241323   3.742   4.616   2.043  0.5337 -0.4096  0.2016
 6611TIP3    H141324   3.813   4.671   2.011  1.6005 -2.8063 -1.8345
 6611TIP3    H241325   3.691   4.593   1.965 -0.2384 -1.7977  1.0659
 6612TIP3   OH241326   4.478   5.648  11.228 -0.3279 -0.3168  0.3984
 6612TIP3    H141327   4.499   5.729  11.181 -1.0053 -0.5695 -0.3713
 6612TIP3    H241328   4.558   5.596  11.224 -0.1480 -0.0289  0.1738
 6613TIP3   OH241329   2.495   0.127  13.961 -0.7164 -0.0307  0.6241
 6613TIP3    H141330   2.528   0.171  13.883  1.5494 -0.7865  1.0810
 6613TIP3    H241331   2.418   0.079  13.930  0.8935 -1.4163 -1.5300
 6614TIP3   OH241332   5.888   4.511  11.334  0.8176  0.1418 -0.0984
 6614TIP3    H141333   5.850   4.592  11.369  0.2611 -0.7084  1.3762
 6614TIP3    H241334   5.863   4.511  11.242  0.3626  1.3770  0.0003
 6615TIP3   OH241335   2.066   6.456   1.273 -0.4800  0.3434 -0.1319
 6615TIP3    H141336   2.128   6.528   1.270 -2.4392  2.1023 -0.6143
 6615TIP3    H241337   2.089   6.400   1.199  1.7702 -0.2204  0.9117
 6616TIP3   OH241338   4.374   3.601   3.551 -0.1130  0.2039  0.2228
 6616TIP3    H141339   4.354   3.515   3.514 -0.1992  0.8636 -1.3612
 6616TIP3    H241340   4.296   3.625   3.601 -0.7032 -0.0111 -0.5664
 6617TIP3   OH241341   2.029   2.808  16.854  0.4740  0.0345  0.0920
 6617TIP3    H141342   2.019   2.723  16.811  0.3034 -0.0226  0.2453
 6617TIP3    H241343   2.076   2.788  16.936  0.3690  0.0782  0.1635
 6618TIP3   OH241344   1.740   0.651   4.875 -0.3924  0.0583  0.0009
 6618TIP3    H141345   1.795   0.649   4.797 -0.4193  0.7082 -0.0351
 6618TIP3    H241346   1.784   0.711   4.934 -1.7179  1.6140 -0.5263
 6619TIP3   OH241347   1.526   4.411  15.647 -0.2770 -0.5335  0.0760
 6619TIP3    H141348   1.586   4.439  15.716  0.3439  0.4457 -0.8228
 6619TIP3    H241349   1.514   4.489  15.593  1.6893 -1.9935 -2.6728
 6620TIP3   OH241350   4.945   0.374  15.150  0.3528 -0.3629 -0.2025
 6620TIP3    H141351   5.007   0.341  15.086 -0.2710 -0.8167 -0.5780
 6620TIP3    H241352   4.998   0.394  15.227  0.8672 -1.4080 -0.2773
 6621TIP3   OH241353   1.691   2.643   3.751 -0.6967 -0.2192  0.0180
 6621TIP3    H141354   1.667   2.725   3.708  1.1289  1.0490  1.2013
 6621TIP3    H241355   1.753   2.602   3.691 -1.1848 -0.4483 -0.3290
 6622TIP3   OH241356   2.065   5.505  16.516 -0.4406  0.0982 -0.2055
 6622TIP3    H141357   2.102   5.423  16.549 -0.8852 -0.2612 -0.5780
 6622TIP3    H241358   2.076   5.567  16.588  0.3290 -0.1556 -0.0874
 6623TIP3   OH241359   4.871   3.875  13.413 -0.1840 -0.7629  0.3000
 6623TIP3    H141360   4.941   3.940  13.404 -0.2239 -0.8004 -0.3860
 6623TIP3    H241361   4.824   3.901  13.492 -0.5480  0.4101 -0.2661
 6624TIP3   OH241362   0.674   0.014   5.126 -0.0648  0.2321  0.1820
 6624TIP3    H141363   0.751   0.071   5.130  0.4576 -0.5457  1.9664
 6624TIP3    H241364   0.605   0.063   5.169  0.2692 -0.2731  1.3256
 6625TIP3   OH241365   6.837   0.791  11.015  0.8018 -0.8526  0.4059
 6625TIP3    H141366   6.930   0.802  10.997  1.1823 -0.3930  2.4783
 6625TIP3    H241367   6.830   0.790  11.110 -1.3177 -0.9613  0.3051
 6626TIP3   OH241368   4.910   5.761  12.528  0.1439  0.4068 -0.2177
 6626TIP3    H141369   4.912   5.816  12.607 -2.0369  0.5578 -0.1909
 6626TIP3    H241370   4.913   5.823  12.455 -0.3727  0.4498 -0.2073
 6627TIP3   OH241371   6.654   6.381   0.042 -0.3833 -0.4515 -0.4529
 6627TIP3    H141372   6.578   6.440   0.045 -1.1773 -1.3909 -1.1113
 6627TIP3    H241373   6.679   6.369   0.133 -0.7397  0.2323 -0.2565
 6628TIP3   OH241374   3.563   2.142   2.437  0.2374 -0.3407  0.0903
 6628TIP3    H141375   3.576   2.091   2.517  1.4082 -1.0816 -0.5434
 6628TIP3    H241376   3.638   2.202   2.434 -0.2234  0.2347 -0.0492
 6629TIP3   OH241377   5.474   2.056   4.924  1.1783  0.7314 -0.0203
 6629TIP3    H141378   5.416   2.043   4.848 -0.3684  1.7415  0.9305
 6629TIP3    H241379   5.522   2.137   4.903  0.3622  1.3084  0.2854
 6630TIP3   OH241380   3.277   1.977  15.470 -0.3412  0.1947  0.3897
 6630TIP3    H141381   3.232   2.020  15.397 -1.5210  1.9334  2.0449
 6630TIP3    H241382   3.333   2.045  15.507  2.1072 -1.3159 -0.2603
 6631TIP3   OH241383   6.142   4.124   3.671  0.1904 -0.2411 -0.2427
 6631TIP3    H141384   6.165   4.151   3.582 -2.1028 -0.0276 -0.8382
 6631TIP3    H241385   6.172   4.033   3.677 -1.2628 -0.9005 -1.9643
 6632TIP3   OH241386   3.955   1.262  14.842  0.1604  0.0120  0.1660
 6632TIP3    H141387   3.973   1.309  14.761 -0.9903  0.4557  0.1530
 6632TIP3    H241388   3.975   1.171  14.822  1.5058  0.3413 -0.0930
 6633TIP3   OH241389   1.890   4.905   5.951 -0.1799 -0.3516  0.9556
 6633TIP3    H141390   1.892   4.856   6.033  0.0635 -2.2738 -0.1484
 6633TIP3    H241391   1.897   4.839   5.882  3.1648  1.3736 -0.6283
 6634TIP3   OH241392   1.768   5.022  10.883 -0.3941  0.3608  0.0188
 6634TIP3    H141393   1.771   5.010  10.788 -1.3868  1.3264 -0.1515
 6634TIP3    H241394   1.824   5.098  10.899 -0.3765  0.3147  0.1781
 6635TIP3   OH241395   1.885   2.762  13.096 -0.5906 -0.7011 -0.5919
 6635TIP3    H141396   1.937   2.786  13.019 -0.7648 -0.6566 -0.6956
 6635TIP3    H241397   1.950   2.746  13.164 -0.3815 -1.5138 -0.9587
 6636TIP3   OH241398   2.064   1.246   3.733 -0.0718 -0.3925 -0.4425
 6636TIP3    H141399   2.079   1.318   3.673  1.4354 -0.9114 -0.7243
 6636TIP3    H241400   2.097   1.277   3.817 -0.1522 -0.4755 -0.3792
 6637TIP3   OH241401   3.469   4.699  11.825 -0.1599  0.0816 -0.3142
 6637TIP3    H141402   3.482   4.606  11.806  0.3418  0.1071 -0.1228
 6637TIP3    H241403   3.555   4.728  11.856 -0.3483  0.5817 -0.2666
 6638TIP3   OH241404   4.117   3.036   3.339  0.2182 -0.2060  0.4851
 6638TIP3    H141405   4.205   3.072   3.346  0.5335 -0.6638 -0.7710
 6638TIP3    H241406   4.122   2.950   3.382  0.8135 -0.8777 -0.8399
 6639TIP3   OH241407   2.101   1.822  13.488  0.2848  0.6448 -0.4281
 6639TIP3    H141408   2.012   1.794  13.467 -0.1657  0.3886  1.5613
 6639TIP3    H241409   2.117   1.896  13.430 -0.8574  0.0893 -1.4940
 6640TIP3   OH241410   5.300   4.988  11.840  0.0280 -0.2566 -0.4254
 6640TIP3    H141411   5.375   4.937  11.871 -0.8459 -0.4075  1.6251
 6640TIP3    H241412   5.313   4.995  11.745  1.6967 -1.7747 -0.3643
 6641TIP3   OH241413   1.961   3.212  12.503 -0.3542 -0.1335  0.5569
 6641TIP3    H141414   2.011   3.267  12.563  1.1344 -0.2793 -0.5019
 6641TIP3    H241415   1.912   3.274  12.449  0.9370  0.1821 -0.3020
 6642TIP3   OH241416   5.018   3.608   2.471  0.2052 -0.3704 -0.0807
 6642TIP3    H141417   5.074   3.575   2.401 -0.7999 -1.2716 -0.4873
 6642TIP3    H241418   5.059   3.574   2.552  1.4608  0.8117 -0.1797
 6643TIP3   OH241419   2.966   5.858  11.903  0.4056  0.0533  0.3679
 6643TIP3    H141420   2.944   5.767  11.886  0.6545 -0.2331  1.5058
 6643TIP3    H241421   2.942   5.904  11.822  1.7909 -1.2384 -0.8206
 6644TIP3   OH241422   2.607   6.630  10.859 -0.1208  0.7958 -0.2484
 6644TIP3    H141423   2.602   6.617  10.765  1.2057  1.2073 -0.4002
 6644TIP3    H241424   2.516   6.637  10.888 -0.7042 -2.3530 -1.0187
 6645TIP3   OH241425   3.116   0.063   5.922  0.3623  0.2674 -0.2973
 6645TIP3    H141426   3.091   0.155   5.908  2.4624  0.8522 -0.6391
 6645TIP3    H241427   3.034   0.019   5.942 -0.7840  2.1345 -0.5612
 6646TIP3   OH241428   4.418   4.459  11.781  0.3665 -0.0040 -0.1478
 6646TIP3    H141429   4.389   4.440  11.692  1.4107 -0.5592 -0.3865
 6646TIP3    H241430   4.476   4.386  11.804 -0.4905 -0.2712  1.2880
 6647TIP3   OH241431   4.862   3.467  13.041 -0.1621 -0.4138 -0.1762
 6647TIP3    H141432   4.826   3.442  12.955  0.4835 -3.0946  0.2289
 6647TIP3    H241433   4.786   3.488  13.094 -0.7706 -1.2160 -0.7128
 6648TIP3   OH241434   5.433   1.808   6.449 -0.2934  0.3061  0.0582
 6648TIP3    H141435   5.513   1.843   6.410 -0.5394  0.6149 -0.1711
 6648TIP3    H241436   5.461   1.770   6.533  0.1947 -0.1425 -0.3035
 6649TIP3   OH241437   4.881   1.839   2.397 -0.6364 -0.3175 -0.4975
 6649TIP3    H141438   4.900   1.849   2.491 -2.3273  0.1362 -0.1559
 6649TIP3    H241439   4.876   1.745   2.383  0.1842 -0.4030 -0.2677
 6650TIP3   OH241440   4.971   2.163   2.763  0.0803 -0.3150  0.1458
 6650TIP3    H141441   5.051   2.111   2.762  0.7849  0.7373 -0.9765
 6650TIP3    H241442   4.968   2.204   2.676 -1.8113 -0.5301  0.0620
 6651TIP3   OH241443   0.603   1.822  13.216 -0.0639 -0.3948 -0.6103
 6651TIP3    H141444   0.542   1.843  13.145  0.2299  0.8742 -0.5106
 6651TIP3    H241445   0.564   1.746  13.259 -0.7382 -0.5956 -1.5362
 6652TIP3   OH241446   5.151   5.540   3.003 -0.4168 -0.0424 -0.0038
 6652TIP3    H141447   5.203   5.470   3.042  0.9877  0.6333 -0.5700
 6652TIP3    H241448   5.152   5.610   3.068 -0.7367 -0.0818  0.0437
 6653TIP3   OH241449   0.452   0.992  14.864 -0.1439 -0.1134 -0.6650
 6653TIP3    H141450   0.378   1.045  14.833 -0.0412 -0.4134 -1.4478
 6653TIP3    H241451   0.420   0.901  14.858  0.1646 -0.2211 -0.6814
 6654TIP3   OH241452   1.364   3.389  13.002  0.2907 -0.1483 -0.0227
 6654TIP3    H141453   1.302   3.354  13.065  0.1805 -2.4111 -1.2956
 6654TIP3    H241454   1.445   3.401  13.052 -0.1992 -0.5045  0.8708
 6655TIP3   OH241455   0.700   5.336  16.971  0.0555 -0.2649  0.0512
 6655TIP3    H141456   0.721   5.339  17.064  0.5052  2.6043 -0.0390
 6655TIP3    H241457   0.781   5.305  16.929 -0.3641 -2.2293  0.6050
 6656TIP3   OH241458   4.884   1.642  16.691 -0.1213  0.3853  0.0436
 6656TIP3    H141459   4.820   1.701  16.650 -0.4275  0.2561  0.3351
 6656TIP3    H241460   4.836   1.600  16.762 -0.2087 -0.9769 -0.7784
 6657TIP3   OH241461   5.335   2.270  13.993 -0.3331  0.0415  0.2749
 6657TIP3    H141462   5.372   2.355  14.017 -0.6516  0.1013  0.5538
 6657TIP3    H241463   5.394   2.206  14.032  1.8146  0.0468 -2.6243
 6658TIP3   OH241464   0.625   5.912  13.475 -0.1875 -0.0218 -0.0110
 6658TIP3    H141465   0.563   5.875  13.413  1.7938 -0.2357 -1.9844
 6658TIP3    H241466   0.580   5.906  13.560 -4.6871  3.9029 -1.7048
 6659TIP3   OH241467   0.417   4.973  13.920  0.2368  0.4630 -0.5115
 6659TIP3    H141468   0.363   4.937  13.991 -0.3680  1.4138 -0.4733
 6659TIP3    H241469   0.505   4.941  13.939  0.2441  1.3375  1.1409
 6660TIP3   OH241470   6.042   2.869   4.083 -0.2051 -0.1505  0.3454
 6660TIP3    H141471   6.033   2.840   3.993 -1.3991  0.3600  0.2838
 6660TIP3    H241472   6.089   2.798   4.127  0.9641 -0.1161 -0.7997
 6661TIP3   OH241473   0.719   4.077  14.616 -0.2801  0.0557 -0.5228
 6661TIP3    H141474   0.694   4.163  14.581 -0.1266  0.0727 -0.5931
 6661TIP3    H241475   0.766   4.097  14.698 -1.5215 -0.0275  0.2306
 6662TIP3   OH241476   2.640   6.555  15.628 -0.6277  0.4752 -0.5362
 6662TIP3    H141477   2.640   6.459  15.630  0.5668  0.4559  0.0393
 6662TIP3    H241478   2.704   6.577  15.560  1.6444  0.7948  1.5733
 6663TIP3   OH241479   3.376   1.635   1.945  0.0696 -0.1765  0.1339
 6663TIP3    H141480   3.419   1.628   2.030  0.6293  0.3882 -0.0909
 6663TIP3    H241481   3.285   1.655   1.966  0.1856 -0.1269  0.6055
 6664TIP3   OH241482   0.093   5.488   3.750 -0.1593  0.0342 -0.5043
 6664TIP3    H141483   0.172   5.533   3.721 -0.4592  0.2713 -0.9675
 6664TIP3    H241484   0.121   5.438   3.826  0.3402  0.4595 -0.3967
 6665TIP3   OH241485   3.598   2.781   1.246 -0.2149 -0.6753  0.0211
 6665TIP3    H141486   3.516   2.764   1.292 -0.0587 -1.7377 -0.0683
 6665TIP3    H241487   3.656   2.711   1.274 -0.4871 -2.1386 -2.7046
 6666TIP3   OH241488   2.247   0.537   5.505  0.7685 -0.0896 -0.0267
 6666TIP3    H141489   2.153   0.541   5.489  1.0550 -2.2456 -2.7546
 6666TIP3    H241490   2.264   0.611   5.564 -2.5803  0.3810  0.5171
 6667TIP3   OH241491   0.202   0.301  13.126 -0.3732 -0.1338 -0.3776
 6667TIP3    H141492   0.228   0.329  13.038  0.4221 -1.8106 -0.7155
 6667TIP3    H241493   0.154   0.220  13.112  1.7939 -1.7258  0.8503
 6668TIP3   OH241494   1.451   5.858  13.133 -0.5591  0.3003  0.2768
 6668TIP3    H141495   1.372   5.805  13.120  0.0944 -0.2641 -1.8047
 6668TIP3    H241496   1.522   5.804  13.096  0.6814  1.1346  1.3748
 6669TIP3   OH241497   4.186   2.531  15.363  0.1097 -0.4480 -0.3354
 6669TIP3    H141498   4.249   2.599  15.387  0.0250  0.1474 -1.6719
 6669TIP3    H241499   4.143   2.507  15.445 -0.2563  1.5361  0.1123
 6670TIP3   OH241500   1.199   1.417   2.101 -0.1913 -0.0800  0.6495
 6670TIP3    H141501   1.229   1.494   2.053  0.8297 -1.5655 -1.2050
 6670TIP3    H241502   1.236   1.429   2.189  1.0587  0.9086  0.0333
 6671TIP3   OH241503   3.232   2.744   5.030 -0.2545  0.0737  0.5245
 6671TIP3    H141504   3.145   2.761   4.995  0.5367  1.1604 -1.0682
 6671TIP3    H241505   3.255   2.657   4.997 -1.2417 -0.7982  2.0803
 6672TIP3   OH241506   5.053   5.583  16.811  0.1942 -0.5598  0.5431
 6672TIP3    H141507   5.119   5.647  16.835  1.1769 -0.7359 -1.5149
 6672TIP3    H241508   4.970   5.632  16.812  0.9191  0.7924 -0.9961
 6673TIP3   OH241509   6.731   2.055   4.740 -0.5249  0.0424 -0.2065
 6673TIP3    H141510   6.718   2.109   4.818 -1.0380 -0.5475  0.1301
 6673TIP3    H241511   6.657   2.077   4.683  0.5904  1.5117 -1.1695
 6674TIP3   OH241512   6.611   3.485   0.284 -0.1669  0.1690 -0.1637
 6674TIP3    H141513   6.554   3.558   0.307 -0.0520  0.4642 -0.7874
 6674TIP3    H241514   6.555   3.408   0.288 -0.9319  0.5769 -1.8579
 6675TIP3   OH241515   6.804   5.091  12.248  0.2477  0.2203 -0.1834
 6675TIP3    H141516   6.880   5.111  12.303 -0.3482  1.0078  0.3758
 6675TIP3    H241517   6.839   5.093  12.159  1.0972 -0.4629  0.1181
 6676TIP3   OH241518   2.756   4.093   0.865  0.3242  0.2962  0.0692
 6676TIP3    H141519   2.736   4.035   0.791 -2.2234  1.8489 -0.5519
 6676TIP3    H241520   2.845   4.068   0.890  0.9342 -0.9784 -2.8625
 6677TIP3   OH241521   3.105   2.928   4.558 -0.5836  0.3900 -0.7139
 6677TIP3    H141522   3.035   2.940   4.622  0.7001  1.3964  0.5763
 6677TIP3    H241523   3.155   2.853   4.590 -0.4396  0.3595 -1.0023
 6678TIP3   OH241524   1.648   2.650  13.240 -0.0064 -0.4593  0.1728
 6678TIP3    H141525   1.724   2.693  13.201 -0.0361 -0.2896  0.3015
 6678TIP3    H241526   1.673   2.635  13.331 -0.9166  1.5535  0.8169
 6679TIP3   OH241527   3.775   3.657   2.165 -0.3525 -0.3210  0.3499
 6679TIP3    H141528   3.761   3.583   2.106  1.6619 -1.0836  0.7295
 6679TIP3    H241529   3.827   3.719   2.114  0.6623 -0.6000  1.0193
 6680TIP3   OH241530   1.165   1.472  12.210  0.5799 -0.6595  0.0415
 6680TIP3    H141531   1.148   1.560  12.242 -2.9561 -1.6384  1.4067
 6680TIP3    H241532   1.207   1.427  12.283  2.0754 -0.2704 -0.5386
 6681TIP3   OH241533   6.572   1.935   5.332  0.9156  0.4041 -0.6076
 6681TIP3    H141534   6.565   2.010   5.273  1.9304  1.2809  0.3330
 6681TIP3    H241535   6.664   1.935   5.359  0.4827  0.0196  0.9430
 6682TIP3   OH241536   4.328   5.003   2.195  0.3486  0.4418  0.3369
 6682TIP3    H141537   4.261   4.941   2.163  1.0206 -0.5892  0.8777
 6682TIP3    H241538   4.284   5.088   2.195 -0.1939  0.2159 -1.7271
 6683TIP3   OH241539   0.652   1.397   6.624  0.8068 -0.0723  0.0581
 6683TIP3    H141540   0.706   1.476   6.612  0.4300  0.0085 -1.2736
 6683TIP3    H241541   0.571   1.416   6.577  0.8428 -1.3783 -0.5659
 6684TIP3   OH241542   4.882   4.516   3.276 -0.1531  0.6284 -0.6697
 6684TIP3    H141543   4.876   4.570   3.197 -1.4423  1.6766  0.0842
 6684TIP3    H241544   4.791   4.509   3.306  0.0596 -1.5654 -0.4430
 6685TIP3   OH241545   1.285   1.294  13.891 -0.0843  0.2155 -0.3410
 6685TIP3    H141546   1.192   1.311  13.876 -0.6777 -0.8158  1.7735
 6685TIP3    H241547   1.304   1.335  13.975  1.5550  0.9521 -1.0470
 6686TIP3   OH241548   6.456   3.964  14.008 -0.3128  0.1970 -0.0251
 6686TIP3    H141549   6.488   4.039  14.059 -0.3497 -0.2376  0.6572
 6686TIP3    H241550   6.535   3.916  13.985 -0.3527 -0.0354  0.3147
 6687TIP3   OH241551   4.073   6.068   4.851 -0.4449  0.5831 -0.2281
 6687TIP3    H141552   4.128   5.992   4.866 -0.1896  1.0293  1.2823
 6687TIP3    H241553   4.130   6.132   4.809 -0.2916  0.4145 -0.2738
 6688TIP3   OH241554   1.468   0.544   0.549  0.2548  0.4382  0.2777
 6688TIP3    H141555   1.544   0.602   0.552 -1.4601  2.8532 -0.4527
 6688TIP3    H241556   1.448   0.537   0.455  0.1098 -0.9635  0.3925
 6689TIP3   OH241557   1.928   6.622   3.105 -0.1155  0.4239 -0.1639
 6689TIP3    H141558   2.002   6.562   3.100  0.3044  0.8962  0.1904
 6689TIP3    H241559   1.855   6.575   3.064  0.7970  0.5938 -2.1008
 6690TIP3   OH241560   6.613   4.514   4.619 -0.1850 -0.3277 -0.7439
 6690TIP3    H141561   6.656   4.511   4.704 -3.7701 -1.4422  1.2647
 6690TIP3    H241562   6.604   4.607   4.599  0.7869 -0.0564  0.0279
 6691TIP3   OH241563   4.870   0.666  15.016  0.0743 -0.3431  0.4371
 6691TIP3    H141564   4.828   0.690  14.934  1.1156  1.3310  0.3486
 6691TIP3    H241565   4.876   0.570  15.013 -1.5190 -0.4445 -0.5978
 6692TIP3   OH241566   5.691   0.065  12.618 -0.5573 -0.7522  0.0196
 6692TIP3    H141567   5.782   0.058  12.648 -0.3479 -0.2949 -0.4902
 6692TIP3    H241568   5.672   0.158  12.623 -0.6819 -0.7305 -0.7845
 6693TIP3   OH241569   3.185   2.231   5.048 -0.0560 -0.2913 -0.0592
 6693TIP3    H141570   3.235   2.156   5.015  0.6092  0.0829  0.0843
 6693TIP3    H241571   3.205   2.235   5.141  0.2703  0.3247 -0.1451
 6694TIP3   OH241572   5.329   5.822  14.745 -0.2428 -0.1698  0.2725
 6694TIP3    H141573   5.337   5.738  14.699  2.4001 -0.5410  1.2264
 6694TIP3    H241574   5.375   5.884  14.689 -1.4134  0.4899  0.0112
 6695TIP3   OH241575   3.654   2.489  13.535 -0.1666 -0.6928  0.1488
 6695TIP3    H141576   3.678   2.514  13.445  2.3318 -0.1033  0.8885
 6695TIP3    H241577   3.676   2.396  13.540  0.0141 -0.6449  0.2437
 6696TIP3   OH241578   1.026   0.529  16.538  0.0834  0.7311  0.2835
 6696TIP3    H141579   1.088   0.602  16.532 -0.0677  0.9496  1.2308
 6696TIP3    H241580   1.076   0.457  16.577 -0.4647  1.1952  1.9356
 6697TIP3   OH241581   5.335   0.797  11.409 -0.6035 -0.2609  0.2207
 6697TIP3    H141582   5.291   0.758  11.334 -0.8272 -0.2220  0.3318
 6697TIP3    H241583   5.378   0.875  11.375 -1.0525 -0.0137  0.2186
 6698TIP3   OH241584   6.153   0.632   4.038 -0.3618  0.2927  0.0375
 6698TIP3    H141585   6.147   0.727   4.053  1.6978  0.5711 -0.6121
 6698TIP3    H241586   6.138   0.622   3.944 -0.6356 -0.0367  0.1169
 6699TIP3   OH241587   0.094   2.503   2.496 -0.3670  0.5144 -0.5456
 6699TIP3    H141588   0.014   2.478   2.543  0.9660 -1.0630  1.0416
 6699TIP3    H241589   0.063   2.550   2.419 -2.8669 -0.8454 -0.4792
 6700TIP3   OH241590   4.970   3.363   0.485 -0.2374 -0.5671 -0.2798
 6700TIP3    H141591   5.025   3.370   0.407  2.6567 -2.2605  1.4117
 6700TIP3    H241592   4.977   3.449   0.527  0.2448 -0.4137 -0.6574
 6701TIP3   OH241593   1.024   6.025   4.664  0.5077  0.2755  0.0570
 6701TIP3    H141594   0.994   6.076   4.738 -0.0850 -0.7106  0.5263
 6701TIP3    H241595   0.944   5.985   4.628  0.7685  0.7886 -1.1560
 6702TIP3   OH241596   2.486   5.374  16.558  0.7505  0.2110 -0.5013
 6702TIP3    H141597   2.542   5.443  16.592  0.1889  0.8050 -0.7568
 6702TIP3    H241598   2.443   5.413  16.481 -1.6485  0.5663  0.8955
 6703TIP3   OH241599   6.387   6.397   2.317 -0.3425  0.0932 -0.0887
 6703TIP3    H141600   6.312   6.409   2.376  0.8014  1.6503  1.1244
 6703TIP3    H241601   6.384   6.473   2.259 -0.5114 -0.5950 -1.0041
 6704TIP3   OH241602   1.394   0.110  13.282 -0.3685 -0.4827 -0.0022
 6704TIP3    H141603   1.467   0.108  13.220 -0.7702 -1.1655 -0.4663
 6704TIP3    H241604   1.432   0.082  13.365  0.1415  0.2985  0.0406
 6705TIP3   OH241605   6.153   0.095  14.653 -0.1332  0.2384  0.2445
 6705TIP3    H141606   6.182   0.067  14.567  0.7214  0.6018  0.4076
 6705TIP3    H241607   6.103   0.020  14.687  0.1614 -0.1934 -0.2591
 6706TIP3   OH241608   4.460   5.949   2.740 -0.0777  0.7634 -0.1159
 6706TIP3    H141609   4.453   6.014   2.809 -0.1708  0.1746  0.4383
 6706TIP3    H241610   4.548   5.962   2.703  1.3254 -1.0432  2.3065
 6707TIP3   OH241611   2.501   5.232   5.651  0.0955 -0.5702  0.0671
 6707TIP3    H141612   2.553   5.152   5.638  2.9823  1.1745  0.1483
 6707TIP3    H241613   2.461   5.220   5.737 -0.6079 -2.4263 -0.4490
 6708TIP3   OH241614   4.862   6.437   0.368 -0.5920  0.4522 -0.5266
 6708TIP3    H141615   4.948   6.478   0.376  0.2844 -0.8557 -2.3407
 6708TIP3    H241616   4.836   6.417   0.457  0.4478  1.9095  0.1429
 6709TIP3   OH241617   1.873   5.930   2.961  0.4713 -0.1601 -0.3704
 6709TIP3    H141618   1.913   5.860   3.013  0.2061 -0.4551 -0.5572
 6709TIP3    H241619   1.829   5.985   3.026 -2.1006 -1.9591 -0.4172
 6710TIP3   OH241620   1.961   1.202  11.083  0.1407 -0.1277 -0.3927
 6710TIP3    H141621   1.955   1.264  11.009  2.0213  0.7743  0.1581
 6710TIP3    H241622   1.901   1.238  11.148  1.3138  1.2507 -0.0215
 6711TIP3   OH241623   2.864   0.864   4.026  0.4589 -0.0083  0.3551
 6711TIP3    H141624   2.869   0.958   4.047  0.2686 -0.2306  1.4838
 6711TIP3    H241625   2.869   0.821   4.111 -0.1051 -1.0014 -0.1001
 6712TIP3   OH241626   1.083   1.866   0.202 -0.2715 -0.1359 -0.6614
 6712TIP3    H141627   1.066   1.893   0.112 -1.4720  3.7591  0.5417
 6712TIP3    H241628   1.174   1.890   0.218 -0.6896  1.2586 -0.2540
 6713TIP3   OH241629   6.834   5.984   5.886  0.2514 -0.5158  0.1866
 6713TIP3    H141630   6.793   5.947   5.808  0.0364  0.9030 -0.3913
 6713TIP3    H241631   6.827   5.914   5.952 -1.4743 -0.9630 -0.4238
 6714TIP3   OH241632   4.873   1.795  16.362 -0.2157 -0.5649  0.2263
 6714TIP3    H141633   4.808   1.825  16.299  0.1384 -0.2529  0.0134
 6714TIP3    H241634   4.833   1.813  16.447  0.4599  1.6277  0.1430
 6715TIP3   OH241635   4.260   0.894   0.878  0.4993  0.4196  0.2780
 6715TIP3    H141636   4.240   0.963   0.941  1.0795  2.0067 -1.2278
 6715TIP3    H241637   4.290   0.821   0.933  1.2195  1.8062  1.8409
 6716TIP3   OH241638   4.862   4.366   6.026  0.6501  0.2110 -0.0082
 6716TIP3    H141639   4.802   4.322   6.086  1.4116 -0.4701  0.2561
 6716TIP3    H241640   4.875   4.453   6.064  0.7479 -0.0456  0.5416
 6717TIP3   OH241641   4.435   2.783   2.864 -0.0785 -0.3505  0.1967
 6717TIP3    H141642   4.344   2.756   2.856 -0.6990  1.8845 -1.0590
 6717TIP3    H241643   4.446   2.803   2.957 -1.1709  0.2112  0.2240
 6718TIP3   OH241644   0.627   6.198   3.350 -0.7502  0.5462  0.5013
 6718TIP3    H141645   0.640   6.155   3.434  0.2075 -0.8992 -0.3473
 6718TIP3    H241646   0.700   6.260   3.343  0.0026 -0.3472  0.1524
 6719TIP3   OH241647   4.582   2.033   3.762 -0.2616 -0.3441 -0.2876
 6719TIP3    H141648   4.562   2.113   3.811  0.5194  0.5053 -1.2988
 6719TIP3    H241649   4.671   2.047   3.729  0.8673 -2.6276  1.4580
 6720TIP3   OH241650   0.255   2.119   2.821  0.2115  0.6893 -0.0913
 6720TIP3    H141651   0.245   2.212   2.839  0.9280  0.5440  1.1624
 6720TIP3    H241652   0.349   2.105   2.812  0.0128  0.4849 -2.8067
 6721TIP3   OH241653   5.002   6.391   1.209  0.2280  0.0269  0.2219
 6721TIP3    H141654   4.984   6.308   1.254 -0.4251  0.4846  0.8359
 6721TIP3    H241655   5.049   6.366   1.130 -0.8179 -1.0313 -0.0999
 6722TIP3   OH241656   6.825   4.606   5.409  0.6344 -0.1608  0.1702
 6722TIP3    H141657   6.898   4.651   5.367 -0.3990  0.9571 -0.4750
 6722TIP3    H241658   6.836   4.514   5.384  1.1811  0.1725 -0.8707
 6723TIP3   OH241659   4.957   6.354   3.848  0.7795  0.1805 -0.0175
 6723TIP3    H141660   4.915   6.438   3.829 -0.4540 -0.6147 -1.0021
 6723TIP3    H241661   4.990   6.324   3.764  3.5469  0.8225  0.7407
 6724TIP3   OH241662   0.370   0.958  13.239  0.1206 -0.0848  0.0357
 6724TIP3    H141663   0.349   0.871  13.205 -0.0325  0.4040 -1.1939
 6724TIP3    H241664   0.458   0.976  13.205  0.3916  0.0103  0.7738
 6725TIP3   OH241665   0.360   1.093   2.051  0.5115  0.3287  0.2814
 6725TIP3    H141666   0.269   1.112   2.030  0.8521  2.7599  0.6744
 6725TIP3    H241667   0.371   1.121   2.142  1.1740 -1.9219  0.9554
 6726TIP3   OH241668   4.797   3.287  14.763 -0.1488 -0.0319  0.1698
 6726TIP3    H141669   4.745   3.263  14.687 -0.8445 -0.2144  0.6903
 6726TIP3    H241670   4.860   3.351  14.730  2.1452 -2.8569 -1.4141
 6727TIP3   OH241671   6.558   3.699   5.231  0.7969  0.2288 -0.1362
 6727TIP3    H141672   6.567   3.714   5.137  0.9827 -1.6932 -0.4688
 6727TIP3    H241673   6.624   3.756   5.271  2.3241 -0.6023 -1.3475
 6728TIP3   OH241674   1.438   0.225   5.705 -0.6074  0.5216 -0.2191
 6728TIP3    H141675   1.458   0.269   5.787  0.1051 -0.2748  0.0525
 6728TIP3    H241676   1.399   0.142   5.730 -0.0743  0.1243 -0.6579
 6729TIP3   OH241677   1.316   0.501  12.053 -0.1147  0.1336 -0.4714
 6729TIP3    H141678   1.300   0.585  12.095 -1.5320 -0.5524  0.4230
 6729TIP3    H241679   1.365   0.451  12.117  1.1911  0.4186 -1.2042
 6730TIP3   OH241680   0.422   5.447   4.859 -0.4231 -0.3626 -0.1426
 6730TIP3    H141681   0.396   5.367   4.905 -0.9787  0.2938  0.7367
 6730TIP3    H241682   0.518   5.444   4.859 -0.4110 -2.0538 -2.0319
 6731TIP3   OH241683   3.751   3.960  15.603 -0.2202 -0.2010 -0.1413
 6731TIP3    H141684   3.772   3.985  15.513 -0.8588 -0.1113 -0.2720
 6731TIP3    H241685   3.667   4.003  15.620  0.1176  0.1642  0.6594
 6732TIP3   OH241686   1.989   4.046  12.504  0.1867 -0.0404  0.1583
 6732TIP3    H141687   2.069   4.002  12.474 -0.6936 -1.6265  0.0403
 6732TIP3    H241688   2.009   4.073  12.593  0.7262 -0.7436  0.2562
 6733TIP3   OH241689   3.013   4.105   5.919  0.0788 -0.1986 -0.3410
 6733TIP3    H141690   3.046   4.042   5.983 -0.4639 -0.0646  0.0819
 6733TIP3    H241691   2.918   4.099   5.927  0.0169  0.3887 -0.5785
 6734TIP3   OH241692   2.084   0.976  14.147  0.7030 -0.1110  0.1192
 6734TIP3    H141693   2.037   1.037  14.204  0.9967  0.2988 -0.0651
 6734TIP3    H241694   2.032   0.896  14.148  0.1451  0.2479  0.1247
 6735TIP3   OH241695   4.992   5.295  13.574  0.0064  0.4171 -1.0215
 6735TIP3    H141696   5.050   5.275  13.648 -1.8777 -1.8013 -0.0309
 6735TIP3    H241697   5.049   5.338  13.511  2.1396  0.6695  0.9167
 6736TIP3   OH241698   2.577   6.042  14.708 -0.4042 -0.5727  0.1488
 6736TIP3    H141699   2.646   5.979  14.729 -0.6948 -1.7744 -2.1526
 6736TIP3    H241700   2.624   6.120  14.678 -0.0153 -0.9465 -0.2439
 6737TIP3   OH241701   2.517   0.838   4.369 -0.8066 -0.3206  0.2047
 6737TIP3    H141702   2.556   0.762   4.412  0.0591 -0.7976 -1.3259
 6737TIP3    H241703   2.482   0.804   4.287  0.1940  0.9949 -0.8282
 6738TIP3   OH241704   0.485   3.912  15.403  0.6161 -0.3744 -0.0157
 6738TIP3    H141705   0.568   3.952  15.429  0.7041 -0.5888  0.0268
 6738TIP3    H241706   0.465   3.952  15.318 -0.6627  1.8572  1.2277
 6739TIP3   OH241707   6.078   6.471   1.657 -0.4151  0.0005  0.0487
 6739TIP3    H141708   6.054   6.411   1.587 -1.0017  2.6225 -2.1309
 6739TIP3    H241709   5.995   6.506   1.688  0.0138  1.3659 -0.3032
 6740TIP3   OH241710   0.552   2.076   2.766  0.3038 -0.5281  0.1794
 6740TIP3    H141711   0.562   1.989   2.805 -1.7049 -1.0398 -0.3423
 6740TIP3    H241712   0.638   2.094   2.727  0.7368 -2.3269  0.2020
 6741TIP3   OH241713   6.088   1.171  15.927 -0.3100  0.0186 -0.3233
 6741TIP3    H141714   6.013   1.186  15.985  1.0066  1.0466  1.1752
 6741TIP3    H241715   6.149   1.119  15.979 -0.3180 -1.6051 -1.8475
 6742TIP3   OH241716   4.978   0.157   3.030  0.3122 -0.1728 -0.2003
 6742TIP3    H141717   4.906   0.123   2.978 -0.7333  1.8714 -0.2017
 6742TIP3    H241718   4.950   0.146   3.121 -1.1771  2.7132 -0.1963
 6743TIP3   OH241719   3.854   4.302   4.060  0.3721 -0.5078 -0.4775
 6743TIP3    H141720   3.887   4.226   4.013 -0.1105 -2.4556  2.1344
 6743TIP3    H241721   3.923   4.324   4.123 -0.1448  0.2148 -0.1360
 6744TIP3   OH241722   3.868   5.707   4.134  0.1015  0.3634  0.1785
 6744TIP3    H141723   3.903   5.619   4.147  0.5505  0.1151 -2.2694
 6744TIP3    H241724   3.945   5.763   4.130 -0.1376  0.7472  0.7319
 6745TIP3   OH241725   3.787   1.763  16.916 -0.3020 -0.1462  1.2165
 6745TIP3    H141726   3.712   1.790  16.968 -1.0823  2.8912 -1.2107
 6745TIP3    H241727   3.842   1.841  16.910  1.4111 -1.3499  0.1793
 6746TIP3   OH241728   6.804   5.909   2.343  0.1062 -0.0720  0.1338
 6746TIP3    H141729   6.720   5.911   2.297  0.6205  0.4011 -0.8043
 6746TIP3    H241730   6.795   5.837   2.406 -1.0259  0.0247  0.1021
 6747TIP3   OH241731   4.299   5.394  12.661 -0.3292  0.0729  0.1965
 6747TIP3    H141732   4.345   5.442  12.730  0.5780  0.3735 -0.5939
 6747TIP3    H241733   4.252   5.461  12.612 -0.2178 -0.0222 -0.0434
 6748TIP3   OH241734   3.939   0.589   0.987 -0.2679  0.3611 -0.2195
 6748TIP3    H141735   3.992   0.536   1.046  0.6391  0.0619 -1.2771
 6748TIP3    H241736   3.990   0.593   0.906 -0.5081  2.4472 -0.3405
 6749TIP3   OH241737   3.445   2.775   3.252 -0.2896  0.2395  0.5099
 6749TIP3    H141738   3.506   2.823   3.309 -0.2034  0.7101  0.0285
 6749TIP3    H241739   3.426   2.836   3.181  0.8008 -0.8764 -0.8045
 6750TIP3   OH241740   6.678   3.780   2.190 -0.2349 -0.4646  0.6253
 6750TIP3    H141741   6.704   3.836   2.263  0.2136  1.2190 -0.7655
 6750TIP3    H241742   6.589   3.753   2.211 -0.0863 -0.0969  1.8217
 6751TIP3   OH241743   6.490   0.831   0.532 -0.9504  0.0228 -0.0846
 6751TIP3    H141744   6.468   0.844   0.624  1.1998  0.5301  0.4069
 6751TIP3    H241745   6.502   0.920   0.497  0.6061 -0.2080 -0.2010
 6752TIP3   OH241746   4.847   0.792   1.064  0.3524  0.0347  0.0859
 6752TIP3    H141747   4.851   0.849   0.987 -2.2668 -0.2894 -0.3834
 6752TIP3    H241748   4.825   0.851   1.136  1.6600  0.1573  0.4223
 6753TIP3   OH241749   3.611   3.983   2.850  0.1670  0.1599  0.3821
 6753TIP3    H141750   3.684   4.044   2.851  1.2257 -1.0431 -0.4037
 6753TIP3    H241751   3.646   3.903   2.809 -0.6741 -1.5916  2.8375
 6754TIP3   OH241752   1.768   3.583   3.748 -0.3486  0.1022  0.3460
 6754TIP3    H141753   1.837   3.606   3.687  0.9029 -1.5377  1.0661
 6754TIP3    H241754   1.687   3.589   3.697  0.5231  0.1209 -1.0760
 6755TIP3   OH241755   6.037   1.379   4.001  0.2770  0.2607  0.4609
 6755TIP3    H141756   6.095   1.356   4.074  1.6243  1.4696 -0.1792
 6755TIP3    H241757   5.950   1.351   4.030  0.8054  0.5017  2.4271
 6756TIP3   OH241758   0.901   1.791  15.230  0.3405 -0.4845 -0.2405
 6756TIP3    H141759   0.966   1.809  15.163  2.4798 -3.4132  0.8423
 6756TIP3    H241760   0.906   1.865  15.290  2.8150 -0.6595 -0.1475
 6757TIP3   OH241761   2.297   4.683   2.162 -0.0034  0.4093 -0.0295
 6757TIP3    H141762   2.222   4.659   2.107  0.0195  0.5768 -0.1337
 6757TIP3    H241763   2.291   4.623   2.237  0.7812 -0.7946 -0.8828
 6758TIP3   OH241764   4.502   1.577   3.766  1.0567 -0.1537 -0.5769
 6758TIP3    H141765   4.455   1.650   3.808  1.5143  0.6948 -1.4911
 6758TIP3    H241766   4.587   1.575   3.810  0.4168 -1.3351  0.6967
 6759TIP3   OH241767   0.674   4.652  16.140  0.6491 -0.1654  0.2488
 6759TIP3    H141768   0.627   4.734  16.122  1.9871  0.6421  0.2528
 6759TIP3    H241769   0.693   4.656  16.234  1.4009 -0.0877  0.0996
 6760TIP3   OH241770   0.769   3.689   3.243 -0.7238 -0.2013 -0.2716
 6760TIP3    H141771   0.719   3.651   3.315 -1.7290  0.3151 -0.6745
 6760TIP3    H241772   0.789   3.778   3.272 -0.3917 -0.2651 -0.2942
 6761TIP3   OH241773   6.232   3.803   4.773 -0.4341  0.3429 -0.1830
 6761TIP3    H141774   6.235   3.724   4.719  1.9967 -0.0031  0.3417
 6761TIP3    H241775   6.254   3.874   4.712  1.2528  0.0853  0.0857
 6762TIP3   OH241776   2.575   0.396  17.191  0.4719  0.0942  0.0392
 6762TIP3    H141777   2.559   0.328  17.256  0.6492  0.5912  0.6144
 6762TIP3    H241778   2.661   0.431  17.215  0.2520  0.7199 -0.0609
 6763TIP3   OH241779   4.155   5.664   1.454 -0.2386 -0.0762  0.0510
 6763TIP3    H141780   4.218   5.736   1.449 -1.2259  0.7854 -0.2806
 6763TIP3    H241781   4.206   5.590   1.487  1.5159 -0.0851 -2.4095
 6764TIP3   OH241782   2.859   3.709   4.773 -0.1903  0.3350 -0.1325
 6764TIP3    H141783   2.886   3.685   4.862  1.3159 -1.4212 -0.9774
 6764TIP3    H241784   2.941   3.714   4.724 -0.8142  3.1171 -1.0826
 6765TIP3   OH241785   6.419   5.247   5.159  0.6720  0.2612  0.3677
 6765TIP3    H141786   6.467   5.327   5.135  0.4153  0.3057 -0.0060
 6765TIP3    H241787   6.461   5.218   5.240 -0.0328  1.4725  1.2104
 6766TIP3   OH241788   0.941   6.601   2.534 -0.2989 -0.0167  0.0140
 6766TIP3    H141789   0.851   6.569   2.543 -0.3529  0.4050  1.0576
 6766TIP3    H241790   0.960   6.645   2.617  0.6956  0.3483 -0.3876
 6767TIP3   OH241791   0.256   1.889   1.187 -0.4896 -1.1263 -0.0413
 6767TIP3    H141792   0.256   1.977   1.225 -1.5982 -0.8541 -0.6250
 6767TIP3    H241793   0.212   1.835   1.251 -2.7448 -0.5840 -1.0384
 6768TIP3   OH241794   3.757   2.565   5.023  0.6201  0.2498 -0.2210
 6768TIP3    H141795   3.763   2.659   5.042  1.6254  0.7428 -2.6153
 6768TIP3    H241796   3.824   2.525   5.080 -0.3964  0.8134  1.4461
 6769TIP3   OH241797   3.048   2.478  13.292  0.2331 -0.3844  0.0455
 6769TIP3    H141798   3.004   2.424  13.358  1.2211 -1.5048 -0.1678
 6769TIP3    H241799   3.004   2.563  13.296 -1.4964 -1.2525  0.2830
 6770TIP3   OH241800   2.712   5.206   2.715 -0.2173  0.5782  0.7725
 6770TIP3    H141801   2.803   5.226   2.693 -0.7533 -0.2738 -2.8936
 6770TIP3    H241802   2.718   5.126   2.768  1.1957 -0.2244 -0.4822
 6771TIP3   OH241803   6.208   5.695   0.996 -0.1255  0.1236  0.4111
 6771TIP3    H141804   6.291   5.720   0.957 -0.6177  1.4343  0.1484
 6771TIP3    H241805   6.228   5.617   1.048  1.2319  0.3711  0.2902
 6772TIP3   OH241806   2.228   4.230   1.543  0.0183 -0.7116 -0.3304
 6772TIP3    H141807   2.166   4.190   1.604  1.1799 -0.3311  1.1401
 6772TIP3    H241808   2.303   4.253   1.597  0.1320  1.8001 -1.4660
 6773TIP3   OH241809   4.440   6.376   3.101  0.3316  0.1524 -0.2104
 6773TIP3    H141810   4.465   6.461   3.066 -0.8041  1.1600  1.2860
 6773TIP3    H241811   4.344   6.375   3.095  0.2080 -0.2662  1.3829
 6774TIP3   OH241812   4.645   5.768  13.667  0.1686  0.1537  0.2666
 6774TIP3    H141813   4.734   5.733  13.665 -0.7648 -2.3464 -1.2550
 6774TIP3    H241814   4.636   5.814  13.584 -0.2937 -0.5617 -0.0871
 6775TIP3   OH241815   6.590   2.515   4.778  0.0020 -0.6345  0.0934
 6775TIP3    H141816   6.578   2.511   4.873 -0.2115  0.0373  0.1013
 6775TIP3    H241817   6.505   2.488   4.742 -0.2031 -0.0351  0.1093
 6776TIP3   OH241818   5.098   1.933   2.866  0.5649  0.6121  0.2195
 6776TIP3    H141819   5.065   1.914   2.954  1.1185 -0.2049  0.2642
 6776TIP3    H241820   5.021   1.930   2.810  0.4487 -0.5494  0.4287
 6777TIP3   OH241821   0.017   5.729   2.617  0.4217  0.2933 -0.0530
 6777TIP3    H141822  -0.027   5.685   2.689  0.1872  1.5091  0.5641
 6777TIP3    H241823   0.107   5.740   2.646  0.2607  1.0421  0.1951
 6778TIP3   OH241824   2.036   5.675   3.941  0.1588  0.9412  0.2144
 6778TIP3    H141825   2.058   5.584   3.963  0.9866  0.6510 -1.6481
 6778TIP3    H241826   1.962   5.696   3.999 -0.1813 -0.9718  0.5477
 6779TIP3   OH241827   0.464   1.700  15.385  0.3423 -0.4947 -0.7519
 6779TIP3    H141828   0.471   1.664  15.296 -2.1259 -1.1844 -0.7288
 6779TIP3    H241829   0.375   1.734  15.391  0.5901 -0.0666  1.3377
 6780TIP3   OH241830   4.195   6.053  14.369  0.1277  0.0049 -0.0298
 6780TIP3    H141831   4.285   6.067  14.399  0.2035 -0.7812  0.1295
 6780TIP3    H241832   4.204   6.001  14.289 -0.0159  2.9065 -2.0808
 6781TIP3   OH241833   1.477   1.341  12.220 -0.3064  0.0228 -0.3483
 6781TIP3    H141834   1.425   1.262  12.206  3.1611 -2.5916  0.0272
 6781TIP3    H241835   1.472   1.357  12.314 -1.0316  0.2925 -0.4281
 6782TIP3   OH241836   2.745   2.406   2.658  0.3926  0.3100  0.5393
 6782TIP3    H141837   2.718   2.392   2.749  1.1640 -1.3809  0.5551
 6782TIP3    H241838   2.774   2.497   2.654 -0.8632  0.7841  1.6512
 6783TIP3   OH241839   4.331   1.440  11.646  0.3069 -0.0173 -0.0284
 6783TIP3    H141840   4.395   1.498  11.604  1.7625 -1.2972  0.3226
 6783TIP3    H241841   4.264   1.426  11.579  1.1209  0.2551 -0.9247
 6784TIP3   OH241842   1.825   3.911   5.301  0.0089 -0.2102 -0.1882
 6784TIP3    H141843   1.782   3.996   5.295  0.4008 -0.0438 -0.6259
 6784TIP3    H241844   1.802   3.866   5.220  0.3720 -0.2570 -0.2654
 6785TIP3   OH241845   3.066   5.541   5.439  0.0035 -0.1085 -0.6012
 6785TIP3    H141846   3.016   5.553   5.519  2.8175 -1.8395  1.6511
 6785TIP3    H241847   3.095   5.629   5.414  0.9832  0.3041  1.7397
 6786TIP3   OH241848   2.359   1.185  13.227 -0.1916  0.4537 -0.3375
 6786TIP3    H141849   2.360   1.094  13.198  0.5354 -0.1986  1.5786
 6786TIP3    H241850   2.291   1.226  13.174  0.8448 -0.6671 -2.7053
 6787TIP3   OH241851   6.545   2.522  13.516 -0.3082  0.0482 -0.2603
 6787TIP3    H141852   6.596   2.572  13.579 -0.8312  0.0255  0.1861
 6787TIP3    H241853   6.487   2.468  13.569 -1.4459  0.7498 -0.7682
 6788TIP3   OH241854   2.499   2.688   2.744 -0.4088 -0.3149 -0.2462
 6788TIP3    H141855   2.403   2.686   2.749 -0.4039 -1.9654 -0.2531
 6788TIP3    H241856   2.521   2.781   2.744 -2.0275  0.1040 -0.5846
 6789TIP3   OH241857   5.539   3.327  14.155 -0.2087 -0.5840  0.1395
 6789TIP3    H141858   5.521   3.420  14.137 -0.9113 -0.5858  0.7558
 6789TIP3    H241859   5.629   3.314  14.127  0.4762  0.7036  1.5719
 6790TIP3   OH241860   3.278   0.860  15.186  0.2603 -0.3909 -0.0295
 6790TIP3    H141861   3.310   0.934  15.238 -0.5941 -0.2537  0.3206
 6790TIP3    H241862   3.253   0.794  15.251  0.1711 -0.6331 -0.3076
 6791TIP3   OH241863   4.902   4.159  14.443  0.1890 -0.1310 -0.3601
 6791TIP3    H141864   4.846   4.157  14.520 -0.2815  1.0750 -0.6637
 6791TIP3    H241865   4.895   4.070  14.406  1.7894 -1.2951  1.9121
 6792TIP3   OH241866   0.588   3.787   6.019  0.2739  0.0491 -0.1927
 6792TIP3    H141867   0.593   3.821   6.108 -1.6207 -0.4223  0.1456
 6792TIP3    H241868   0.612   3.861   5.963  0.9894  0.4914  0.6793
 6793TIP3   OH241869   5.965   0.083   4.993  0.5004  0.1161  0.1604
 6793TIP3    H141870   5.914   0.078   4.912  1.0969 -1.7160 -0.1346
 6793TIP3    H241871   5.899   0.095   5.062 -0.3664 -1.8314 -0.2550
 6794TIP3   OH241872   2.157   2.765   1.031  0.0758  0.7520 -0.5406
 6794TIP3    H141873   2.202   2.796   0.952  1.4301  1.2218  0.3859
 6794TIP3    H241874   2.186   2.824   1.100 -0.3299 -0.2488  0.5131
 6795TIP3   OH241875   4.696   3.990  15.894 -0.5400  0.3071  0.1857
 6795TIP3    H141876   4.728   3.936  15.822  0.3350  2.0367 -0.7779
 6795TIP3    H241877   4.775   4.030  15.931 -1.2291  1.7265  0.1910
 6796TIP3   OH241878   2.170   5.101  10.464  0.8122  0.4075 -0.1313
 6796TIP3    H141879   2.134   5.032  10.408 -0.2223  2.3081 -1.9261
 6796TIP3    H241880   2.244   5.136  10.415  0.7131  1.2234  0.2856
 6797TIP3   OH241881   5.585   5.720   5.874  0.2573  0.2468  0.0015
 6797TIP3    H141882   5.609   5.690   5.962 -0.2014  0.0991  0.0739
 6797TIP3    H241883   5.490   5.723   5.874  0.1472 -1.7225 -1.1480
 6798TIP3   OH241884   5.751   1.395   0.825  0.1798 -0.0307  0.1764
 6798TIP3    H141885   5.781   1.370   0.912 -1.1720  0.0604  0.6902
 6798TIP3    H241886   5.662   1.361   0.819  0.4940 -0.6869 -1.4616
 6799TIP3   OH241887   1.101   4.964   3.174  0.0559  0.7285  0.1260
 6799TIP3    H141888   1.012   4.932   3.160 -0.4523  1.1219  2.2068
 6799TIP3    H241889   1.157   4.887   3.161 -0.6169  0.3652 -0.6683
 6800TIP3   OH241890   6.055   5.693   5.543 -0.0981 -0.4916  0.0918
 6800TIP3    H141891   5.989   5.669   5.478 -0.5115 -1.1644  0.7357
 6800TIP3    H241892   6.014   5.671   5.627 -0.6944  2.8966  0.8110
 6801TIP3   OH241893   5.331   2.429   3.247 -0.0504  0.2050 -0.1363
 6801TIP3    H141894   5.363   2.432   3.337 -0.6304 -0.2760  0.0859
 6801TIP3    H241895   5.284   2.347   3.240  2.7814 -1.4483 -1.8519
 6802TIP3   OH241896   3.549   6.607  13.926  0.0842 -0.1691  0.5465
 6802TIP3    H141897   3.460   6.585  13.897  0.6673 -1.0869 -0.6450
 6802TIP3    H241898   3.595   6.523  13.927  0.6037  0.1014  2.4538
 6803TIP3   OH241899   5.445   2.860  13.592  0.6576  0.4721  0.4401
 6803TIP3    H141900   5.494   2.783  13.563  1.1223  1.2809 -1.0770
 6803TIP3    H241901   5.499   2.898  13.661  1.3400  0.3998 -0.0338
 6804TIP3   OH241902   0.669   0.709  11.294 -0.4664 -0.0350  0.8489
 6804TIP3    H141903   0.663   0.709  11.198 -1.7395  0.3317  0.9094
 6804TIP3    H241904   0.751   0.755  11.313 -0.5257  0.4646 -0.0449
 6805TIP3   OH241905   2.635   0.981  15.445  0.2005 -0.0923  0.1867
 6805TIP3    H141906   2.557   1.011  15.399  1.2863 -0.1347 -1.7792
 6805TIP3    H241907   2.679   1.061  15.473 -1.8537 -0.0233  3.8783
 6806TIP3   OH241908   3.569   6.721   1.602 -0.8126  0.7370  0.3733
 6806TIP3    H141909   3.561   6.740   1.508 -0.7998 -0.8903  0.0157
 6806TIP3    H241910   3.479   6.709   1.632 -0.8977  2.3367  0.8392
 6807TIP3   OH241911   4.314   1.377   1.466  0.0726  0.2977 -0.5032
 6807TIP3    H141912   4.301   1.468   1.495  0.4885 -0.0994  0.9800
 6807TIP3    H241913   4.284   1.324   1.539 -0.7234 -0.7926 -1.5928
 6808TIP3   OH241914   2.206   3.598   2.280 -0.1447  0.3298 -0.1084
 6808TIP3    H141915   2.133   3.658   2.265  0.9415  1.2741 -2.0321
 6808TIP3    H241916   2.193   3.528   2.215  0.5686  0.4330 -0.3722
 6809TIP3   OH241917   0.973   1.289   0.898 -0.3428 -0.5761 -0.5308
 6809TIP3    H141918   0.932   1.253   0.977 -0.0369 -0.2661 -0.2302
 6809TIP3    H241919   0.899   1.316   0.843 -0.6142 -2.2511 -1.0657
 6810TIP3   OH241920   5.811   2.505   0.195 -0.1539 -0.3658 -0.0819
 6810TIP3    H141921   5.750   2.571   0.162  0.2490 -0.1575 -0.4178
 6810TIP3    H241922   5.823   2.444   0.122 -1.2811 -1.3814  0.5337
 6811TIP3   OH241923   5.322   2.838   1.884  0.2891 -0.3893  0.2180
 6811TIP3    H141924   5.263   2.844   1.959 -0.9759 -1.3345 -0.6614
 6811TIP3    H241925   5.264   2.839   1.807  1.5685  1.0319 -0.7857
 6812TIP3   OH241926   4.856   6.731   4.547 -0.2668 -0.0155  0.0259
 6812TIP3    H141927   4.826   6.646   4.515 -1.4818 -0.5803  2.4106
 6812TIP3    H241928   4.879   6.780   4.468  0.8550 -2.6581 -1.4111
 6813TIP3   OH241929   6.157   5.164   1.700 -0.0546  0.1321 -0.4405
 6813TIP3    H141930   6.156   5.245   1.750 -0.1715 -0.1734  0.0550
 6813TIP3    H241931   6.250   5.142   1.691 -0.0314  0.2273 -0.4278
 6814TIP3   OH241932   5.438   3.659   5.549 -0.4802  0.4838 -0.5228
 6814TIP3    H141933   5.428   3.751   5.526 -1.8550  0.4172 -0.2360
 6814TIP3    H241934   5.363   3.639   5.605  0.1393 -0.6506 -0.0506
 6815TIP3   OH241935   6.132   2.175   5.416  0.2012 -0.1040  0.2952
 6815TIP3    H141936   6.117   2.257   5.463  1.5458 -0.6491  1.7743
 6815TIP3    H241937   6.168   2.116   5.482  2.6633 -0.7511 -1.4867
 6816TIP3   OH241938   1.472   0.494  12.974 -0.0434 -0.2432  0.4738
 6816TIP3    H141939   1.440   0.411  13.009  1.9547 -0.8018  1.1315
 6816TIP3    H241940   1.472   0.481  12.879 -1.3286 -0.3618  0.4780
 6817TIP3   OH241941   3.530   6.710  12.128 -0.2644 -0.0836 -0.1581
 6817TIP3    H141942   3.449   6.698  12.178 -1.4277  2.8892 -1.0870
 6817TIP3    H241943   3.598   6.673  12.184 -1.8761  0.2377  2.1945
 6818TIP3   OH241944   0.520   3.929  12.164 -0.8182  0.5878 -0.3859
 6818TIP3    H141945   0.497   3.968  12.248  1.0571  0.1826  0.3805
 6818TIP3    H241946   0.458   3.857  12.153 -0.4799  0.0065  1.1809
 6819TIP3   OH241947   3.571   2.659  13.331  0.2674  0.4528  0.4904
 6819TIP3    H141948   3.494   2.611  13.360  1.1421 -1.0854  0.3920
 6819TIP3    H241949   3.586   2.726  13.398 -0.4285 -0.0359  1.1355
 6820TIP3   OH241950   6.057   2.420   2.770 -0.0470 -0.4390 -0.1393
 6820TIP3    H141951   6.086   2.384   2.854 -0.1328 -2.1853 -0.8117
 6820TIP3    H241952   6.136   2.424   2.717 -0.1713 -0.3692 -0.3194
 6821TIP3   OH241953   5.554   0.573   0.146 -0.2017 -0.2188  0.5729
 6821TIP3    H141954   5.502   0.500   0.180  0.0360 -1.1673 -1.0277
 6821TIP3    H241955   5.491   0.645   0.139 -1.6241 -1.5609 -2.0802
 6822TIP3   OH241956   5.025   2.056  13.454  0.3805  0.3763 -0.1120
 6822TIP3    H141957   4.931   2.070  13.466  0.3386  0.0962 -0.1022
 6822TIP3    H241958   5.030   1.976  13.402  0.6182  0.3607 -0.0641
 6823TIP3   OH241959   6.025   2.149  16.362 -0.2396  0.6228  0.0621
 6823TIP3    H141960   6.085   2.085  16.322 -1.6671 -0.4566 -0.4347
 6823TIP3    H241961   5.963   2.095  16.411 -0.1255  1.7884  1.5657
 6824TIP3   OH241962   4.682   1.259  11.033  0.2076 -0.4457 -0.2617
 6824TIP3    H141963   4.677   1.225  10.944 -1.7186 -1.1384  0.0649
 6824TIP3    H241964   4.742   1.334  11.027 -0.4653 -0.0137 -2.2924
 6825TIP3   OH241965   1.783   4.059  11.074 -0.0629 -0.1998  0.3732
 6825TIP3    H141966   1.726   3.994  11.113 -0.0963 -0.7123 -0.4919
 6825TIP3    H241967   1.868   4.016  11.067  0.7561  0.9025  2.6055
 6826TIP3   OH241968   1.181   5.159  16.296  0.2621  0.1050  0.3421
 6826TIP3    H141969   1.111   5.204  16.247  0.8566  0.6361 -0.0453
 6826TIP3    H241970   1.227   5.230  16.342  1.6685  0.0136 -0.8521
 6827TIP3   OH241971   2.900   3.270  11.526  0.3541  0.0555  0.5826
 6827TIP3    H141972   2.880   3.237  11.614  1.4041 -0.6512  0.5719
 6827TIP3    H241973   2.946   3.353  11.541 -0.4312  0.4803  0.6656
 6828TIP3   OH241974   2.997   5.356   3.068  0.0839  0.5574 -0.1817
 6828TIP3    H141975   2.962   5.441   3.095  0.0019  0.5280 -0.1953
 6828TIP3    H241976   3.060   5.377   2.999  0.0796  0.6086 -0.1701
 6829TIP3   OH241977   2.774   6.346   3.653  0.1096  0.3302 -0.0169
 6829TIP3    H141978   2.714   6.280   3.618 -0.7360  1.2006 -0.2413
 6829TIP3    H241979   2.832   6.296   3.711 -0.8496 -0.5404  0.2383
 6830TIP3   OH241980   0.530   4.858   5.243 -0.0788  0.4898 -0.1130
 6830TIP3    H141981   0.570   4.873   5.328 -1.3934  0.9614  0.4512
 6830TIP3    H241982   0.554   4.935   5.191 -1.3944  1.4905  0.6854
 6831TIP3   OH241983   0.865   5.551  14.008  0.3842  0.1504  0.2702
 6831TIP3    H141984   0.786   5.587  13.967 -0.8948 -2.9651 -0.2493
 6831TIP3    H241985   0.836   5.522  14.095  0.8492 -1.3086 -0.0384
 6832TIP3   OH241986   4.921   0.385  13.577 -0.2605  0.1803 -1.3026
 6832TIP3    H141987   4.950   0.469  13.613 -0.6763 -0.2776  0.1843
 6832TIP3    H241988   4.999   0.329  13.582 -0.8187 -0.5211  1.0285
 6833TIP3   OH241989   0.191   4.143  15.294 -0.2634  0.5229  0.5292
 6833TIP3    H141990   0.187   4.048  15.293  0.5971  0.4532 -1.3561
 6833TIP3    H241991   0.275   4.163  15.334  0.5909  0.3675 -1.1000
 6834TIP3   OH241992   2.720   1.215   0.642 -0.1563 -0.5071  0.7763
 6834TIP3    H141993   2.761   1.171   0.717  0.9058  0.8848  1.0497
 6834TIP3    H241994   2.694   1.144   0.584  0.4233 -1.5453  1.7514
 6835TIP3   OH241995   3.058   1.428   4.021 -0.7070 -0.1279 -0.8163
 6835TIP3    H141996   3.115   1.413   4.096 -0.3653 -0.5746 -1.1630
 6835TIP3    H241997   3.109   1.483   3.962 -0.8461 -0.0615 -0.8764
 6836TIP3   OH241998   0.556   3.546  10.971 -0.5499 -0.0689  0.7000
 6836TIP3    H141999   0.582   3.554  10.879  2.5919 -0.0850  1.4737
 6836TIP3    H242000   0.497   3.620  10.985 -0.9797  0.0210 -1.2714
 6837TIP3   OH242001   0.383   0.732   1.778  0.7540  0.3363  0.0572
 6837TIP3    H142002   0.413   0.766   1.693  0.0481 -1.3902 -0.9162
 6837TIP3    H242003   0.310   0.789   1.801  1.5785  1.4473  0.0146
 6838TIP3   OH242004   5.266   0.090  12.437  0.6518  0.0648  0.2583
 6838TIP3    H142005   5.270   0.178  12.401  0.8962  0.4350  1.1772
 6838TIP3    H242006   5.199   0.046  12.385 -0.2633  1.1294  0.5134
 6839TIP3   OH242007   2.408   1.005   1.549  0.4199  0.0265 -0.1129
 6839TIP3    H142008   2.431   0.970   1.463 -0.2689  0.9565 -0.6988
 6839TIP3    H242009   2.489   0.998   1.600  0.4515 -1.8475 -0.3625
 6840TIP3   OH242010   0.027   6.139  13.956 -0.3075  0.2644 -0.0905
 6840TIP3    H142011  -0.056   6.185  13.971  1.0007  2.5132  0.6573
 6840TIP3    H242012   0.050   6.104  14.042 -0.5723 -0.5713 -0.3508
 6841TIP3   OH242013   6.737   1.802  16.206  0.6255 -0.1050 -0.5912
 6841TIP3    H142014   6.687   1.874  16.244  1.3779 -0.3947  1.0142
 6841TIP3    H242015   6.801   1.844  16.150  0.7837  0.4642  0.0040
 6842TIP3   OH242016   6.573   3.289   3.177  0.2322 -0.0096  0.3131
 6842TIP3    H142017   6.564   3.195   3.159  1.2526  0.0131 -0.4155
 6842TIP3    H242018   6.483   3.322   3.176 -0.2466 -1.1568  1.6939
 6843TIP3   OH242019   6.003   3.497  10.583 -0.4269 -0.7101  0.1366
 6843TIP3    H142020   6.033   3.588  10.577 -0.3181 -0.6509  1.3376
 6843TIP3    H242021   5.970   3.489  10.672 -1.3802 -1.5733 -0.2782
 6844TIP3   OH242022   6.353   5.090   3.557 -0.0668 -0.1857 -0.6779
 6844TIP3    H142023   6.335   5.184   3.556 -0.9410 -0.3555 -1.6883
 6844TIP3    H242024   6.405   5.074   3.478  3.7217  0.0706  1.4915
 6845TIP3   OH242025   3.547   5.795   3.303 -0.3601  0.0197  0.6011
 6845TIP3    H142026   3.545   5.699   3.306 -2.4520 -0.1948 -2.8124
 6845TIP3    H242027   3.464   5.821   3.343 -1.7134  0.0747 -2.0508
 6846TIP3   OH242028   6.127   1.984  14.747 -0.6101 -0.0812  0.1765
 6846TIP3    H142029   6.178   1.933  14.809 -1.3312 -0.4498  0.4867
 6846TIP3    H242030   6.180   2.061  14.728 -0.1317 -0.2555  0.7980
 6847TIP3   OH242031   2.892   0.665  14.856  0.4906 -0.0693  0.4932
 6847TIP3    H142032   2.987   0.679  14.854  0.4045  0.7728  1.4195
 6847TIP3    H242033   2.881   0.579  14.896  0.8396  0.3389  1.5044
 6848TIP3   OH242034   0.694   6.086  15.768 -0.2553  0.2004  0.7313
 6848TIP3    H142035   0.781   6.125  15.774 -0.6689  1.0388  1.6107
 6848TIP3    H242036   0.651   6.134  15.697  0.3100 -0.8665 -0.3463
 6849TIP3   OH242037   5.665   3.086  12.733  0.3559  0.1126  0.1779
 6849TIP3    H142038   5.588   3.099  12.788 -1.5103 -1.2961 -1.8683
 6849TIP3    H242039   5.690   3.174  12.705 -0.9764  0.5829  0.3686
 6850TIP3   OH242040   2.011   0.974   0.635 -0.3192 -0.5208 -0.2986
 6850TIP3    H142041   1.961   0.947   0.558 -1.9797  1.5588 -0.0497
 6850TIP3    H242042   2.045   1.061   0.611  0.7818 -0.6814  0.6101
 6851TIP3   OH242043   2.616   1.571  13.568 -0.3411 -0.0856 -0.5163
 6851TIP3    H142044   2.551   1.641  13.573  1.0551  1.2495 -0.4674
 6851TIP3    H242045   2.611   1.538  13.479 -0.9152  0.1625 -0.5746
 6852TIP3   OH242046   1.775   6.416   5.732 -0.4287  0.0368  0.0360
 6852TIP3    H142047   1.704   6.462   5.687  0.1165  1.0706  0.1990
 6852TIP3    H242048   1.760   6.324   5.712 -2.4190  0.1123  0.9073
 6853TIP3   OH242049   0.380   0.785  16.574 -0.5653  0.0745  0.2742
 6853TIP3    H142050   0.346   0.715  16.518  1.0321 -0.1085 -0.5381
 6853TIP3    H242051   0.304   0.817  16.622 -1.6081 -1.1703 -0.4879
 6854TIP3   OH242052   5.172   1.684  12.697  0.7479  0.1056  0.0523
 6854TIP3    H142053   5.260   1.699  12.662  1.2636  0.2117  1.3493
 6854TIP3    H242054   5.115   1.736  12.640  1.5055 -0.0443 -0.8668
 6855TIP3   OH242055   5.186   3.404   5.115 -0.1679 -0.5787 -0.0317
 6855TIP3    H142056   5.240   3.329   5.089 -2.0743 -1.8542 -0.5044
 6855TIP3    H242057   5.200   3.412   5.210  1.6974 -0.1171 -0.2986
 6856TIP3   OH242058   6.211   0.325  14.108  0.0625  0.4416  0.2526
 6856TIP3    H142059   6.165   0.287  14.183  0.3854  1.0873  0.8048
 6856TIP3    H242060   6.301   0.293  14.117  0.1462  0.6720  0.2648
 6857TIP3   OH242061   5.219   5.474   2.540  0.5259  0.0107  0.1227
 6857TIP3    H142062   5.130   5.475   2.576 -0.1244  0.2761 -1.4110
 6857TIP3    H242063   5.267   5.414   2.597 -0.5592  0.0738  1.1435
 6858TIP3   OH242064   4.951   0.163   5.090 -0.2563 -0.5094  0.1884
 6858TIP3    H142065   4.883   0.230   5.086 -1.0201 -1.2245  0.7750
 6858TIP3    H242066   4.903   0.080   5.087  0.3857 -1.0620  2.7836
 6859TIP3   OH242067   2.553   1.994  12.586  0.0119  0.9353  0.4354
 6859TIP3    H142068   2.536   1.922  12.526  0.8121  1.0335  0.0762
 6859TIP3    H242069   2.467   2.023  12.614 -0.4408  1.6555 -1.5664
 6860TIP3   OH242070   6.239   4.301   3.436 -0.7625 -0.2482  0.6212
 6860TIP3    H142071   6.235   4.394   3.412 -0.0616 -0.6550 -1.2101
 6860TIP3    H242072   6.316   4.268   3.391 -0.4952 -1.5459  1.9746
 6861TIP3   OH242073   6.451   4.474  11.935 -0.1682  0.2337  0.3755
 6861TIP3    H142074   6.517   4.470  12.004 -0.0177  1.1735  0.3035
 6861TIP3    H242075   6.368   4.458  11.979 -0.0960  1.0479  0.8343
 6862TIP3   OH242076   5.545   4.215  15.822 -0.2848 -0.2864  0.1037
 6862TIP3    H142077   5.482   4.275  15.862  1.0162  1.4116 -0.2747
 6862TIP3    H242078   5.554   4.247  15.732  1.7693  0.1042  0.3995
 6863TIP3   OH242079   2.000   3.942  14.581  0.6524 -0.0051  0.1909
 6863TIP3    H142080   2.023   3.860  14.624 -0.0124  0.2963  1.1646
 6863TIP3    H242081   1.905   3.947  14.589  0.6647  0.7573 -0.0358
 6864TIP3   OH242082   5.611   4.572  13.544 -0.0834  0.0439  0.5083
 6864TIP3    H142083   5.536   4.521  13.575 -0.1370  0.0726  0.4258
 6864TIP3    H242084   5.589   4.596  13.454  0.0126  0.0755  0.4925
 6865TIP3   OH242085   5.042   4.697   1.029  0.5795 -0.2909  0.2719
 6865TIP3    H142086   5.062   4.771   0.971 -0.6794  0.3905  0.6556
 6865TIP3    H242087   5.122   4.645   1.030  2.0079  1.7779  1.0549
 6866TIP3   OH242088   6.643   3.641   3.306  0.6604 -0.0419 -0.5733
 6866TIP3    H142089   6.632   3.718   3.362 -0.8993 -0.9968  0.5186
 6866TIP3    H242090   6.721   3.598   3.340 -0.1710 -0.5229  0.8315
 6867TIP3   OH242091   0.216   1.934   3.148 -0.1426  0.1563 -0.3193
 6867TIP3    H142092   0.217   1.909   3.055  0.3009  0.8365 -0.5026
 6867TIP3    H242093   0.137   1.892   3.183 -2.1803  2.4994 -1.7566
 6868TIP3   OH242094   6.796   2.999  15.591  0.8149 -0.8984  0.0728
 6868TIP3    H142095   6.787   2.916  15.638 -0.3546  0.2537  2.0231
 6868TIP3    H242096   6.855   3.051  15.645 -1.0354  0.6887  0.6755
 6869TIP3   OH242097   4.000   3.690   5.220  0.5047  0.1577 -0.7177
 6869TIP3    H142098   4.062   3.734   5.278 -0.1118  0.4986 -0.3053
 6869TIP3    H242099   3.967   3.616   5.270  1.4139 -0.6931 -1.3524
 6870TIP3   OH242100   5.588   0.255  13.673  0.1141  0.7164 -0.3514
 6870TIP3    H142101   5.678   0.271  13.645 -0.4176  1.9972 -1.4349
 6870TIP3    H242102   5.572   0.320  13.742  1.1392 -1.8657  2.5302
 6871TIP3   OH242103   5.934   0.499  15.807  0.3361 -0.1568  0.2543
 6871TIP3    H142104   6.016   0.489  15.759  0.6456 -0.3881  0.8218
 6871TIP3    H242105   5.876   0.432  15.771  0.7948 -0.7880  0.6848
 6872TIP3   OH242106   0.595   5.935  15.286  0.4657 -0.7829 -0.3230
 6872TIP3    H142107   0.520   5.926  15.226  0.8527 -0.9266 -0.7951
 6872TIP3    H242108   0.620   6.027  15.278  0.4577 -0.7798 -0.3105
 6873TIP3   OH242109   3.280   6.530  16.646  0.9656 -0.1576 -0.0716
 6873TIP3    H142110   3.260   6.437  16.645  1.0307 -0.1724  0.0536
 6873TIP3    H242111   3.369   6.536  16.609  1.3845 -0.2436  0.8972
 6874TIP3   OH242112   0.702   4.340  14.093 -0.0998 -0.0732 -0.3692
 6874TIP3    H142113   0.622   4.326  14.043  0.5403  2.7844 -2.5087
 6874TIP3    H242114   0.694   4.430  14.126  1.1057 -0.6510  1.6432
 6875TIP3   OH242115   4.320   0.743  13.949  0.2552 -0.6010  0.0762
 6875TIP3    H142116   4.323   0.718  14.041  1.4520 -0.8156  0.0030
 6875TIP3    H242117   4.322   0.839  13.950 -1.5258 -0.5341  0.2927
 6876TIP3   OH242118   3.471   2.489   4.713  0.2451  0.1983 -0.0940
 6876TIP3    H142119   3.419   2.483   4.793  1.4234 -1.4820  0.5929
 6876TIP3    H242120   3.518   2.571   4.720 -0.8276  0.8135  0.1715
 6877TIP3   OH242121   3.032   6.255   5.474  0.3464 -0.5417  0.0545
 6877TIP3    H142122   2.997   6.335   5.512 -0.2560 -0.7259 -0.0971
 6877TIP3    H242123   3.081   6.214   5.545 -0.3217 -0.6179  0.4795
 6878TIP3   OH242124   3.881   6.312   1.790 -0.4579 -0.1031  0.4348
 6878TIP3    H142125   3.868   6.225   1.754  0.7463  0.1881 -0.8163
 6878TIP3    H242126   3.793   6.348   1.802 -0.9298 -0.4380 -1.7259
 6879TIP3   OH242127   0.589   5.865  16.120 -0.0710  0.0784  0.2113
 6879TIP3    H142128   0.623   5.787  16.163  1.9292  0.9625  0.3376
 6879TIP3    H242129   0.631   5.938  16.166  0.3766  1.1336 -1.7612
 6880TIP3   OH242130   5.519   2.569  15.890  0.7041 -0.0939 -0.5985
 6880TIP3    H142131   5.481   2.482  15.881 -0.1392 -0.0783  2.0127
 6880TIP3    H242132   5.456   2.627  15.848 -0.1460 -0.4954  0.0881
 6881TIP3   OH242133   1.585   2.808   1.881 -0.0191  0.1536 -0.1235
 6881TIP3    H142134   1.676   2.780   1.885  0.1774  0.8215  0.2495
 6881TIP3    H242135   1.583   2.890   1.931 -1.0505 -0.4653  0.8995
 6882TIP3   OH242136   2.620   3.692   3.033 -0.3601 -0.4653  0.3631
 6882TIP3    H142137   2.643   3.762   2.972 -0.7500 -1.6851 -1.2458
 6882TIP3    H242138   2.569   3.735   3.101 -0.0047  0.9276 -0.2182
 6883TIP3   OH242139   1.171   2.368  12.659 -0.0793  0.8933  0.3682
 6883TIP3    H142140   1.149   2.443  12.715  1.5084  1.5366  0.1804
 6883TIP3    H242141   1.184   2.296  12.721  0.4384  1.2947  0.7443
 6884TIP3   OH242142   6.562   0.381   4.443  0.1340  0.2385 -0.5410
 6884TIP3    H142143   6.574   0.472   4.469  2.4203 -0.4154  0.9594
 6884TIP3    H242144   6.491   0.349   4.498  1.0222  0.4643  0.7675
 6885TIP3   OH242145   4.046   6.581   3.958  0.3691 -0.0375 -0.6579
 6885TIP3    H142146   3.953   6.584   3.934 -0.1096 -1.2284  0.8721
 6885TIP3    H242147   4.063   6.488   3.974  1.2098  0.4080  1.2665
 6886TIP3   OH242148   3.569   4.562  12.980 -0.1455  0.2242 -0.0741
 6886TIP3    H142149   3.495   4.590  12.925 -1.5576 -0.1694  1.5335
 6886TIP3    H242150   3.645   4.607  12.942 -1.4180  1.7794 -0.9451
 6887TIP3   OH242151   3.264   4.030   4.429 -0.5596  0.1430  0.2568
 6887TIP3    H142152   3.333   4.010   4.365 -2.3921 -0.1703 -1.7341
 6887TIP3    H242153   3.265   3.955   4.489  0.6199 -0.0003  0.0886
 6888TIP3   OH242154   5.563   4.503   5.846 -0.5408 -0.2886 -0.2616
 6888TIP3    H142155   5.553   4.511   5.941 -0.4532  0.9475 -0.3379
 6888TIP3    H242156   5.500   4.566   5.810  1.6671  1.6929 -0.9255
 6889TIP3   OH242157   5.889   0.638   0.290 -0.3406  0.4759 -0.3937
 6889TIP3    H142158   5.878   0.708   0.354  1.9049  0.1545  0.4459
 6889TIP3    H242159   5.804   0.632   0.246 -1.0724  2.6563  0.5556
 6890TIP3   OH242160   6.800   2.940   1.465 -0.0513  0.0410 -0.0987
 6890TIP3    H142161   6.817   2.870   1.527  0.7522 -1.2705 -1.7196
 6890TIP3    H242162   6.874   3.000   1.474 -0.1870  0.1165  0.5306
 6891TIP3   OH242163   1.953   5.262  14.281  0.1321  0.3061  0.3945
 6891TIP3    H142164   1.945   5.286  14.374 -1.4110  3.1464 -0.3273
 6891TIP3    H242165   1.867   5.282  14.245  0.5563 -1.2107 -1.6035
 6892TIP3   OH242166   1.064   2.252   0.918  0.0039 -0.2959  0.0757
 6892TIP3    H142167   1.135   2.316   0.927 -0.1302 -0.1801  0.3193
 6892TIP3    H242168   1.040   2.230   1.008  0.9500 -1.6993  0.0241
 6893TIP3   OH242169   5.458   6.046   6.160 -0.2601  0.7224  0.2354
 6893TIP3    H142170   5.488   6.127   6.202 -2.9232  0.8820  2.0995
 6893TIP3    H242171   5.493   5.976   6.217  0.4921  0.6314 -0.3224
 6894TIP3   OH242172   5.258   3.514  13.309  0.3756  1.0663 -0.6548
 6894TIP3    H142173   5.235   3.607  13.309 -1.5787  0.6270 -1.0363
 6894TIP3    H242174   5.196   3.474  13.247  1.0560 -0.5243 -0.3583
 6895TIP3   OH242175   5.672   4.769   2.442  0.0111  0.2660  0.3489
 6895TIP3    H142176   5.643   4.727   2.523 -2.0087  0.7439 -0.0855
 6895TIP3    H242177   5.653   4.862   2.454 -0.1464  0.3692 -0.6067
 6896TIP3   OH242178   2.520   6.279   5.256 -0.1289 -0.4028  0.0869
 6896TIP3    H142179   2.554   6.306   5.171 -0.8314  0.3363  0.0236
 6896TIP3    H242180   2.470   6.200   5.238 -0.3475 -0.1994 -0.2034
 6897TIP3   OH242181   6.081   4.897  12.830 -0.0151 -0.8063 -0.1666
 6897TIP3    H142182   6.161   4.844  12.822  2.1053  2.1237 -0.0229
 6897TIP3    H242183   6.098   4.955  12.905 -2.1290  0.1789 -0.3824
 6898TIP3   OH242184   3.305   1.089  11.580  0.0136 -0.3731 -0.1101
 6898TIP3    H142185   3.265   1.109  11.665 -0.4319 -2.7339  0.2961
 6898TIP3    H242186   3.257   1.143  11.518 -1.2723 -0.3447  0.8647
 6899TIP3   OH242187   1.064   3.698  15.711  0.3104 -0.7557  0.5563
 6899TIP3    H142188   1.065   3.628  15.776 -1.0778 -1.6458 -0.3236
 6899TIP3    H242189   1.078   3.654  15.627  1.4098  0.2881  0.1709
 6900TIP3   OH242190   5.287   5.610  11.332  0.4455  0.0427 -0.3953
 6900TIP3    H142191   5.218   5.544  11.326  0.1346  0.4225 -1.2820
 6900TIP3    H242192   5.290   5.649  11.244  0.7498  1.0743  0.0556
 6901TIP3   OH242193   3.411   2.809   0.982 -0.1605 -0.4858  0.6056
 6901TIP3    H142194   3.437   2.784   1.071 -1.1380  0.9308  1.3374
 6901TIP3    H242195   3.489   2.792   0.929  1.1379  0.4515  2.0903
 6902TIP3   OH242196   1.115   2.828   1.120  0.0088  0.3779  0.2727
 6902TIP3    H142197   1.190   2.819   1.062 -2.0510 -1.8135 -2.3906
 6902TIP3    H242198   1.108   2.922   1.138  1.2622  1.0639 -2.4016
 6903TIP3   OH242199   3.493   4.723   2.520  0.0578  0.6487 -0.6491
 6903TIP3    H142200   3.442   4.642   2.526  0.5782  0.3393 -0.3535
 6903TIP3    H242201   3.444   4.777   2.459 -1.1571  0.7408  0.3578
 6904TIP3   OH242202   4.736   6.030   5.503  0.3698  0.1565  0.1876
 6904TIP3    H142203   4.768   6.055   5.416  0.3528 -0.8786 -0.1344
 6904TIP3    H242204   4.811   6.045   5.561  0.2539  1.2358  0.0772
 6905TIP3   OH242205   5.804   0.504  12.558  0.7714  0.3236 -0.3571
 6905TIP3    H142206   5.781   0.506  12.465  0.0775 -0.1603 -0.1999
 6905TIP3    H242207   5.794   0.594  12.587  2.9494  0.9038 -1.1983
 6906TIP3   OH242208   0.701   4.893   0.063 -0.0171  0.0281 -0.3445
 6906TIP3    H142209   0.628   4.851   0.108  0.6263 -0.5216  0.2062
 6906TIP3    H242210   0.663   4.971   0.022 -0.3796  1.2989  2.2466
 6907TIP3   OH242211   0.414   0.147  12.291  0.3548  0.3180 -0.1409
 6907TIP3    H142212   0.399   0.169  12.199 -0.7738  1.1217  0.2131
 6907TIP3    H242213   0.493   0.094  12.290  0.7693  0.9120 -1.5032
 6908TIP3   OH242214   2.808   4.974   1.277 -0.1878  0.1787 -0.6846
 6908TIP3    H142215   2.840   4.904   1.333 -1.5957  0.1460  0.1317
 6908TIP3    H242216   2.887   5.015   1.241  0.6750 -2.8182 -2.5088
 6909TIP3   OH242217   5.237   5.572  13.513  0.0579  0.4672  0.7852
 6909TIP3    H142218   5.296   5.615  13.575  0.1685 -1.8338  2.4240
 6909TIP3    H242219   5.260   5.479  13.519 -1.2809 -0.0657 -1.2894
 6910TIP3   OH242220   1.501   2.763  11.878 -0.1332  0.4026  0.2509
 6910TIP3    H142221   1.588   2.737  11.850 -0.5646  0.2988 -1.0401
 6910TIP3    H242222   1.515   2.808  11.961  1.2599  1.3561 -0.4688
 6911TIP3   OH242223   6.156   0.653   0.315  0.1850 -0.3927  0.7701
 6911TIP3    H142224   6.165   0.749   0.316  1.2684 -0.4494 -0.4499
 6911TIP3    H242225   6.062   0.638   0.320 -0.0363  0.7581  0.4377
 6912TIP3   OH242226   3.658   2.438  12.884 -0.1972  0.1249  0.8925
 6912TIP3    H142227   3.583   2.402  12.933  0.4868  0.3719  2.1638
 6912TIP3    H242228   3.637   2.531  12.875  0.1652  0.2961  1.6941
 6913TIP3   OH242229   1.047   3.333   4.025  0.5328  0.3636 -0.3212
 6913TIP3    H142230   1.138   3.354   4.003  1.0785  1.0479  2.2536
 6913TIP3    H242231   1.053   3.259   4.085 -0.5453  0.8030  0.3704
 6914TIP3   OH242232   1.829   6.395   2.166  0.0009 -0.0360 -0.2670
 6914TIP3    H142233   1.823   6.355   2.253 -1.6720  0.4106 -0.1545
 6914TIP3    H242234   1.898   6.345   2.122  0.5243 -0.6021  1.1269
 6915TIP3   OH242235   4.795   1.060  14.924  0.4429  0.4054  0.6189
 6915TIP3    H142236   4.804   1.151  14.949  0.8973  0.5293  0.0301
 6915TIP3    H242237   4.727   1.025  14.982  1.5320  0.6339  2.0888
 6916TIP3   OH242238   3.421   2.785  16.507  0.1472  0.3407  0.2700
 6916TIP3    H142239   3.490   2.743  16.558 -1.3104 -1.1061  1.1575
 6916TIP3    H242240   3.351   2.802  16.570 -2.3619 -2.9284 -1.3078
 6917TIP3   OH242241   6.507   0.955   2.506 -0.0742 -0.1215 -0.3666
 6917TIP3    H142242   6.481   0.892   2.438  1.4934 -1.5884  0.3191
 6917TIP3    H242243   6.426   0.972   2.555 -0.7219 -0.9033 -1.1480
 6918TIP3   OH242244   2.760   4.271   5.119  0.0940  0.0169  0.0368
 6918TIP3    H142245   2.826   4.214   5.080  1.6750  1.4749  0.4215
 6918TIP3    H242246   2.745   4.340   5.054  1.7035  1.6804  1.3081
 6919TIP3   OH242247   3.826   5.895  15.854 -0.6236  0.0907  0.3301
 6919TIP3    H142248   3.853   5.984  15.833 -1.6964  0.2632 -0.3594
 6919TIP3    H242249   3.871   5.875  15.937  0.6082  0.8005 -0.1492
 6920TIP3   OH242250   3.023   1.823  11.645  0.1565 -0.2807 -0.3087
 6920TIP3    H142251   3.093   1.757  11.641 -0.0135 -0.5456  0.8353
 6920TIP3    H242252   3.051   1.884  11.713 -0.6670 -0.3176  0.0722
 6921TIP3   OH242253   0.972   2.339   1.513 -0.1535  0.5484 -0.3020
 6921TIP3    H142254   0.930   2.288   1.581  2.8775 -0.3267  1.0941
 6921TIP3    H242255   0.903   2.356   1.449 -2.6900 -0.1489  2.0610
 6922TIP3   OH242256   5.970   0.867  16.921  0.0227  0.7076  0.3003
 6922TIP3    H142257   6.033   0.822  16.978 -1.4123  0.6255  1.9069
 6922TIP3    H242258   6.005   0.955  16.910 -0.0239  0.9613  1.9686
 6923TIP3   OH242259   5.550   2.808   5.890 -0.2578  0.1743 -0.4480
 6923TIP3    H142260   5.466   2.814   5.843 -0.3748  1.6843 -0.1009
 6923TIP3    H242261   5.533   2.849   5.974  0.6361 -0.2193 -0.0675
 6924TIP3   OH242262   3.844   4.043  13.352  0.1874  0.3872  0.2653
 6924TIP3    H142263   3.822   4.095  13.274  0.6412  0.9426  0.4950
 6924TIP3    H242264   3.904   3.976  13.320 -1.1274 -0.5966 -0.2047
 6925TIP3   OH242265   2.763   0.366  15.443  0.0306 -0.3208  0.0643
 6925TIP3    H142266   2.733   0.379  15.353 -0.2443 -0.9831  0.0534
 6925TIP3    H242267   2.732   0.443  15.490 -0.6074 -0.3999 -0.2206
 6926TIP3   OH242268   2.407   6.158   5.540  0.5669 -0.1762 -0.0275
 6926TIP3    H142269   2.493   6.145   5.498  0.7815 -2.5672  0.9687
 6926TIP3    H242270   2.345   6.161   5.468  1.1241 -2.3810 -0.6839
 6927TIP3   OH242271   1.471   3.543  16.226  0.6955 -0.1403 -0.1562
 6927TIP3    H142272   1.540   3.525  16.162  1.7541  1.8135  0.3587
 6927TIP3    H242273   1.517   3.570  16.305 -0.6085 -1.8828  1.2847
 6928TIP3   OH242274   3.783   1.948  15.201  0.3668 -0.5807  0.3291
 6928TIP3    H142275   3.704   1.897  15.183 -0.7414  1.1108  0.1390
 6928TIP3    H242276   3.845   1.921  15.133  0.4370 -2.8358  1.2228
 6929TIP3   OH242277   2.108   4.475  16.072  0.2682 -0.3896  0.1125
 6929TIP3    H142278   2.131   4.563  16.042 -0.2960 -0.6723 -1.2077
 6929TIP3    H242279   2.161   4.417  16.017  0.9787 -0.8843  1.2804
 6930TIP3   OH242280   6.192   4.877   5.362  0.6448  0.4631 -0.5483
 6930TIP3    H142281   6.099   4.862   5.380  0.1766  1.6594 -1.8255
 6930TIP3    H242282   6.197   4.886   5.266  2.1954 -0.3236 -0.5781
 6931TIP3   OH242283   4.861   3.597  16.893  0.3450 -0.6206 -0.2596
 6931TIP3    H142284   4.936   3.541  16.875  1.0358 -0.2036  1.2578
 6931TIP3    H242285   4.848   3.646  16.811  1.3562 -1.1040 -0.7267
 6932TIP3   OH242286   5.852   4.258  14.971  0.8502  0.3820 -0.3490
 6932TIP3    H142287   5.868   4.309  14.891  2.3766  1.6423  0.6784
 6932TIP3    H242288   5.933   4.268  15.022  0.3211 -1.2545  0.9053
 6933TIP3   OH242289   2.971   6.645   3.695  0.1130  0.0244  0.3073
 6933TIP3    H142290   3.006   6.730   3.666  1.3982 -0.3855  0.6230
 6933TIP3    H242291   3.016   6.581   3.640 -0.2533 -0.5088  0.6276
 6934TIP3   OH242292   0.244   4.781  14.321  0.2370  0.0477 -0.5177
 6934TIP3    H142293   0.289   4.698  14.338 -0.4800 -0.3900 -0.7426
 6934TIP3    H242294   0.160   4.756  14.282 -0.8614  0.7880  1.2442
 6935TIP3   OH242295   4.953   0.919   1.638  0.1070  0.3316 -0.2087
 6935TIP3    H142296   4.974   1.004   1.678  1.7496 -0.2551  0.2747
 6935TIP3    H242297   5.037   0.887   1.606 -0.4944 -1.0979 -0.4152
 6936TIP3   OH242298   3.292   6.524   5.638  0.0825 -0.0509 -0.2690
 6936TIP3    H142299   3.313   6.432   5.651  0.0868 -0.3123 -1.9506
 6936TIP3    H242300   3.197   6.528   5.638 -0.0026 -0.5488 -2.9693
 6937TIP3   OH242301   2.668   4.083  11.213 -0.1845 -0.0892  0.1931
 6937TIP3    H142302   2.576   4.066  11.193  0.0452  0.6247 -1.6796
 6937TIP3    H242303   2.705   3.996  11.232 -1.0530 -0.4843  0.1073
 6938TIP3   OH242304   4.450   3.753  16.932 -0.3870 -0.0502 -0.1129
 6938TIP3    H142305   4.448   3.697  16.854 -0.5446  0.2441 -0.3206
 6938TIP3    H242306   4.527   3.809  16.919  0.2274 -0.7361  0.4624
 6939TIP3   OH242307   1.174   0.468   1.865 -0.8658 -0.1460  0.3359
 6939TIP3    H142308   1.145   0.560   1.862  0.8286  0.5155  2.0385
 6939TIP3    H242309   1.182   0.443   1.773  1.3375  2.3929 -0.3265
 6940TIP3   OH242310   1.981   4.318  10.963 -0.2723 -0.1402  0.3400
 6940TIP3    H142311   1.908   4.257  10.964 -0.8052  0.4696 -0.2790
 6940TIP3    H242312   2.046   4.278  10.904  0.4905 -1.3256  1.9152
 6941TIP3   OH242313   3.049   2.754  14.852  0.5638  0.9869 -0.4053
 6941TIP3    H142314   3.047   2.836  14.803  4.2368  0.7958 -1.1399
 6941TIP3    H242315   3.102   2.694  14.798  1.9321 -0.3168  2.1686
 6942TIP3   OH242316   0.685   5.227   5.817 -0.4521  0.2994 -0.2267
 6942TIP3    H142317   0.676   5.320   5.836 -0.1543  0.1508  0.6538
 6942TIP3    H242318   0.696   5.223   5.722 -0.4762  1.1590 -0.2711
 6943TIP3   OH242319   1.040   2.612  16.268 -0.0434 -0.0335  0.0766
 6943TIP3    H142320   0.954   2.650  16.251 -0.7543 -0.9686  1.3975
 6943TIP3    H242321   1.093   2.637  16.193 -0.5630  3.2393  0.6489
 6944TIP3   OH242322   3.870   2.497   0.157  0.5600 -0.0565  0.4110
 6944TIP3    H142323   3.886   2.468   0.247  1.4025 -0.2685  0.1997
 6944TIP3    H242324   3.957   2.506   0.119  0.2867  1.4575  0.0600
 6945TIP3   OH242325   2.198   0.903  17.027 -0.2829  0.0327 -0.0351
 6945TIP3    H142326   2.262   0.847  16.982  0.6328 -1.6483  3.0520
 6945TIP3    H242327   2.251   0.952  17.091 -1.8834 -0.2201  1.5341
 6946TIP3   OH242328   1.623   2.419   1.289 -0.3285  0.2987  0.5371
 6946TIP3    H142329   1.585   2.478   1.224 -0.9785  0.2196  0.8355
 6946TIP3    H242330   1.563   2.345   1.292 -0.0710  0.1015  0.9165
 6947TIP3   OH242331   2.717   0.456  16.745  0.0048  0.1719 -0.5633
 6947TIP3    H142332   2.748   0.366  16.756 -2.8448 -0.7843  0.8039
 6947TIP3    H242333   2.666   0.454  16.663 -0.2748  0.4644 -0.3997
 6948TIP3   OH242334   2.261   2.991   1.943  0.2339  0.0978  0.6897
 6948TIP3    H142335   2.332   2.946   1.990  2.2062  1.0526 -1.1852
 6948TIP3    H242336   2.297   3.078   1.924 -1.2862  0.4640 -0.7106
 6949TIP3   OH242337   2.495   2.357   0.726  0.1452  0.9121 -0.5725
 6949TIP3    H142338   2.431   2.347   0.655  0.5379  0.4176 -0.8722
 6949TIP3    H242339   2.447   2.336   0.806  0.1678 -0.4999 -0.8902
 6950TIP3   OH242340   0.471   1.307   3.323 -0.3408  0.3011 -0.7227
 6950TIP3    H142341   0.558   1.273   3.299 -0.5700  0.7861 -2.3326
 6950TIP3    H242342   0.414   1.230   3.319 -0.5887  0.5538 -2.9610
 6951TIP3   OH242343   4.679   3.288  13.454 -0.1306 -0.6703 -0.2392
 6951TIP3    H142344   4.649   3.277  13.364  1.2689 -0.6692 -0.7439
 6951TIP3    H242345   4.623   3.356  13.491  0.1998  0.3592 -1.5866
 6952TIP3   OH242346   5.009   3.296   4.440  0.2523 -0.1899 -0.5484
 6952TIP3    H142347   4.979   3.367   4.382  2.4376  1.2459 -0.0371
 6952TIP3    H242348   4.949   3.300   4.514  0.7833  1.7122 -0.1599
 6953TIP3   OH242349   1.743   2.096   5.054 -0.3108 -0.5282 -0.1252
 6953TIP3    H142350   1.834   2.126   5.050 -0.0279 -1.1566  1.0328
 6953TIP3    H242351   1.700   2.140   4.982  0.9424 -0.2896 -0.7599
 6954TIP3   OH242352   0.983   0.571   1.293 -0.0481  0.0525  0.1101
 6954TIP3    H142353   1.026   0.623   1.361 -0.5939 -0.0080  0.5123
 6954TIP3    H242354   0.936   0.503   1.342  0.3481 -0.5864 -0.3911
 6955TIP3   OH242355   1.659   3.626   0.154  0.0184  0.4228 -0.1282
 6955TIP3    H142356   1.751   3.648   0.137 -0.1963  0.2107 -1.6862
 6955TIP3    H242357   1.615   3.641   0.070 -1.1750 -0.5259  0.3006
 6956TIP3   OH242358   4.237   2.534   2.505  0.2252 -0.2390 -0.2598
 6956TIP3    H142359   4.300   2.546   2.576  0.7153 -0.3103 -0.6750
 6956TIP3    H242360   4.197   2.449   2.523  2.0839 -1.4394 -1.3540
 6957TIP3   OH242361   2.581   3.292   4.641 -0.2064  0.1502  0.5364
 6957TIP3    H142362   2.502   3.263   4.688 -0.7907  2.3716  1.0210
 6957TIP3    H242363   2.652   3.275   4.703 -0.4480 -0.6601  0.6113
 6958TIP3   OH242364   2.659   2.391  14.841  0.7003  0.7740 -0.1699
 6958TIP3    H142365   2.729   2.453  14.861 -0.0916  0.7199  3.5480
 6958TIP3    H242366   2.691   2.307  14.873  0.1872  0.0477 -1.4819
 6959TIP3   OH242367   1.669   1.288   4.565  0.5157 -0.3498 -0.0182
 6959TIP3    H142368   1.649   1.242   4.647  2.2722  0.5311  0.9567
 6959TIP3    H242369   1.595   1.349   4.554  0.9961  0.6476  1.8082
 6960TIP3   OH242370   0.247   1.319   0.690 -0.4995 -0.0628 -0.5175
 6960TIP3    H142371   0.281   1.243   0.737  0.7731  1.7223  1.6530
 6960TIP3    H242372   0.174   1.350   0.743  0.1801  1.2881 -0.3165
 6961TIP3   OH242373   1.780   1.863   5.179 -0.5493  0.0211 -0.0843
 6961TIP3    H142374   1.777   1.951   5.141 -0.6496  0.6251  1.2704
 6961TIP3    H242375   1.770   1.805   5.104 -1.9724  1.1850 -0.8625
 6962TIP3   OH242376   6.569   4.607   2.704 -0.5763 -0.3960 -0.3783
 6962TIP3    H142377   6.533   4.585   2.790 -0.8074 -0.4514 -0.4894
 6962TIP3    H242378   6.499   4.655   2.660 -0.0674  0.5882 -0.1285
 6963TIP3   OH242379   3.357   5.683   4.044  0.2928 -0.2131 -0.6322
 6963TIP3    H142380   3.452   5.679   4.042  0.3721  1.2159 -0.8962
 6963TIP3    H242381   3.334   5.664   4.135  0.7377 -1.7628 -0.8250
 6964TIP3   OH242382   2.528   3.386  11.461  0.1681  0.4026 -0.2651
 6964TIP3    H142383   2.613   3.424  11.439  0.4460 -0.2604 -0.3555
 6964TIP3    H242384   2.531   3.377  11.557  0.3796 -0.0311 -0.3099
 6965TIP3   OH242385   1.148   2.522  16.520  0.2230  0.0348  0.0912
 6965TIP3    H142386   1.115   2.535  16.431  0.7844 -1.0079 -0.2808
 6965TIP3    H242387   1.196   2.439  16.516 -0.8626 -0.7238  1.6856
 6966TIP3   OH242388   2.599   0.199  12.425 -0.2164  0.2349  0.2241
 6966TIP3    H142389   2.539   0.247  12.482  0.8438  0.9033  0.8157
 6966TIP3    H242390   2.670   0.172  12.483  0.8042  0.7791 -0.7235
 6967TIP3   OH242391   1.810   3.901   3.288  0.1335 -0.0288 -0.1132
 6967TIP3    H142392   1.899   3.900   3.322 -0.0292 -4.4854  0.7103
 6967TIP3    H242393   1.756   3.922   3.364  0.2932 -0.9367  0.2588
 6968TIP3   OH242394   1.360   6.297   4.767 -0.2015 -0.0091  0.0660
 6968TIP3    H142395   1.314   6.234   4.711 -1.4030  1.4139 -0.6131
 6968TIP3    H242396   1.292   6.355   4.800  0.6468 -0.0510  2.0714
 6969TIP3   OH242397   0.814   4.734   5.722  0.0758  0.4724 -0.8216
 6969TIP3    H142398   0.830   4.643   5.749  1.0966  0.4671 -1.4261
 6969TIP3    H242399   0.800   4.781   5.805  1.5056  0.1352 -0.3679
 6970TIP3   OH242400   1.467   5.173  15.825  0.3428 -0.6097  0.3207
 6970TIP3    H142401   1.489   5.157  15.917  1.3601 -1.9267 -0.1167
 6970TIP3    H242402   1.495   5.093  15.780  1.0500  0.5269 -1.3277
 6971TIP3   OH242403   6.568   6.510   2.509 -0.9106  0.0694  0.0447
 6971TIP3    H142404   6.556   6.474   2.421 -1.0655  0.3507 -0.0493
 6971TIP3    H242405   6.574   6.433   2.565 -0.7652 -0.1143 -0.2167
 6972TIP3   OH242406   0.416   4.132   3.817 -0.1199  0.6582 -0.5099
 6972TIP3    H142407   0.501   4.167   3.842 -0.0147  0.1237 -0.1064
 6972TIP3    H242408   0.405   4.053   3.871 -0.6740  0.4795 -0.8723
 6973TIP3   OH242409   1.946   0.272  14.932 -0.2951 -0.8331 -0.8627
 6973TIP3    H142410   1.946   0.228  15.017 -0.6094 -0.7336 -0.8117
 6973TIP3    H242411   1.936   0.200  14.869  0.6366 -0.9857 -0.8654
 6974TIP3   OH242412   2.389   4.057   2.019  0.3510  0.4078  0.2615
 6974TIP3    H142413   2.312   4.013   2.053  0.7500  0.9309  1.9758
 6974TIP3    H242414   2.458   3.990   2.020 -0.1943 -0.2599 -1.9509
 6975TIP3   OH242415   5.024   5.834   5.083 -0.1034 -0.7207 -0.5310
 6975TIP3    H142416   4.975   5.771   5.137 -0.4141  0.0807  0.1436
 6975TIP3    H242417   5.087   5.873   5.144 -0.7067  0.4717 -0.6439
 6976TIP3   OH242418   2.032   2.031   3.837 -0.4918 -0.1219  0.4883
 6976TIP3    H142419   2.009   2.090   3.765 -1.1732 -0.1849  0.6486
 6976TIP3    H242420   1.957   1.972   3.844  0.3692 -1.3081  0.0278
 6977TIP3   OH242421   3.738   2.053   2.148  0.6080  0.0353 -0.0796
 6977TIP3    H142422   3.750   2.032   2.241 -1.2459  0.4161  0.2724
 6977TIP3    H242423   3.771   1.976   2.102  1.2864 -0.2785  0.8942
 6978TIP3   OH242424   1.388   1.645   5.965  0.0788 -0.8375  0.3299
 6978TIP3    H142425   1.382   1.665   6.058 -0.7852 -1.2648  0.3753
 6978TIP3    H242426   1.404   1.551   5.961  2.6766 -0.4687  0.0838
 6979TIP3   OH242427   3.786   3.626  17.004  0.4374 -0.2695 -0.3462
 6979TIP3    H142428   3.749   3.554  16.954 -0.5708  0.1151 -0.1664
 6979TIP3    H242429   3.849   3.585  17.063 -1.4234 -1.2406  1.0463
 6980TIP3   OH242430   1.606   5.651   6.630 -0.1776  0.0665 -0.3892
 6980TIP3    H142431   1.580   5.737   6.663 -0.1328  0.6327 -1.7597
 6980TIP3    H242432   1.524   5.608   6.606 -0.1973 -0.2658  0.2604
 6981TIP3   OH242433   6.280   3.874   2.235 -0.1781  0.0358 -0.0538
 6981TIP3    H142434   6.217   3.945   2.238  1.6579  1.8654 -1.7196
 6981TIP3    H242435   6.265   3.832   2.149 -1.0338 -1.4611  0.7771
 6982TIP3   OH242436   1.817   5.388   4.898 -0.5089  0.1126  0.4900
 6982TIP3    H142437   1.855   5.302   4.886 -0.3594  0.0566  1.2953
 6982TIP3    H242438   1.838   5.435   4.817 -0.6826 -0.6285  0.0039
 6983TIP3   OH242439   4.745   0.926   4.021 -0.1658  0.1645 -0.8590
 6983TIP3    H142440   4.801   0.989   4.067  0.2008  0.6429 -1.9435
 6983TIP3    H242441   4.783   0.919   3.934 -1.8538  0.5916 -1.6710
 6984TIP3   OH242442   5.964   5.874   0.235  0.4773  0.0266  0.3272
 6984TIP3    H142443   5.997   5.873   0.145 -2.2840  2.1981 -0.8563
 6984TIP3    H242444   5.920   5.789   0.245  1.3818 -0.5075 -0.0669
 6985TIP3   OH242445   5.196   0.142   4.245  0.0042  0.2675  0.1978
 6985TIP3    H142446   5.161   0.190   4.320  0.2693  1.6857 -0.5455
 6985TIP3    H242447   5.285   0.117   4.272 -0.3150 -0.2515  0.7791
 6986TIP3   OH242448   5.487   3.009   4.252 -0.2011 -0.1787  0.2356
 6986TIP3    H142449   5.455   3.099   4.251  0.1465 -0.0249 -1.4220
 6986TIP3    H242450   5.525   2.998   4.339 -0.1887  1.3037  0.4523
 6987TIP3   OH242451   5.988   2.625   3.148  0.4151 -0.1064  0.1961
 6987TIP3    H142452   6.018   2.618   3.057 -0.3778 -1.9493  0.0351
 6987TIP3    H242453   5.895   2.647   3.141  0.0684 -1.4238  0.5118
 6988TIP3   OH242454   1.815   1.321   3.099 -0.0541 -0.0839  0.0054
 6988TIP3    H142455   1.898   1.287   3.065 -0.2494 -1.0991  0.5211
 6988TIP3    H242456   1.752   1.250   3.086 -0.2153 -0.4167  2.1547
 6989TIP3   OH242457   1.985   3.710   5.873  0.6982 -0.0429  0.4350
 6989TIP3    H142458   2.001   3.805   5.873 -1.0094  0.2862  1.4914
 6989TIP3    H242459   1.987   3.686   5.780  1.4145  0.9615  0.1642
 6990TIP3   OH242460   1.555   6.075  16.575  0.7477  0.3975  0.7373
 6990TIP3    H142461   1.478   6.108  16.621  0.8825  0.1460  1.1477
 6990TIP3    H242462   1.521   6.045  16.491  0.2861 -0.3300  1.1777
 6991TIP3   OH242463   4.173   4.015   1.246  0.4414  0.4609 -0.1066
 6991TIP3    H142464   4.120   4.015   1.166  0.8856 -0.3079 -0.4107
 6991TIP3    H242465   4.236   4.087   1.233 -0.7530  1.6374  0.4305
 6992TIP3   OH242466   6.166   4.231   4.709  0.4741 -0.0214  0.0493
 6992TIP3    H142467   6.111   4.220   4.631  2.5494 -0.7967 -1.3870
 6992TIP3    H242468   6.219   4.308   4.691  1.3177 -0.4896  0.4852
 6993TIP3   OH242469   3.356   2.109   0.085 -0.0279 -0.3571 -0.4459
 6993TIP3    H142470   3.289   2.056   0.039 -0.1207 -1.8834  1.3384
 6993TIP3    H242471   3.306   2.179   0.127 -0.1154  0.2067 -1.4509
 6994TIP3   OH242472   5.363   2.521   4.838 -0.3521  0.0953  0.1537
 6994TIP3    H142473   5.346   2.490   4.749 -1.1502 -0.7122  0.5788
 6994TIP3    H242474   5.280   2.561   4.866  0.4323  2.0227 -0.1219
 6995TIP3   OH242475   0.901   3.169  15.392 -0.3078 -0.3314 -0.1935
 6995TIP3    H142476   0.823   3.169  15.447  0.4850 -1.1720  0.9682
 6995TIP3    H242477   0.877   3.222  15.316 -2.2315 -1.1386 -0.1826
 6996TIP3   OH242478   5.743   5.367   1.999  0.2901 -0.6531  0.2378
 6996TIP3    H142479   5.664   5.319   2.024 -0.0917 -0.6227 -0.8803
 6996TIP3    H242480   5.725   5.458   2.024  0.1235 -0.7047  0.3056
 6997TIP3   OH242481   0.171   4.689  15.676 -0.1567 -0.5714  0.3243
 6997TIP3    H142482   0.155   4.783  15.665 -2.7616 -0.8222  1.3931
 6997TIP3    H242483   0.142   4.650  15.594 -1.3485 -0.6338  0.7569
 6998TIP3   OH242484   3.619   6.464   4.881 -0.1167 -0.3045 -0.5975
 6998TIP3    H142485   3.712   6.484   4.879 -0.0633 -0.5874 -1.3094
 6998TIP3    H242486   3.579   6.530   4.823 -0.1527 -1.1396 -1.5514
 6999TIP3   OH242487   0.096   6.158   4.322 -0.5639 -0.6667 -0.5319
 6999TIP3    H142488   0.144   6.236   4.350 -1.5570 -0.3195  0.2756
 6999TIP3    H242489   0.078   6.111   4.403 -1.9486 -0.5666 -0.7562
 7000TIP3   OH242490   4.224   6.264   2.157 -0.5240  0.0045 -0.0679
 7000TIP3    H142491   4.151   6.253   2.097 -1.5678 -0.5481  1.2772
 7000TIP3    H242492   4.204   6.208   2.232  2.1423 -1.5702 -0.4237
 7001TIP3   OH242493   0.059   6.335   5.054  0.7569  0.1854 -0.7785
 7001TIP3    H142494   0.133   6.326   5.114  0.2976  0.3105 -0.1786
 7001TIP3    H242495   0.042   6.429   5.051  0.2037  0.1078 -0.3754
 7002TIP3   OH242496   2.715   2.742   4.782  0.1987  0.9764  0.1074
 7002TIP3    H142497   2.625   2.737   4.751  0.8677  0.1923 -1.8969
 7002TIP3    H242498   2.708   2.734   4.877 -1.8308  1.0075  0.0111
 7003TIP3   OH242499   5.701   5.249  16.106  0.4473 -0.4554 -0.2716
 7003TIP3    H142500   5.787   5.282  16.131  0.0858  0.3254 -0.0462
 7003TIP3    H242501   5.703   5.157  16.133  1.4653 -0.6384 -0.9289
 7004TIP3   OH242502   2.547   1.756  14.541  0.3706 -0.0974 -0.0519
 7004TIP3    H142503   2.543   1.835  14.487 -0.9927 -1.1564 -1.6132
 7004TIP3    H242504   2.455   1.735  14.559  0.7612 -0.5338  1.5869
 7005TIP3   OH242505   5.413   1.227  10.765  0.4886 -0.0977  0.6541
 7005TIP3    H142506   5.496   1.247  10.808  0.4403 -0.4311  0.9065
 7005TIP3    H242507   5.415   1.133  10.751  0.5732  0.0307 -0.2342
 7006TIP3   OH242508   5.326   6.177  13.747 -0.1037  0.2163  0.0740
 7006TIP3    H142509   5.241   6.153  13.711 -0.1242 -2.2224  1.5624
 7006TIP3    H242510   5.306   6.238  13.818 -0.3357  1.9131 -1.3822
 7007TIP3   OH242511   6.646   3.572  13.089  0.0269  0.0226  0.1404
 7007TIP3    H142512   6.633   3.477  13.096 -1.3720  0.0912 -1.0677
 7007TIP3    H242513   6.679   3.585  13.000 -0.4046  0.7190  0.0774
 7008TIP3   OH242514   2.186   3.630   1.393 -0.1382  0.0852 -0.0152
 7008TIP3    H142515   2.197   3.722   1.418  0.0020 -0.3440  1.5629
 7008TIP3    H242516   2.092   3.623   1.373 -0.2278  0.4799  0.2428
 7009TIP3   OH242517   5.206   5.549   1.879 -0.7836  0.0722  0.4156
 7009TIP3    H142518   5.262   5.524   1.953 -1.7811 -3.0648  0.2538
 7009TIP3    H242519   5.265   5.597   1.820  1.4831 -1.9316  0.8532
 7010TIP3   OH242520   5.301   6.103  14.986  0.1197  0.1140  0.5072
 7010TIP3    H142521   5.238   6.035  15.009 -0.6611  0.5648 -0.2934
 7010TIP3    H242522   5.337   6.076  14.902  0.8739 -0.0353  0.8589
 7011TIP3   OH242523   2.524   3.056   5.599 -0.2677  0.0594 -0.0018
 7011TIP3    H142524   2.566   3.136   5.568 -0.5186  0.3497  0.3913
 7011TIP3    H242525   2.519   3.067   5.694 -1.7504  0.3029 -0.0845
 7012TIP3   OH242526   0.639   3.856  16.675 -0.1486 -0.0194  0.2353
 7012TIP3    H142527   0.621   3.828  16.585  2.2457  1.8587 -0.9428
 7012TIP3    H242528   0.565   3.910  16.699 -1.5013 -1.6761 -0.0056
 7013TIP3   OH242529   1.661   0.287  13.767  0.1491  0.2844  0.2127
 7013TIP3    H142530   1.731   0.326  13.715  0.6431 -0.3948  0.3478
 7013TIP3    H242531   1.623   0.360  13.814  1.5730  0.5136  1.0711
 7014TIP3   OH242532   6.676   0.036   2.665 -0.2664  0.5035  0.2338
 7014TIP3    H142533   6.582   0.053   2.665  0.1675  3.3983  1.5210
 7014TIP3    H242534   6.698   0.018   2.756  0.0231 -3.7420 -0.4632
 7015TIP3   OH242535   6.670   2.557   3.599 -0.0777  0.0096 -0.1875
 7015TIP3    H142536   6.639   2.595   3.517  0.7597  0.4391 -0.3100
 7015TIP3    H242537   6.641   2.466   3.596 -0.8559  0.2574 -0.5347
 7016TIP3   OH242538   6.318   1.931   0.079 -0.0819 -0.1533  0.0587
 7016TIP3    H142539   6.268   1.903   0.002 -1.0183  1.5680 -0.0121
 7016TIP3    H242540   6.379   1.996   0.044 -0.5694  0.6972  0.7479
 7017TIP3   OH242541   0.299   2.166  14.801 -0.4214  0.0342 -0.0060
 7017TIP3    H142542   0.391   2.158  14.824  0.0277  1.4872 -1.1393
 7017TIP3    H242543   0.290   2.118  14.719 -0.2488  1.3579 -0.8280
 7018TIP3   OH242544   1.796   3.515   3.997 -0.7873  0.4782 -0.3321
 7018TIP3    H142545   1.800   3.526   3.902  1.4931  1.5357 -0.1686
 7018TIP3    H242546   1.756   3.596   4.029  1.8324  1.8385 -0.2144
 7019TIP3   OH242547   6.665   2.625  12.253 -0.0625 -0.9181 -0.1834
 7019TIP3    H142548   6.599   2.594  12.315  0.0555 -2.1829 -0.6577
 7019TIP3    H242549   6.618   2.682  12.193 -0.1255  0.5453  1.2074
 7020TIP3   OH242550   4.719   0.255   4.912  0.6021  0.0187  0.4954
 7020TIP3    H142551   4.677   0.236   4.996 -1.8630  1.1661 -0.3659
 7020TIP3    H242552   4.698   0.180   4.856 -0.5777  0.6776  0.0074
 7021TIP3   OH242553   4.041   0.842  11.117 -0.1129 -0.0249  0.0409
 7021TIP3    H142554   4.008   0.754  11.134  0.1159  0.2201  1.8803
 7021TIP3    H242555   3.981   0.900  11.165 -0.6420  0.9033 -1.6512
 7022TIP3   OH242556   2.541   5.568  12.050 -0.7490 -0.6781 -0.3564
 7022TIP3    H142557   2.627   5.527  12.037  0.4695  1.3308  0.9188
 7022TIP3    H242558   2.517   5.546  12.140 -0.8072  0.1031 -0.1732
 7023TIP3   OH242559   0.032   1.066  10.400 -0.4970  0.5356  0.8222
 7023TIP3    H142560   0.119   1.045  10.366 -0.4435  1.8396  0.1018
 7023TIP3    H242561   0.040   1.054  10.495  0.7170  1.3954  0.8580
 7024TIP3   OH242562   5.181   5.632   3.775  0.2507 -0.1102  0.8124
 7024TIP3    H142563   5.155   5.719   3.806  1.7511 -0.2838  2.7661
 7024TIP3    H242564   5.111   5.575   3.806 -0.6069  0.3347 -0.2424
 7025TIP3   OH242565   5.213   5.288   1.239 -0.2317 -0.0454 -0.1053
 7025TIP3    H142566   5.277   5.277   1.310 -0.0727  0.0761 -0.2301
 7025TIP3    H242567   5.128   5.276   1.282 -0.1018 -1.0038 -0.0824
 7026TIP3   OH242568   2.317   2.830   4.035  0.0662  0.5782  0.5721
 7026TIP3    H142569   2.223   2.816   4.047  0.1374 -0.8508 -0.2037
 7026TIP3    H242570   2.331   2.922   4.056 -1.4668  0.7637  0.9154
 7027TIP3   OH242571   3.430   5.077  15.456 -0.2347  0.4364 -0.2884
 7027TIP3    H142572   3.458   5.021  15.528 -0.0211  2.4153  1.2631
 7027TIP3    H242573   3.499   5.142  15.448  0.2723 -0.3252 -3.0791
 7028TIP3   OH242574   0.632   5.061  14.463  0.6020  0.3527  0.0245
 7028TIP3    H142575   0.612   5.101  14.547 -3.3095  1.8596 -1.4043
 7028TIP3    H242576   0.682   5.128  14.416 -0.2303  0.9551 -0.0279
 7029TIP3   OH242577   3.982   5.379  11.587  0.1552 -0.2890  0.5417
 7029TIP3    H142578   4.074   5.374  11.611  0.0466  1.3508  1.4319
 7029TIP3    H242579   3.961   5.472  11.589 -1.2488 -0.5295 -0.7573
 7030TIP3   OH242580   3.333   5.034  16.655  0.8667  0.4772  0.0954
 7030TIP3    H142581   3.331   5.005  16.746 -0.6280  0.7300  0.1670
 7030TIP3    H242582   3.347   4.954  16.605 -1.0902 -0.1374  0.4166
 7031TIP3   OH242583   0.655   2.649   5.867 -0.3627  0.1085  0.3998
 7031TIP3    H142584   0.595   2.600   5.922  0.1193 -1.6930 -0.6115
 7031TIP3    H242585   0.734   2.660   5.920 -0.9314  0.9950  1.1028
 7032TIP3   OH242586   5.250   6.376   0.775 -0.5304  0.1484  0.6464
 7032TIP3    H142587   5.265   6.331   0.858  0.7958  0.6515  0.7005
 7032TIP3    H242588   5.299   6.325   0.710 -0.4918  0.4957  0.3974
 7033TIP3   OH242589   6.610   3.332  15.207  0.2205 -0.0825  0.5480
 7033TIP3    H142590   6.560   3.300  15.282 -0.9290 -0.1924 -0.2411
 7033TIP3    H242591   6.620   3.255  15.150  1.9306 -0.2383  1.0122
 7034TIP3   OH242592   6.335   2.298  11.998 -0.1137 -0.2015 -0.3597
 7034TIP3    H142593   6.281   2.345  12.062 -0.3654 -1.4850  0.3969
 7034TIP3    H242594   6.334   2.355  11.920  1.1456  1.9531  1.0966
 7035TIP3   OH242595   6.711   6.140  14.239 -0.3019 -0.4169  0.1304
 7035TIP3    H142596   6.692   6.107  14.327  0.3603  0.0092  0.4352
 7035TIP3    H242597   6.790   6.092  14.213 -1.2794 -1.5951 -0.8163
 7036TIP3   OH242598   1.198   6.338   2.389  0.1196 -0.4860  0.2277
 7036TIP3    H142599   1.136   6.362   2.320  0.6103  4.3121  1.1161
 7036TIP3    H242600   1.284   6.341   2.346  0.2012 -1.2163  0.3159
 7037TIP3   OH242601   2.545   0.564  16.931  0.1192  0.1059  0.7420
 7037TIP3    H142602   2.498   0.483  16.950 -0.4127  0.1637 -0.2544
 7037TIP3    H242603   2.606   0.540  16.862 -0.0946  0.5700  0.3904
 7038TIP3   OH242604   0.853   5.595   6.151 -0.1331 -0.4421  0.1336
 7038TIP3    H142605   0.831   5.594   6.244 -0.7875 -0.6580 -0.0181
 7038TIP3    H242606   0.945   5.572   6.148  0.5434  1.9301  0.8908
 7039TIP3   OH242607   2.871   5.739  10.880 -0.2294  0.0882  0.2416
 7039TIP3    H142608   2.777   5.724  10.878 -0.5947  1.8079  1.9066
 7039TIP3    H242609   2.890   5.781  10.796 -1.1173  0.5796  0.2729
 7040TIP3   OH242610   3.267   0.608  16.612  0.5179  0.0696  0.0339
 7040TIP3    H142611   3.284   0.514  16.604  1.5651  0.3371 -1.4716
 7040TIP3    H242612   3.348   0.649  16.581 -0.1709  1.4729  0.0218
 7041TIP3   OH242613   6.489   3.326  14.439 -0.1310 -0.6789  0.3767
 7041TIP3    H142614   6.576   3.340  14.475 -0.3107  0.6461  0.3446
 7041TIP3    H242615   6.504   3.286  14.354  0.4100 -1.1702  0.6968
 7042TIP3   OH242616   6.838   4.923   4.744 -0.1824  0.5160 -0.0699
 7042TIP3    H142617   6.919   4.906   4.697 -0.0257  1.8280 -0.3274
 7042TIP3    H242618   6.858   4.901   4.835  0.1936  0.0366 -0.2651
 7043TIP3   OH242619   5.639   1.406   2.290 -0.5768 -0.2389 -0.2494
 7043TIP3    H142620   5.652   1.358   2.371 -0.3215 -0.2850 -0.3169
 7043TIP3    H242621   5.560   1.459   2.305  0.9939  1.8849  1.0482
 7044TIP3   OH242622   1.146   4.116   0.682 -0.0188  0.4088  0.1972
 7044TIP3    H142623   1.100   4.159   0.754  1.4490  0.8727  0.8776
 7044TIP3    H242624   1.214   4.064   0.724 -0.3714 -0.8805 -0.7495
 7045TIP3   OH242625   2.566   6.634   4.676 -0.2556 -0.0974 -0.3658
 7045TIP3    H142626   2.490   6.632   4.735  0.4890 -2.5130  0.6204
 7045TIP3    H242627   2.640   6.606   4.731  0.6309 -1.6203 -2.2115
 7046TIP3   OH242628   6.536   2.987  14.420 -0.7620  0.6767  0.0384
 7046TIP3    H142629   6.473   2.915  14.416 -0.8575  0.7637 -0.0280
 7046TIP3    H242630   6.496   3.057  14.368 -0.3106  0.5029 -0.5402
 7047TIP3   OH242631   0.542   4.320  16.892  0.0634 -0.8327 -0.0126
 7047TIP3    H142632   0.473   4.351  16.951  0.4617  0.2323 -0.0883
 7047TIP3    H242633   0.519   4.229  16.875 -0.6965 -0.8256  0.8706
 7048TIP3   OH242634   2.649   1.803  14.223  0.2573  0.3606 -0.2183
 7048TIP3    H142635   2.557   1.789  14.199  0.3769  0.7318 -0.9389
 7048TIP3    H242636   2.646   1.869  14.293  0.0725  2.3707 -2.0113
 7049TIP3   OH242637   1.769   4.305   2.164  0.3624  0.6932  0.6384
 7049TIP3    H142638   1.789   4.383   2.112 -0.3617  0.8710  0.6163
 7049TIP3    H242639   1.726   4.246   2.102  1.4835  0.0037  0.4921
 7050TIP3   OH242640   0.067   6.066   1.921  0.0528 -0.4223  0.3952
 7050TIP3    H142641   0.105   6.139   1.971 -1.8594 -0.6038  2.2629
 7050TIP3    H242642   0.050   6.103   1.835  2.1523  0.3353  0.2473
 7051TIP3   OH242643   0.557   4.233  10.978  0.1097 -0.4199  0.8096
 7051TIP3    H142644   0.637   4.184  10.959  1.2396  0.8906  1.9668
 7051TIP3    H242645   0.492   4.165  10.997  1.2859 -1.4967  1.1702
 7052TIP3   OH242646   5.608   1.856  12.445 -0.1459 -0.3816 -0.1840
 7052TIP3    H142647   5.576   1.938  12.409  0.6025  0.0119  0.0156
 7052TIP3    H242648   5.703   1.863  12.440 -0.0363 -0.6912  1.0006
 7053TIP3   OH242649   5.457   3.875  16.552 -0.0822 -0.1194  0.4582
 7053TIP3    H142650   5.382   3.815  16.557 -0.1375  0.0657  3.4354
 7053TIP3    H242651   5.419   3.959  16.529 -0.4916 -0.4388 -0.0690
 7054TIP3   OH242652   0.375   0.815   0.476  0.3936 -0.1524  0.5329
 7054TIP3    H142653   0.464   0.824   0.441  1.0479 -1.7810  1.6517
 7054TIP3    H242654   0.360   0.720   0.479 -0.8558  0.0555  1.6276
 7055TIP3   OH242655   4.722   0.137  11.704  0.4452 -0.1774  0.3433
 7055TIP3    H142656   4.776   0.060  11.719  2.0771  1.0834  1.1574
 7055TIP3    H242657   4.767   0.186  11.635  0.2033  0.7375  0.8116
 7056TIP3   OH242658   2.311   4.567   5.277  0.1402 -0.3346 -0.0741
 7056TIP3    H142659   2.333   4.474   5.283 -1.2494 -0.7297 -0.6131
 7056TIP3    H242660   2.391   4.608   5.244  0.4998 -1.4889 -0.7181
 7057TIP3   OH242661   5.341   5.945   0.960 -0.4901 -0.0477  0.6163
 7057TIP3    H142662   5.338   5.851   0.979  0.2932 -0.1846  0.1116
 7057TIP3    H242663   5.282   5.985   1.024 -1.4549 -0.9630  0.3244
 7058TIP3   OH242664   4.100   0.158  16.006  0.2603  0.0161 -0.0157
 7058TIP3    H142665   4.146   0.137  15.925  0.4207  0.9847 -0.1826
 7058TIP3    H242666   4.169   0.181  16.068  0.0525  1.0212 -0.1338
 7059TIP3   OH242667   6.601   0.438  11.346  0.3449 -0.2391 -0.0404
 7059TIP3    H142668   6.686   0.453  11.303  0.3539 -2.7793 -1.1001
 7059TIP3    H242669   6.610   0.479  11.432  1.8030  1.5002 -0.9461
 7060TIP3   OH242670   2.055   1.027  14.886 -0.0681 -0.1379 -0.4037
 7060TIP3    H142671   2.059   0.942  14.928  1.2304 -0.0068 -0.2193
 7060TIP3    H242672   2.144   1.043  14.855 -0.0372  1.5786  0.4333
 7061TIP3   OH242673   2.292   2.443   2.181  0.3263 -0.5627 -0.6968
 7061TIP3    H142674   2.386   2.421   2.182  0.1598 -1.3126 -0.1660
 7061TIP3    H242675   2.290   2.538   2.179  1.1205 -0.4775  0.8518
 7062TIP3   OH242676   3.114   6.635   4.197 -0.1539 -0.1211  0.0319
 7062TIP3    H142677   3.112   6.571   4.268  0.1785  0.8372  0.9291
 7062TIP3    H242678   3.042   6.609   4.140  1.5604 -2.9182 -1.1208
 7063TIP3   OH242679   4.678   5.827   3.334  0.5320 -0.9084  0.0885
 7063TIP3    H142680   4.595   5.820   3.382  0.0179  0.1268 -0.6165
 7063TIP3    H242681   4.743   5.793   3.395 -0.5434 -2.9394  0.1907
 7064TIP3   OH242682   1.907   1.288   1.654 -0.2364 -0.0760 -0.0386
 7064TIP3    H142683   1.953   1.330   1.581  0.9290 -1.3870 -0.0989
 7064TIP3    H242684   1.901   1.196   1.629  0.8789 -0.7150  1.8319
 7065TIP3   OH242685   3.243   5.863  11.912  0.0277  0.0174 -0.6381
 7065TIP3    H142686   3.154   5.882  11.943  0.4510  0.1044  0.5609
 7065TIP3    H242687   3.241   5.771  11.888 -0.9849  0.5323 -2.7844
 7066TIP3   OH242688   2.148   2.188  15.194 -0.9298 -0.6588 -0.1330
 7066TIP3    H142689   2.157   2.158  15.104  1.2576 -0.1963 -0.1116
 7066TIP3    H242690   2.056   2.173  15.215 -1.6605 -0.0721 -2.6733
 7067TIP3   OH242691   6.601   0.334   2.491 -0.1577 -0.5683 -0.0452
 7067TIP3    H142692   6.566   0.326   2.402 -1.5682 -0.8200  0.5194
 7067TIP3    H242693   6.607   0.244   2.522 -0.3083 -0.4341  0.3688
 7068TIP3   OH242694   5.324   0.589   3.155  0.6016 -0.1478  0.3083
 7068TIP3    H142695   5.259   0.659   3.156  1.6459  0.9073 -1.2733
 7068TIP3    H242696   5.299   0.532   3.227 -1.0998  1.1047  0.7658
 7069TIP3   OH242697   1.696   5.288  16.320 -0.0520 -0.0378  0.3657
 7069TIP3    H142698   1.663   5.286  16.410  1.9008 -0.8133  1.1231
 7069TIP3    H242699   1.744   5.206  16.311 -0.8711 -0.3378 -1.6821
 7070TIP3   OH242700   2.664   5.591  15.370 -0.4366  0.3601  0.0862
 7070TIP3    H142701   2.725   5.558  15.304 -0.7960 -0.3748  0.1058
 7070TIP3    H242702   2.714   5.656  15.419  0.7644 -1.1424  0.9496
 7071TIP3   OH242703   5.866   3.308  15.894  0.1736  0.4335  0.0810
 7071TIP3    H142704   5.821   3.348  15.820  0.6974  0.4074 -0.2597
 7071TIP3    H242705   5.847   3.365  15.968  1.7775  1.9638 -0.6007
 7072TIP3   OH242706   0.624   0.433   2.318 -0.1315 -0.1745 -0.5311
 7072TIP3    H142707   0.569   0.374   2.369 -0.8480  0.0684 -1.0088
 7072TIP3    H242708   0.571   0.512   2.308  0.5542  0.3039 -0.4671
 7073TIP3   OH242709   1.113   1.778   2.611  0.5277 -0.5799  0.1074
 7073TIP3    H142710   1.129   1.842   2.542  2.6712 -2.4891 -1.3407
 7073TIP3    H242711   1.139   1.822   2.691  3.0636  0.0881 -0.9747
 7074TIP3   OH242712   3.732   4.776   2.643  0.5685 -0.6091  0.6855
 7074TIP3    H142713   3.766   4.715   2.708  1.7218 -2.5577 -1.5811
 7074TIP3    H242714   3.651   4.735   2.611  1.0148 -0.6945 -0.4004
 7075TIP3   OH242715   5.863   1.620   4.818  0.0916 -0.6345 -0.6865
 7075TIP3    H142716   5.938   1.636   4.875  1.7932 -3.3085 -1.9715
 7075TIP3    H242717   5.863   1.694   4.756  1.3875 -0.3560 -0.3696
 7076TIP3   OH242718   4.509   2.676  14.729 -0.3356 -0.3090 -0.4702
 7076TIP3    H142719   4.588   2.719  14.763  0.5588 -1.1220 -1.4631
 7076TIP3    H242720   4.437   2.723  14.772  0.6722  0.2914  0.6555
 7077TIP3   OH242721   1.449   6.789  14.932 -0.7654  0.1992  0.3726
 7077TIP3    H142722   1.492   6.749  14.857 -0.3089 -0.5446  1.0188
 7077TIP3    H242723   1.389   6.853  14.894 -0.7220 -0.3408 -0.6332
 7078TIP3   OH242724   1.432   0.049   2.391 -0.1345 -0.0868  0.1536
 7078TIP3    H142725   1.419   0.031   2.484  0.7067 -0.2831  0.2339
 7078TIP3    H242726   1.415   0.143   2.383  0.6730  0.1073  0.6645
 7079TIP3   OH242727   3.916   3.360  13.829 -0.0492  0.3348 -0.6078
 7079TIP3    H142728   4.000   3.406  13.825 -0.4125  1.3358  1.5639
 7079TIP3    H242729   3.856   3.415  13.780  0.3301  0.1327 -1.3159
 7080TIP3   OH242730   2.889   1.147   0.865 -0.3973  0.3792  1.0061
 7080TIP3    H142731   2.981   1.135   0.840 -0.7059 -0.3898  0.1848
 7080TIP3    H242732   2.893   1.184   0.953  0.6905 -0.0747  1.1665
 7081TIP3   OH242733   3.561   4.207  15.284 -0.9067  0.2134  0.6664
 7081TIP3    H142734   3.522   4.294  15.295 -0.8272  0.3144  0.1519
 7081TIP3    H242735   3.571   4.196  15.190  1.8416  0.8721  0.7945
 7082TIP3   OH242736   4.580   2.761  17.018 -0.1005 -0.0446 -0.1481
 7082TIP3    H142737   4.570   2.796  16.930  1.6448 -0.5659 -0.6000
 7082TIP3    H242738   4.639   2.686  17.007 -0.7179 -0.7908  1.3191
 7083TIP3   OH242739   2.350   2.886  16.738  0.2594  0.4601  0.1677
 7083TIP3    H142740   2.332   2.951  16.806 -0.4479  1.7519 -1.2015
 7083TIP3    H242741   2.379   2.809  16.787 -1.0051  1.0520  1.9791
 7084TIP3   OH242742   1.752   4.652   1.572  0.0310 -0.0732 -0.0643
 7084TIP3    H142743   1.680   4.701   1.611 -0.9157 -1.9883  0.7295
 7084TIP3    H242744   1.710   4.591   1.511  0.9774 -1.0117  0.1844
 7085TIP3   OH242745   4.725   6.691   1.295  0.2992 -0.1588  0.2032
 7085TIP3    H142746   4.798   6.717   1.350  0.5210 -0.2223 -0.0594
 7085TIP3    H242747   4.648   6.698   1.352  0.3793  0.8265  0.2109
 7086TIP3   OH242748   3.717   0.373   1.068  0.1599 -0.3554  0.0288
 7086TIP3    H142749   3.800   0.381   1.114 -0.0581 -0.5567  0.4584
 7086TIP3    H242750   3.686   0.463   1.057 -0.6116 -0.3713  1.7887
 7087TIP3   OH242751   3.458   5.914  12.559 -0.3619  0.4527  0.8685
 7087TIP3    H142752   3.544   5.951  12.538 -1.3184  1.7456 -1.0000
 7087TIP3    H242753   3.397   5.960  12.501 -2.2388 -0.9299  1.6546
 7088TIP3   OH242754   4.383   6.613   3.606  0.6218  0.3685  0.5288
 7088TIP3    H142755   4.340   6.534   3.637  0.1782  0.5037  0.2692
 7088TIP3    H242756   4.476   6.596   3.618  0.5411 -0.2820  0.2755
 7089TIP3   OH242757   4.564   1.283   2.970  0.0543 -0.6046  0.0731
 7089TIP3    H142758   4.544   1.361   2.918  0.4366 -0.2729  0.4185
 7089TIP3    H242759   4.571   1.315   3.060  0.2845 -1.0274  0.2088
 7090TIP3   OH242760   0.006   5.547  11.161 -0.4171 -0.3772  0.5815
 7090TIP3    H142761   0.004   5.552  11.257  1.1516  3.5209  0.6061
 7090TIP3    H242762  -0.068   5.600  11.133 -1.0558 -1.7499 -0.4372
 7091TIP3   OH242763   0.071   5.619   3.366  0.1666  0.8665  0.2143
 7091TIP3    H142764   0.052   5.663   3.449  0.6192  2.3847 -0.4504
 7091TIP3    H242765   0.167   5.614   3.363  0.2649  2.4909 -0.9905
 7092TIP3   OH242766   6.811   6.507  11.494  0.4715 -0.3013  0.1226
 7092TIP3    H142767   6.878   6.442  11.514 -0.7286 -1.7513 -0.3846
 7092TIP3    H242768   6.838   6.544  11.410  0.2008 -1.5333 -0.5324
 7093TIP3   OH242769   1.618   6.691  10.425  0.5556  0.1275  0.7242
 7093TIP3    H142770   1.524   6.680  10.412  0.4356  1.3042  0.4674
 7093TIP3    H242771   1.638   6.775  10.384  2.0954 -1.0144 -1.0225
 7094TIP3   OH242772   1.436   5.468   4.794  0.4868  0.5221  0.2337
 7094TIP3    H142773   1.348   5.506   4.795 -0.3228 -1.2682  0.8726
 7094TIP3    H242774   1.469   5.481   4.884 -1.2330 -3.2537  1.6117
 7095TIP3   OH242775   2.108   1.765  15.148 -0.4515 -0.2213  0.4061
 7095TIP3    H142776   2.039   1.827  15.172 -0.9476 -0.8531  0.6343
 7095TIP3    H242777   2.167   1.765  15.225  0.0454  0.6234  0.0478
 7096TIP3   OH242778   0.275   0.698   0.091  0.1421 -0.2450 -0.7149
 7096TIP3    H142779   0.369   0.715   0.090  0.0934  0.0397 -1.8347
 7096TIP3    H242780   0.237   0.776   0.050 -0.5851 -0.3614 -0.2756
 7097TIP3   OH242781   2.443   0.065  10.865  0.1648 -0.7523 -0.6669
 7097TIP3    H142782   2.404  -0.007  10.817  0.2235 -0.7976 -0.6469
 7097TIP3    H242783   2.384   0.080  10.939 -0.2516 -0.2745 -1.0936
 7098TIP3   OH242784   1.966   4.466  14.450  0.1327  0.2396 -0.2533
 7098TIP3    H142785   1.970   4.380  14.493  1.1846 -0.0800 -0.9473
 7098TIP3    H242786   1.875   4.494  14.461 -0.4955 -1.4290 -0.8724
 7099TIP3   OH242787   1.773   6.809   4.629  0.1461 -0.0479  0.0631
 7099TIP3    H142788   1.835   6.740   4.605 -1.0577 -1.7468  1.5660
 7099TIP3    H242789   1.688   6.766   4.625 -0.8670  1.9494 -0.9323
 7100TIP3   OH242790   1.690   2.358  14.044 -0.0904 -0.8240  0.2689
 7100TIP3    H142791   1.714   2.321  13.958  1.0854 -2.2802  1.1816
 7100TIP3    H242792   1.767   2.406  14.072 -1.2931  1.7539 -0.4886
 7101TIP3   OH242793   4.786   0.366   0.429  0.6144  0.2262 -0.0682
 7101TIP3    H142794   4.845   0.433   0.393  1.3169 -0.2329  0.1953
 7101TIP3    H242795   4.800   0.371   0.523  0.5949 -0.2224 -0.0409
 7102TIP3   OH242796   5.400   4.429  16.343 -0.5504 -0.2055  0.2510
 7102TIP3    H142797   5.316   4.418  16.298 -0.0203 -0.5221 -0.6776
 7102TIP3    H242798   5.390   4.378  16.424 -1.3086 -0.1127  0.2213
 7103TIP3   OH242799   4.885   0.613  14.171 -0.2491 -0.0411  0.2677
 7103TIP3    H142800   4.957   0.605  14.109 -0.4552  1.2108 -0.1605
 7103TIP3    H242801   4.891   0.535  14.225 -0.3208 -1.3919 -1.5971
 7104TIP3   OH242802   5.260   5.402   1.003  0.4032 -0.2827 -0.6557
 7104TIP3    H142803   5.262   5.327   0.942  0.0526 -0.9368  0.1221
 7104TIP3    H242804   5.231   5.365   1.086 -1.1754  0.9549 -0.5903
 7105TIP3   OH242805   2.951   4.667  13.909 -0.6242 -0.3832  0.4570
 7105TIP3    H142806   2.915   4.731  13.970 -0.4145  0.8012 -0.6220
 7105TIP3    H242807   2.898   4.589  13.922 -2.0290  0.5672  0.5818
 7106TIP3   OH242808   4.524   3.475  13.568 -0.6033 -0.0125 -0.1921
 7106TIP3    H142809   4.433   3.503  13.560 -0.5611  0.6451  1.3459
 7106TIP3    H242810   4.566   3.544  13.620  0.7249 -0.4145 -0.6951
 7107TIP3   OH242811   3.639   6.029  11.552 -0.1559  0.8025  0.3365
 7107TIP3    H142812   3.604   6.004  11.638  1.7934  0.7972  1.1895
 7107TIP3    H242813   3.636   5.947  11.501  1.4053  0.0361  1.4089
 7108TIP3   OH242814   3.495   5.563   5.023 -0.3839 -0.7974 -0.2338
 7108TIP3    H142815   3.418   5.506   5.032 -0.7568 -0.4482 -1.0221
 7108TIP3    H242816   3.475   5.617   4.946  0.0659  0.2316  0.3498
 7109TIP3   OH242817   4.298   2.683  13.456  0.1125 -0.0412 -0.1704
 7109TIP3    H142818   4.203   2.675  13.451  0.1441 -1.2320  0.7820
 7109TIP3    H242819   4.320   2.664  13.547  1.1852  1.3667 -0.0854
 7110TIP3   OH242820   3.031   0.229  13.348  0.2561 -0.1057  0.5635
 7110TIP3    H142821   3.068   0.161  13.404  0.4499 -0.0473  0.5053
 7110TIP3    H242822   3.022   0.305  13.405 -1.9674 -0.7837  1.2213
 7111TIP3   OH242823   4.886   6.523  10.770  0.1289 -0.6366  0.4798
 7111TIP3    H142824   4.969   6.502  10.728  0.8008 -1.2314  2.0117
 7111TIP3    H242825   4.876   6.618  10.757  0.9875 -0.5817  0.1753
 7112TIP3   OH242826   3.533   4.667   2.226 -0.3755 -0.4091 -0.0699
 7112TIP3    H142827   3.549   4.746   2.278  0.9149 -0.7791  0.1492
 7112TIP3    H242828   3.615   4.654   2.178  0.8839 -3.5700  2.5504
 7113TIP3   OH242829   3.158   6.831  12.256 -0.2145  0.0625  0.0848
 7113TIP3    H142830   3.113   6.900  12.305  0.5765  0.6237  0.0466
 7113TIP3    H242831   3.148   6.855  12.164 -1.2276 -0.6973 -0.0190
 7114TIP3   OH242832   5.735   1.521  13.816  0.5422  0.6233 -0.1100
 7114TIP3    H142833   5.708   1.435  13.845  1.1114  0.4582 -0.0462
 7114TIP3    H242834   5.684   1.537  13.736  0.7468  0.0412 -0.3654
 7115TIP3   OH242835   4.377   0.421   2.017  0.4198  0.0759  0.6030
 7115TIP3    H142836   4.384   0.489   1.950 -1.9452 -1.1288 -1.0149
 7115TIP3    H242837   4.310   0.453   2.077  0.3420 -0.2021  0.6645
 7116TIP3   OH242838   0.207   2.004   1.925 -0.4201 -0.1775 -0.5905
 7116TIP3    H142839   0.190   1.951   1.848  1.4307 -0.0870 -1.1006
 7116TIP3    H242840   0.242   1.943   1.989  2.6626  0.4673 -1.5081
 7117TIP3   OH242841   5.942   2.636  13.502  0.0993 -0.0658  0.3281
 7117TIP3    H142842   5.883   2.601  13.569  1.7022 -3.3513  0.2093
 7117TIP3    H242843   6.026   2.647  13.546  0.3635  0.9718 -0.3815
 7118TIP3   OH242844   6.559   2.673   4.007 -0.1711 -0.3992  0.0352
 7118TIP3    H142845   6.510   2.638   4.081  0.6811 -0.4651  0.5766
 7118TIP3    H242846   6.628   2.726   4.047 -2.2928  3.3159 -0.6796
 7119TIP3   OH242847   0.252   1.335  12.733 -0.2195 -0.1949  0.2608
 7119TIP3    H142848   0.297   1.419  12.721 -1.4269  0.3786 -0.3574
 7119TIP3    H242849   0.279   1.282  12.657 -1.2879  0.4742 -0.6021
 7120TIP3   OH242850   4.589   2.787   4.375 -0.2456 -0.0718  0.6863
 7120TIP3    H142851   4.670   2.747   4.406 -0.7497 -2.5556 -0.9221
 7120TIP3    H242852   4.608   2.811   4.284 -0.4468  2.1057  1.1658
 7121TIP3   OH242853   2.898   1.979  13.527  1.0185  0.4035  0.2464
 7121TIP3    H142854   2.966   2.036  13.563 -0.5954  2.4057  0.2830
 7121TIP3    H242855   2.921   1.892  13.560  3.2623  1.0679  0.6600
 7122TIP3   OH242856   2.356   4.996  15.203 -0.1160 -0.3828 -0.7088
 7122TIP3    H142857   2.275   5.047  15.193  0.3847  0.1241 -2.7129
 7122TIP3    H242858   2.325   4.907  15.220 -1.1099 -0.1744 -1.2959
 7123TIP3   OH242859   0.315   3.083   0.265 -0.4061  0.1797 -0.1132
 7123TIP3    H142860   0.228   3.117   0.284 -0.6218  0.1219 -0.9828
 7123TIP3    H242861   0.306   2.988   0.267 -0.0357  0.1525  1.2416
 7124TIP3   OH242862   4.482   5.099   4.123 -0.2316 -0.1983 -0.0424
 7124TIP3    H142863   4.558   5.041   4.122 -0.6254 -0.8035  1.6621
 7124TIP3    H242864   4.453   5.098   4.215 -1.3033  1.3185 -0.3390
 7125TIP3   OH242865   2.355   1.635  11.544  0.3257  0.0009 -0.1772
 7125TIP3    H142866   2.423   1.594  11.490 -0.5124 -0.1707 -1.1381
 7125TIP3    H242867   2.397   1.714  11.579  1.2193 -0.4412 -0.2153
 7126TIP3   OH242868   5.804   1.727   4.049  0.6188  0.2012 -0.4717
 7126TIP3    H142869   5.793   1.778   4.129 -1.3665 -0.5292 -0.2358
 7126TIP3    H242870   5.849   1.786   3.989 -0.5803  1.8413  0.1819
 7127TIP3   OH242871   4.220   1.040   4.951 -0.1116 -1.0055 -0.6914
 7127TIP3    H142872   4.261   1.018   5.034  0.1928  0.4786 -0.4220
 7127TIP3    H242873   4.129   1.011   4.960 -0.4933  0.5021  0.7635
 7128TIP3   OH242874   4.404   0.133   1.455 -0.7222  0.1570  0.5043
 7128TIP3    H142875   4.314   0.103   1.442 -0.4249  0.0199 -1.5784
 7128TIP3    H242876   4.454   0.086   1.389  1.0041 -0.1846  1.9982
 7129TIP3   OH242877   5.032   1.598   3.045 -0.2800 -0.6749 -0.6693
 7129TIP3    H142878   5.031   1.679   3.096 -0.5595 -0.1443 -1.5090
 7129TIP3    H242879   5.031   1.528   3.111 -3.2317 -0.0554  0.0823
 7130TIP3   OH242880   6.484   1.432  11.751 -0.4169  0.2390 -0.6961
 7130TIP3    H142881   6.517   1.515  11.785 -1.2485 -0.4285  1.9785
 7130TIP3    H242882   6.447   1.454  11.665 -2.2447  3.0395  0.6586
 7131TIP3   OH242883   4.925   4.594   0.510  0.0792  0.4760 -0.3209
 7131TIP3    H142884   5.020   4.602   0.506  0.1406 -0.1991 -0.3356
 7131TIP3    H242885   4.899   4.647   0.586  0.3814  1.3217 -0.8024
 7132TIP3   OH242886   2.009   4.908  12.721  0.4154 -0.0421  0.2613
 7132TIP3    H142887   2.004   4.890  12.815  0.1039  0.1699  0.2883
 7132TIP3    H242888   1.918   4.899  12.691  0.2776  1.2408  0.2336
 7133TIP3   OH242889   2.219   5.710   5.418  0.2256  0.5939 -0.7321
 7133TIP3    H142890   2.123   5.716   5.417  0.2931  1.6960 -1.0278
 7133TIP3    H242891   2.246   5.769   5.488  0.6924  0.1343 -0.5144
 7134TIP3   OH242892   0.664   5.487   4.017  0.0014 -0.6014  0.5346
 7134TIP3    H142893   0.635   5.538   4.093 -0.0996  1.0643 -0.5807
 7134TIP3    H242894   0.583   5.463   3.972  0.0547 -1.6823  0.9719
 7135TIP3   OH242895   3.583   2.399  14.096 -0.4331  0.2366 -0.5809
 7135TIP3    H142896   3.621   2.321  14.137 -2.4541  0.0181  1.0441
 7135TIP3    H242897   3.602   2.388  14.003 -0.3239 -2.0049 -0.3517
 7136TIP3   OH242898   0.739   2.487   0.037 -0.1795 -0.1782  0.1879
 7136TIP3    H142899   0.700   2.416  -0.014  0.1890 -0.9168  0.9082
 7136TIP3    H242900   0.814   2.517  -0.015 -1.3567  0.9015 -0.9601
 7137TIP3   OH242901   0.205   4.678   2.455  0.7937  0.0638 -0.2592
 7137TIP3    H142902   0.124   4.679   2.507  1.1859  1.5728  0.3938
 7137TIP3    H242903   0.215   4.587   2.427 -1.0919 -0.1716 -0.3065
 7138TIP3   OH242904   0.643   4.926  14.081  0.1120 -0.1354 -0.8547
 7138TIP3    H142905   0.598   4.967  14.155  3.0810 -0.2922  1.2204
 7138TIP3    H242906   0.637   4.832  14.099 -0.2864 -0.2534 -1.5686
 7139TIP3   OH242907   6.288   3.683   3.107 -0.1553  0.0721 -0.9438
 7139TIP3    H142908   6.305   3.593   3.078 -0.1480 -0.6053  0.9890
 7139TIP3    H242909   6.197   3.682   3.135  0.2860  0.2037  0.5685
 7140TIP3   OH242910   3.898   3.701   0.094 -0.3611  0.0620  0.6319
 7140TIP3    H142911   3.806   3.690   0.118 -0.4158 -2.3501 -0.4132
 7140TIP3    H242912   3.897   3.770   0.027 -1.6265 -0.8611 -0.3586
 7141TIP3   OH242913   1.132   1.566  13.994 -0.1119 -0.0250 -0.2684
 7141TIP3    H142914   1.200   1.529  14.051  1.5914  4.2288  0.8724
 7141TIP3    H242915   1.181   1.597  13.917 -1.3058  0.2884 -0.9166
 7142TIP3   OH242916   4.816   0.967  11.670 -0.0311 -0.1448 -0.2168
 7142TIP3    H142917   4.844   0.907  11.601  1.9215 -0.5671  0.8829
 7142TIP3    H242918   4.728   0.996  11.642  0.5301 -0.5668 -2.6746
 7143TIP3   OH242919   2.267   4.724  15.453 -0.2236 -0.0985  0.2808
 7143TIP3    H142920   2.188   4.717  15.399  0.2167 -0.6934 -0.2958
 7143TIP3    H242921   2.246   4.793  15.516 -0.1963  1.6769 -1.5565
 7144TIP3   OH242922   3.543   3.160  16.708  0.5319 -0.0383  0.3067
 7144TIP3    H142923   3.529   3.129  16.798  0.4272 -0.0065  0.3018
 7144TIP3    H242924   3.473   3.225  16.695  0.7431  0.1935  0.3142
 7145TIP3   OH242925   3.611   3.323  11.716  0.4049 -0.2125  0.6654
 7145TIP3    H142926   3.646   3.242  11.679  0.8277  0.5807 -0.7480
 7145TIP3    H242927   3.686   3.381  11.722  0.2892 -0.1952  2.5509
 7146TIP3   OH242928   1.523   4.920   2.020 -0.3224 -0.0990 -0.6470
 7146TIP3    H142929   1.572   4.874   2.088 -1.1131 -0.1620 -0.1084
 7146TIP3    H242930   1.497   5.003   2.061 -0.6143 -0.0439 -0.9410
 7147TIP3   OH242931   4.656   1.746  14.913 -0.2745  0.0561 -0.6148
 7147TIP3    H142932   4.659   1.832  14.870  2.4224 -0.5443 -1.8167
 7147TIP3    H242933   4.690   1.685  14.847 -0.9252 -1.7483  0.6518
 7148TIP3   OH242934   1.765   3.540  14.903 -0.3309  0.2885  0.1782
 7148TIP3    H142935   1.787   3.486  14.826 -0.3362  0.1067  0.3038
 7148TIP3    H242936   1.694   3.492  14.946 -1.1421  0.9898 -0.3505
 7149TIP3   OH242937   6.546   0.231  13.736  0.0698  0.2249  0.3329
 7149TIP3    H142938   6.627   0.180  13.732  0.7163  1.1518  1.2989
 7149TIP3    H242939   6.481   0.170  13.770  0.5751 -0.2652  0.4263
 7150TIP3   OH242940   0.658   2.183  15.700 -0.1822 -0.3660  0.0759
 7150TIP3    H142941   0.713   2.116  15.739  0.9149  0.7151  0.4844
 7150TIP3    H242942   0.594   2.205  15.767  0.9458  0.6361  0.8775
 7151TIP3   OH242943   2.830   4.420  12.463 -0.1695  0.4810  0.2542
 7151TIP3    H142944   2.844   4.497  12.519  0.2741  0.9205 -0.4453
 7151TIP3    H242945   2.855   4.346  12.518 -1.8185  0.7102  1.3850
 7152TIP3   OH242946   1.990   4.137   0.574  0.8991 -0.2289  0.1988
 7152TIP3    H142947   1.902   4.169   0.557  1.0296  0.1034  0.1414
 7152TIP3    H242948   1.984   4.042   0.563  0.7448 -0.1251 -0.6385
 7153TIP3   OH242949   6.141   4.879  12.096 -0.0942  0.3199 -0.3989
 7153TIP3    H142950   6.097   4.798  12.123  1.4706 -0.6101 -0.5246
 7153TIP3    H242951   6.157   4.926  12.178 -1.8174  0.9688 -0.4015
 7154TIP3   OH242952   5.670   5.658   1.805 -0.6476 -0.1674 -0.3880
 7154TIP3    H142953   5.709   5.745   1.795  3.0055 -1.5925 -0.0657
 7154TIP3    H242954   5.685   5.615   1.721 -2.4232 -0.5328 -0.5528
 7155TIP3   OH242955   3.310   4.703   3.871 -0.9062  0.2939 -0.0235
 7155TIP3    H142956   3.345   4.618   3.844  4.4379  2.5036 -1.1671
 7155TIP3    H242957   3.274   4.741   3.791 -0.0726  0.4256 -0.3467
 7156TIP3   OH242958   6.227   4.305   1.324  0.1182  0.1344 -0.6129
 7156TIP3    H142959   6.175   4.235   1.362  0.2830  0.4875  0.2864
 7156TIP3    H242960   6.314   4.295   1.363  0.7768 -0.4853 -2.1304
 7157TIP3   OH242961   4.362   5.372   0.246  0.0888  0.1909 -0.0138
 7157TIP3    H142962   4.288   5.426   0.217  0.9220  2.1951  1.3504
 7157TIP3    H242963   4.327   5.283   0.249 -2.1849  1.0250  0.2898
 7158TIP3   OH242964   4.580   1.268   4.081  0.4547 -0.0768 -0.1639
 7158TIP3    H142965   4.635   1.242   4.007 -0.6653 -0.6223 -0.8302
 7158TIP3    H242966   4.493   1.235   4.059  0.0008  0.1444  1.1968
 7159TIP3   OH242967   1.512   4.189  14.714  0.5370 -0.0959  0.5101
 7159TIP3    H142968   1.471   4.274  14.698  1.8634  0.4240 -0.1996
 7159TIP3    H242969   1.570   4.203  14.789 -0.0215 -0.6666  1.0735
 7160TIP3   OH242970   0.921   1.167   5.098  0.3330 -0.0869 -0.4677
 7160TIP3    H142971   0.950   1.108   5.028 -0.3719 -1.7295  0.5597
 7160TIP3    H242972   0.917   1.111   5.175 -1.2424  1.1106  0.3676
 7161TIP3   OH242973   3.730   2.236  13.526  0.3051  0.0158  0.5075
 7161TIP3    H142974   3.823   2.217  13.537  1.0568  1.9821 -1.5540
 7161TIP3    H242975   3.694   2.161  13.479  0.1392 -1.9637  3.4953
 7162TIP3   OH242976   6.713   5.104   0.718  0.1026  0.4143  0.3812
 7162TIP3    H142977   6.794   5.106   0.667 -1.2934 -0.4252 -2.0433
 7162TIP3    H242978   6.654   5.049   0.667 -1.0516 -1.6017  3.6133
 7163TIP3   OH242979   4.887   2.628  13.771  0.0284 -0.4849  0.5923
 7163TIP3    H142980   4.889   2.575  13.691 -2.4685  2.6879 -1.8158
 7163TIP3    H242981   4.796   2.659  13.777  0.6909  1.2619  3.3927
 7164TIP3   OH242982   2.529   6.092  11.740  0.1117  0.5977 -0.2038
 7164TIP3    H142983   2.596   6.159  11.752  0.9136  0.2780 -2.3756
 7164TIP3    H242984   2.450   6.129  11.778  1.5574  0.8012  2.9036
 7165TIP3   OH242985   5.805   3.068  11.998 -0.3148 -0.2405 -1.0824
 7165TIP3    H142986   5.785   3.086  12.089  2.5741  0.4459 -0.4838
 7165TIP3    H242987   5.728   3.021  11.965 -1.6363 -0.0800  1.5331
 7166TIP3   OH242988   2.691   3.283  16.756  0.0015 -0.7473  0.5560
 7166TIP3    H142989   2.662   3.373  16.773  0.7174 -0.7723  2.0476
 7166TIP3    H242990   2.731   3.287  16.669 -1.0335  0.1051  0.0842
 7167TIP3   OH242991   6.570   3.299   5.427 -0.3991  0.1264  1.1020
 7167TIP3    H142992   6.629   3.373   5.415  0.1374 -0.5967 -1.3889
 7167TIP3    H242993   6.484   3.332   5.397  0.0971 -0.5060 -1.2710
 7168TIP3   OH242994   1.978   2.845  15.064 -0.3647 -0.2851  0.1147
 7168TIP3    H142995   1.976   2.866  15.157  0.7148  0.2579  0.0299
 7168TIP3    H242996   1.978   2.750  15.061 -2.9423 -0.3693  0.5761
 7169TIP3   OH242997   2.612   3.546  13.130  0.2643  0.2852  0.4725
 7169TIP3    H142998   2.683   3.566  13.069  0.3402  0.7597  0.7085
 7169TIP3    H242999   2.583   3.458  13.106  0.5618  0.3092  0.0175
 7170TIP3   OH243000   1.612   1.871   3.405  0.0938  0.0898  0.2942
 7170TIP3    H143001   1.655   1.811   3.344 -0.0094  0.0365  0.2759
 7170TIP3    H243002   1.672   1.875   3.481  0.9639  1.2811 -0.4081
 7171TIP3   OH243003   1.646   1.220   6.127 -0.3573 -0.0664 -0.1037
 7171TIP3    H143004   1.699   1.297   6.144  0.5182 -0.6357 -0.1786
 7171TIP3    H243005   1.708   1.147   6.129 -1.1406 -0.7532 -0.1718
 7172TIP3   OH243006   3.615   1.123   1.685  0.4579 -0.4442 -0.4942
 7172TIP3    H143007   3.619   1.215   1.660  3.4448 -0.1830  0.6106
 7172TIP3    H243008   3.675   1.079   1.626 -0.0947 -1.5145 -0.2841
 7173TIP3   OH243009   0.048   2.764   5.985  0.1991  0.0207 -0.7247
 7173TIP3    H143010   0.126   2.715   5.958  1.3853  0.8878  0.9586
 7173TIP3    H243011  -0.004   2.701   6.035  1.3349  0.2151  0.7594
 7174TIP3   OH243012   2.821   4.557   2.352 -0.1743  0.1384  0.4453
 7174TIP3    H143013   2.792   4.634   2.402 -0.3445 -0.6143  1.5413
 7174TIP3    H243014   2.916   4.568   2.345 -0.2450  0.6614  0.2123
 7175TIP3   OH243015   1.031   3.891   3.923  0.3152  0.2793 -0.0305
 7175TIP3    H143016   0.987   3.807   3.906  0.4283 -0.2301  1.9879
 7175TIP3    H243017   1.067   3.882   4.011  0.3314  2.4706  0.2353
 7176TIP3   OH243018   1.879   5.575   3.658 -0.2928  0.1811 -0.0678
 7176TIP3    H143019   1.928   5.518   3.717 -0.5809 -0.0273 -0.0249
 7176TIP3    H243020   1.939   5.647   3.637  0.8303 -1.1794 -1.7746
 7177TIP3   OH243021   0.278   1.317   4.720 -0.2463 -0.2340  0.6470
 7177TIP3    H143022   0.346   1.384   4.711 -0.9875  0.3802 -0.8328
 7177TIP3    H243023   0.252   1.320   4.812  1.6189 -0.4048  1.2142
 7178TIP3   OH243024   2.023   4.000   3.428  0.2894 -0.3045  0.3269
 7178TIP3    H143025   2.043   4.017   3.520 -0.5770 -0.8961  0.6364
 7178TIP3    H243026   2.088   3.935   3.401 -0.5980 -1.5448  1.0665
 7179TIP3   OH243027   4.574   4.252  11.902  0.3154  0.1109  0.0755
 7179TIP3    H143028   4.548   4.180  11.845 -1.7053  0.3798  0.5987
 7179TIP3    H243029   4.662   4.229  11.931  0.3976 -1.2568 -1.1664
 7180TIP3   OH243030   4.446   0.855  14.329  0.1253 -0.9118 -0.1938
 7180TIP3    H143031   4.437   0.806  14.411 -0.0726 -1.8260 -0.7511
 7180TIP3    H243032   4.511   0.805  14.279 -0.6148 -1.0149 -1.0687
 7181TIP3   OH243033   1.668   5.814  12.889 -0.5560  0.1260 -0.6788
 7181TIP3    H143034   1.761   5.832  12.879  0.0831 -2.5065 -0.3473
 7181TIP3    H243035   1.637   5.799  12.799 -0.3411 -0.2377 -0.6970
 7182TIP3   OH243036   3.594   2.243  11.618  0.3237  0.4048 -0.7787
 7182TIP3    H143037   3.667   2.275  11.672  0.4395  1.2608 -1.4220
 7182TIP3    H243038   3.537   2.319  11.608 -1.3780 -0.5786  0.8181
 7183TIP3   OH243039   0.491   5.594  14.569 -0.7021  0.3741 -0.2828
 7183TIP3    H143040   0.553   5.549  14.512 -0.1452  1.5726 -0.6503
 7183TIP3    H243041   0.537   5.601  14.653 -1.1666 -0.5697  0.0715
 7184TIP3   OH243042   4.403   3.719  11.026  0.6951 -0.4314  0.3388
 7184TIP3    H143043   4.349   3.786  10.984  0.6121  0.2597  1.5290
 7184TIP3    H243044   4.471   3.700  10.962  0.8792  0.9843  0.0954
 7185TIP3   OH243045   3.515   6.661  11.555 -0.2220 -0.2351 -0.1193
 7185TIP3    H143046   3.561   6.745  11.559  1.0408 -0.9223  0.7026
 7185TIP3    H243047   3.529   6.630  11.466 -1.3107  0.7297 -0.6526
 7186TIP3   OH243048   5.639   3.542   4.464 -0.0361 -0.2327 -0.4058
 7186TIP3    H143049   5.638   3.537   4.560  1.9453  1.2180 -0.2588
 7186TIP3    H243050   5.556   3.502   4.438 -0.6853 -0.5623  1.9063
 7187TIP3   OH243051   3.283   0.170   4.431  0.2043 -1.0015 -0.2486
 7187TIP3    H143052   3.272   0.095   4.373 -2.1441  0.3397 -1.7004
 7187TIP3    H243053   3.298   0.244   4.372  0.0237  0.0648  1.0027
 7188TIP3   OH243054   0.952   5.732   0.851 -0.3302 -0.0051  0.2078
 7188TIP3    H143055   0.867   5.741   0.807  0.4592  0.0356 -1.4036
 7188TIP3    H243056   0.935   5.752   0.943 -1.8516  1.0509 -0.2798
 7189TIP3   OH243057   3.976   1.898   5.700  0.0745  0.0297 -0.1228
 7189TIP3    H143058   3.932   1.848   5.769  0.9940  0.3826  0.7471
 7189TIP3    H243059   3.998   1.981   5.742  2.0924 -0.3642 -0.3287
 7190TIP3   OH243060   0.614   5.371  14.358  0.7927  0.3896  0.4354
 7190TIP3    H143061   0.540   5.315  14.382  0.7882  0.8154  1.4520
 7190TIP3    H243062   0.663   5.383  14.440  0.7514  1.9406  0.2630
 7191TIP3   OH243063   4.020   5.364  11.279 -0.4515 -0.0133 -0.1486
 7191TIP3    H143064   4.069   5.444  11.260  0.5630 -0.5534  0.1250
 7191TIP3    H243065   4.017   5.360  11.375 -1.6426  0.3658 -0.1512
 7192TIP3   OH243066   2.959   3.506  14.817 -0.0960  0.4024 -0.0136
 7192TIP3    H143067   2.961   3.598  14.794  0.6706 -0.2458 -2.9732
 7192TIP3    H243068   2.912   3.503  14.901 -0.4087  3.4026  0.0215
 7193TIP3   OH243069   2.226   5.778  12.891 -0.1345  0.1265  0.5012
 7193TIP3    H143070   2.200   5.688  12.872 -1.4857  0.5566  0.1965
 7193TIP3    H243071   2.321   5.774  12.903  0.2464 -0.8666 -2.2986
 7194TIP3   OH243072   6.104   2.140   5.677  0.1709  0.0941 -0.1539
 7194TIP3    H143073   6.146   2.175   5.756 -0.5259  0.2658  0.1469
 7194TIP3    H243074   6.027   2.194   5.665 -0.2309 -0.5303 -0.4186
 7195TIP3   OH243075   6.658   4.206  15.999  0.0678  1.0495  0.3546
 7195TIP3    H143076   6.653   4.302  15.999 -0.3409  1.0663 -1.3522
 7195TIP3    H243077   6.570   4.178  16.023 -0.5210  1.1642 -1.4688
 7196TIP3   OH243078   2.242   2.070  16.579 -0.1680 -0.0449  0.0225
 7196TIP3    H143079   2.300   2.144  16.595  2.1324 -1.8746  0.6954
 7196TIP3    H243080   2.190   2.096  16.503  0.2118  2.3983  0.5294
 7197TIP3   OH243081   3.730   0.397  13.814  0.5740 -0.1181 -0.2666
 7197TIP3    H143082   3.739   0.314  13.767  3.0478 -0.1241  0.0677
 7197TIP3    H243083   3.739   0.373  13.907  0.2434  0.4073 -0.0926
 7198TIP3   OH243084   1.573   5.195  10.744  0.0913 -0.1094  0.2676
 7198TIP3    H143085   1.604   5.285  10.736 -0.9207  0.2338  0.0341
 7198TIP3    H243086   1.630   5.156  10.810  1.2757  0.3609 -0.4587
 7199TIP3   OH243087   2.933   3.625  10.569 -0.2764 -0.1543 -0.1392
 7199TIP3    H143088   2.981   3.570  10.630 -0.6751  0.9840  1.2355
 7199TIP3    H243089   2.915   3.568  10.494 -0.2563 -1.7302  1.0280
 7200TIP3   OH243090   6.264   0.849  15.301 -0.8061 -0.3795 -0.2616
 7200TIP3    H143091   6.304   0.933  15.323 -0.5417 -0.3191 -0.9714
 7200TIP3    H243092   6.198   0.836  15.369 -1.6148  0.9289 -0.7631
 7201TIP3   OH243093   4.259   4.675  14.452 -0.7250 -0.0004 -0.2109
 7201TIP3    H143094   4.201   4.610  14.414  0.1892  0.1110 -1.9151
 7201TIP3    H243095   4.202   4.749  14.474 -1.4015 -0.3606 -0.7150
 7202TIP3   OH243096   2.103   5.512  16.997  0.5306 -0.6127 -0.9479
 7202TIP3    H143097   2.086   5.545  16.909  0.0422  0.5125 -0.4405
 7202TIP3    H243098   2.103   5.417  16.986 -0.5325 -0.5222 -1.9828
 7203TIP3   OH243099   6.527   4.666   0.589  0.4914  0.1823 -0.2140
 7203TIP3    H143100   6.545   4.652   0.496  0.8041  1.5254 -0.3725
 7203TIP3    H243101   6.610   4.649   0.632  0.8762  1.5315 -0.4071
 7204TIP3   OH243102   4.017   2.971  11.530 -0.3937 -0.3253  0.0841
 7204TIP3    H143103   3.979   2.960  11.442  4.0110 -0.1012 -2.1452
 7204TIP3    H243104   4.025   3.066  11.539  1.0232 -0.3956 -0.2575
 7205TIP3   OH243105   1.971   1.425   0.299  0.1078  0.4146 -0.6319
 7205TIP3    H143106   1.887   1.391   0.331 -0.3639  0.7460 -1.4792
 7205TIP3    H243107   1.947   1.491   0.234  1.0295  0.8743 -0.5228
 7206TIP3   OH243108   3.841   3.529   5.389 -0.3661 -0.1609 -0.2864
 7206TIP3    H143109   3.835   3.433   5.381 -1.9337 -0.1802  0.7446
 7206TIP3    H243110   3.790   3.550   5.467  0.9069  1.4339  0.1571
 7207TIP3   OH243111   4.751   2.792  15.614  0.0701 -0.1219 -0.2581
 7207TIP3    H143112   4.717   2.848  15.544  0.1473 -0.1363 -0.3070
 7207TIP3    H243113   4.813   2.734  15.570 -1.5414 -1.6725 -0.6246
 7208TIP3   OH243114   3.236   3.926   3.200  0.5698 -0.2819  0.0543
 7208TIP3    H143115   3.257   3.921   3.293  1.5542  0.4504 -0.1115
 7208TIP3    H243116   3.284   3.853   3.161  1.1017  0.1006 -0.0251
 7209TIP3   OH243117   4.262   0.775   1.952  0.4151 -0.3670  0.4102
 7209TIP3    H143118   4.170   0.803   1.952  0.3880 -0.4554  0.4925
 7209TIP3    H243119   4.266   0.707   1.885  0.7380  0.6731 -0.6467
 7210TIP3   OH243120   0.212   0.233  15.055 -0.5469 -0.1499 -0.1786
 7210TIP3    H143121   0.291   0.286  15.055 -1.5730  1.6646  2.8196
 7210TIP3    H243122   0.231   0.161  15.116 -1.0143 -0.0057  0.1465
 7211TIP3   OH243123   0.734   3.615  14.123 -0.0067 -0.1459 -0.2479
 7211TIP3    H143124   0.722   3.544  14.061 -3.0952  0.2509 -0.2261
 7211TIP3    H243125   0.773   3.686  14.072 -1.1962 -0.3047 -1.4205
 7212TIP3   OH243126   2.425   2.231  14.270 -0.1983 -0.5315  0.4962
 7212TIP3    H143127   2.378   2.300  14.316  0.8344  1.5675 -1.4364
 7212TIP3    H243128   2.366   2.204  14.199  0.3634  0.1623 -0.2550
 7213TIP3   OH243129   0.796   2.485  11.199  0.2523  0.3630  0.0534
 7213TIP3    H143130   0.854   2.443  11.135  1.5962 -0.0818  1.4901
 7213TIP3    H243131   0.853   2.544  11.247 -0.8969  1.2485  0.3658
 7214TIP3   OH243132   3.153   6.653   3.482  0.4386 -0.4818 -0.5654
 7214TIP3    H143133   3.119   6.658   3.393  0.8823 -0.8758 -0.7590
 7214TIP3    H243134   3.168   6.560   3.498  2.2017 -0.2815 -0.7930
 7215TIP3   OH243135   6.393   3.693  16.904  1.0394  0.0895  0.3366
 7215TIP3    H143136   6.470   3.695  16.961  1.0255 -1.1575  0.4138
 7215TIP3    H243137   6.372   3.601  16.895  0.0632  0.3694 -0.3910
 7216TIP3   OH243138   1.943   4.219  15.550  0.3978 -0.2889 -0.3849
 7216TIP3    H143139   1.950   4.314  15.560 -0.9240 -0.3711  2.1480
 7216TIP3    H243140   2.013   4.184  15.605 -1.1132 -0.7557  1.3270
 7217TIP3   OH243141   4.441   2.119   3.107 -0.0724  0.3628  0.5333
 7217TIP3    H143142   4.419   2.147   3.018 -0.1125 -1.0168  0.0969
 7217TIP3    H243143   4.394   2.181   3.163 -1.1335  0.4313 -0.4023
 7218TIP3   OH243144   1.736   1.715  11.233  0.1007 -0.0626  0.0202
 7218TIP3    H143145   1.670   1.754  11.177 -1.6629 -0.7376  1.5243
 7218TIP3    H243146   1.722   1.755  11.319  1.1994 -0.7335  0.5494
 7219TIP3   OH243147   2.993   5.311   1.833  0.6200 -0.3119  0.8737
 7219TIP3    H143148   2.972   5.403   1.818  0.8782 -0.3514  0.2435
 7219TIP3    H243149   2.931   5.283   1.899  0.2114  0.1876  0.7086
 7220TIP3   OH243150   6.715   6.143   4.535  0.5720  0.3740 -0.0214
 7220TIP3    H143151   6.626   6.178   4.531  0.5406  0.2767 -3.8208
 7220TIP3    H243152   6.767   6.213   4.573 -0.7204  1.5388 -0.3208
 7221TIP3   OH243153   3.277   6.774   5.478  0.0410 -0.4298  0.1774
 7221TIP3    H143154   3.277   6.720   5.558 -0.3179 -0.3038  0.2635
 7221TIP3    H243155   3.370   6.794   5.463  0.0742 -0.0760  0.8174
 7222TIP3   OH243156   1.126   5.603   6.108  0.1565  0.2150  0.1070
 7222TIP3    H143157   1.201   5.662   6.096  1.1042 -1.4594 -4.6695
 7222TIP3    H243158   1.160   5.532   6.162  1.1004  0.8634  0.3998
 7223TIP3   OH243159   0.703   6.171   2.159 -0.2639  0.3245 -0.7767
 7223TIP3    H143160   0.631   6.222   2.123  0.4777  1.9430 -0.0813
 7223TIP3    H243161   0.744   6.229   2.223  1.1607 -0.8410 -0.5672
 7224TIP3   OH243162   4.681   0.618  13.291 -0.2762 -0.5327 -0.1083
 7224TIP3    H143163   4.752   0.559  13.267  2.2364  2.6566 -1.2763
 7224TIP3    H243164   4.687   0.626  13.386 -1.4584 -2.9292  0.2351
 7225TIP3   OH243165   3.020   5.042  13.289 -0.0944  0.3568  0.1036
 7225TIP3    H143166   2.950   4.978  13.274  1.7424 -1.9346  0.6527
 7225TIP3    H243167   3.016   5.100  13.213 -2.2210 -0.0217 -0.1227
 7226TIP3   OH243168   4.187   6.756   6.379 -0.2824  0.7078 -0.2584
 7226TIP3    H143169   4.091   6.762   6.375 -0.4363 -1.2344 -3.6640
 7226TIP3    H243170   4.214   6.835   6.426 -3.5467  0.5657  2.2286
 7227TIP3   OH243171   5.563   5.536  14.007 -0.2021  0.2851 -0.4973
 7227TIP3    H143172   5.543   5.478  14.080  0.5379 -1.2429 -1.4445
 7227TIP3    H243173   5.648   5.505  13.974  0.5226  2.3160 -0.6722
 7228TIP3   OH243174   2.226   1.969  15.011 -0.0582 -0.0534  0.0348
 7228TIP3    H143175   2.191   1.909  15.077 -0.2806 -0.7555 -0.7124
 7228TIP3    H243176   2.317   1.943  15.000 -0.9083 -2.4396 -2.5904
 7229TIP3   OH243177   4.552   5.228   3.727  0.4185 -0.0186 -0.5623
 7229TIP3    H143178   4.461   5.234   3.759  0.4672  0.3765 -0.4876
 7229TIP3    H243179   4.543   5.196   3.637  0.1310  0.9763 -0.9060
 7230TIP3   OH243180   5.849   2.128  11.732 -0.9074 -0.0113 -0.0594
 7230TIP3    H143181   5.810   2.042  11.750 -0.1215 -0.6287 -1.2201
 7230TIP3    H243182   5.796   2.189  11.784 -1.9305 -1.1055  0.2312
 7231TIP3   OH243183   5.863   2.415  15.307 -0.0224 -0.8032  0.0242
 7231TIP3    H143184   5.837   2.329  15.274  0.6626 -1.3446  0.8577
 7231TIP3    H243185   5.935   2.441  15.250 -1.8622  0.4348 -1.9100
 7232TIP3   OH243186   6.369   5.268  13.888 -0.5351 -0.6692  0.1392
 7232TIP3    H143187   6.461   5.253  13.911 -0.1964  0.0547 -0.6821
 7232TIP3    H243188   6.373   5.327  13.813 -1.7175  1.2183  1.4674
 7233TIP3   OH243189   5.597   3.245  12.950  0.9889 -0.0120 -0.2051
 7233TIP3    H143190   5.679   3.289  12.971  0.9808  0.0667 -0.3408
 7233TIP3    H243191   5.529   3.299  12.989  1.0446 -0.4749  0.5669
 7234TIP3   OH243192   2.833   5.749  15.753  0.0007  0.1147  0.7368
 7234TIP3    H143193   2.862   5.714  15.669 -3.0094 -0.9315  0.0157
 7234TIP3    H243194   2.884   5.700  15.818 -0.0247 -1.5507 -0.4375
 7235TIP3   OH243195   2.399   2.871  15.236 -0.1901 -0.2212 -0.4768
 7235TIP3    H143196   2.412   2.860  15.142  0.3680 -1.1839 -0.3000
 7235TIP3    H243197   2.431   2.960  15.254 -0.5190  0.0560 -1.2240
 7236TIP3   OH243198   2.891   5.254   4.194  0.3336 -0.4615  0.4838
 7236TIP3    H143199   2.869   5.315   4.264 -2.0956  0.3820 -0.9035
 7236TIP3    H243200   2.904   5.170   4.238  1.9011  0.6090  2.2187
 7237TIP3   OH243201   0.311   2.974   3.809  0.6736 -0.4629 -0.5705
 7237TIP3    H143202   0.403   2.992   3.828 -0.1848  3.3768  1.0916
 7237TIP3    H243203   0.300   3.001   3.718  1.0551  0.0301 -0.4792
 7238TIP3   OH243204   2.680   2.331  11.710  0.0895  0.0598  0.2356
 7238TIP3    H143205   2.691   2.309  11.618 -0.5827  0.4504  0.0581
 7238TIP3    H243206   2.661   2.247  11.752  3.1887 -0.6171  0.5148
 7239TIP3   OH243207   4.236   2.152  12.256  0.3171 -0.7060  0.3047
 7239TIP3    H143208   4.184   2.208  12.199  1.3656 -1.5977 -1.6081
 7239TIP3    H243209   4.186   2.071  12.264  1.1825 -1.4214 -1.2263
 7240TIP3   OH243210   0.931   4.924   1.396 -0.0281 -0.2840  0.1792
 7240TIP3    H143211   0.916   4.914   1.490  1.7286 -0.0032  0.5220
 7240TIP3    H243212   0.931   5.019   1.382  0.1729 -0.3144 -0.0284
 7241TIP3   OH243213   2.367   2.574   3.146  0.3793  0.1583 -0.0350
 7241TIP3    H143214   2.461   2.581   3.130  0.9790 -1.1069  2.4611
 7241TIP3    H243215   2.348   2.481   3.137 -0.2834  0.1663  1.0613
 7242TIP3   OH243216   0.605   1.457   0.514  0.0191  0.2863 -0.0458
 7242TIP3    H143217   0.564   1.399   0.449 -0.9287  1.2372 -0.3236
 7242TIP3    H243218   0.540   1.525   0.529 -0.0971 -0.2880  2.4589
 7243TIP3   OH243219   1.103   0.148   3.512 -0.3595 -0.6029 -0.2683
 7243TIP3    H143220   1.135   0.230   3.549 -0.3925  0.3871 -2.2991
 7243TIP3    H243221   1.158   0.081   3.552 -1.7729  0.0516  3.1616
 7244TIP3   OH243222   2.801   0.705  16.674  0.3284  0.0864 -0.3575
 7244TIP3    H143223   2.774   0.622  16.713 -0.5747  0.2220 -0.6734
 7244TIP3    H243224   2.885   0.725  16.715  0.6499 -1.0812 -0.4221
 7245TIP3   OH243225   0.955   1.966  10.970  0.5199  0.6410  0.3490
 7245TIP3    H143226   1.000   2.016  10.902  1.6836 -1.3983 -0.4506
 7245TIP3    H243227   0.957   2.022  11.047  0.8278  2.2347 -0.7801
 7246TIP3   OH243228   1.932   6.463   5.263 -0.2476 -0.1475 -0.4163
 7246TIP3    H143229   1.874   6.422   5.327 -0.4293 -1.2838 -1.2831
 7246TIP3    H243230   2.014   6.477   5.312 -0.8815  0.4624  0.5012
 7247TIP3   OH243231   1.893   2.525   0.659 -0.6258  0.3112 -0.4427
 7247TIP3    H143232   1.881   2.565   0.745 -0.9936  1.8686 -1.1786
 7247TIP3    H243233   1.818   2.554   0.608  0.3654  0.7240 -1.7416
 7248TIP3   OH243234   3.691   0.127   2.252 -0.3344  0.6318 -0.1010
 7248TIP3    H143235   3.662   0.211   2.215 -0.2730 -0.1423 -2.0360
 7248TIP3    H243236   3.768   0.104   2.200  0.9169  0.3526  1.8004
 7249TIP3   OH243237   5.048   5.953  15.106  0.3422  0.0144 -0.3072
 7249TIP3    H143238   5.068   5.874  15.056 -1.0845  0.4379 -1.5897
 7249TIP3    H243239   4.958   5.941  15.134 -0.2550  1.6484 -1.4293
 7250TIP3   OH243240   2.201   0.232  13.398  0.0072 -0.1628  0.4136
 7250TIP3    H143241   2.280   0.285  13.392 -1.0922  1.6638  0.9789
 7250TIP3    H243242   2.231   0.145  13.421  1.8895  0.2802 -0.2137
 7251TIP3   OH243243   2.801   5.286  13.321  0.1432  0.3415  0.4631
 7251TIP3    H143244   2.815   5.377  13.346 -0.4309  1.6190 -3.2361
 7251TIP3    H243245   2.885   5.243  13.339  0.1075  1.2224  3.2480
 7252TIP3   OH243246   2.257   5.113   1.071 -0.7072  0.1013 -0.2291
 7252TIP3    H143247   2.298   5.077   0.992  1.9875  2.7010 -0.1856
 7252TIP3    H243248   2.262   5.042   1.135 -0.1580 -1.0757 -1.5120
 7253TIP3   OH243249   0.864   1.020  10.352  0.4616  0.7536  0.0115
 7253TIP3    H143250   0.879   0.945  10.294  0.8140  1.1528 -0.4281
 7253TIP3    H243251   0.843   0.982  10.437  0.5115  0.1596 -0.2410
 7254TIP3   OH243252   6.385   0.323  11.426  0.1805 -0.4389  0.3047
 7254TIP3    H143253   6.416   0.306  11.515  0.1555  0.7678  0.5627
 7254TIP3    H243254   6.458   0.367  11.383 -0.2468  0.0890  0.1117
 7255TIP3   OH243255   3.659   6.765   0.208 -0.1712 -0.2455  0.2168
 7255TIP3    H143256   3.745   6.728   0.188 -0.4140 -1.4968  1.3813
 7255TIP3    H243257   3.612   6.763   0.124  1.4863  2.1535 -0.8902
 7256TIP3   OH243258   1.238   0.414  14.156  0.1600 -0.0703  0.3334
 7256TIP3    H143259   1.150   0.376  14.158 -0.6671  1.7238  0.0779
 7256TIP3    H243260   1.268   0.402  14.066 -0.6229  0.9491 -0.0889
 7257TIP3   OH243261   4.728   0.183  10.845 -0.1358 -0.3452 -0.2535
 7257TIP3    H143262   4.752   0.275  10.835  0.8649 -0.6169 -0.4658
 7257TIP3    H243263   4.656   0.171  10.783 -0.2682  0.2851 -0.2358
 7258TIP3   OH243264   3.133   2.129  15.280 -0.0050 -0.7456 -0.0504
 7258TIP3    H143265   3.194   2.182  15.228 -0.6195  0.3044  0.2822
 7258TIP3    H243266   3.048   2.144  15.241 -0.4853  0.0739  1.2532
 7259TIP3   OH243267   5.422   5.942  17.125 -0.3325 -0.3565  0.1771
 7259TIP3    H143268   5.368   6.007  17.171  0.3732 -0.2896  0.9395
 7259TIP3    H243269   5.447   5.985  17.043  1.5319  1.0468  1.3992
 7260TIP3   OH243270   2.413   1.885  17.105  0.3469 -0.7550 -0.6041
 7260TIP3    H143271   2.491   1.836  17.128  0.5870  0.2820  0.9571
 7260TIP3    H243272   2.340   1.828  17.128  0.6174 -1.5436 -1.6401
 7261TIP3   OH243273   2.006   6.417  10.963 -0.1610  0.4253  0.1578
 7261TIP3    H143274   2.003   6.506  10.929  1.0392 -0.1336 -1.5618
 7261TIP3    H243275   2.020   6.427  11.057 -4.3200  2.0662  0.8222
 7262TIP3   OH243276   2.867   3.509   5.603  0.1783 -0.2662  0.2385
 7262TIP3    H143277   2.944   3.558   5.574 -0.8081  0.6672 -0.9194
 7262TIP3    H243278   2.878   3.502   5.697  2.7552 -2.0643 -0.0798
 7263TIP3   OH243279   5.973   0.688  14.212 -0.0647 -0.4154  0.1251
 7263TIP3    H143280   5.891   0.657  14.251  0.1998 -0.5485  0.5828
 7263TIP3    H243281   5.955   0.693  14.118 -0.3200 -1.3016  0.1189
 7264TIP3   OH243282   5.894   5.601  14.881  0.4424 -0.0168 -0.4716
 7264TIP3    H143283   5.920   5.689  14.854  2.2887  0.1548  1.5958
 7264TIP3    H243284   5.967   5.545  14.852 -0.3541 -0.7686 -1.0776
 7265TIP3   OH243285   1.292   6.491   1.769  0.5954  0.2152 -0.3544
 7265TIP3    H143286   1.278   6.437   1.847  0.0894  0.8812  0.0193
 7265TIP3    H243287   1.387   6.495   1.760  0.6656  0.3270  0.3640
 7266TIP3   OH243288   3.725   0.268   3.410 -0.0182 -0.0426  0.0884
 7266TIP3    H143289   3.743   0.330   3.482 -1.6438  2.2572 -1.3444
 7266TIP3    H243290   3.630   0.258   3.410 -0.1144  0.3832 -1.9573
 7267TIP3   OH243291   6.452   3.394   4.840  0.0740  0.3852 -0.2129
 7267TIP3    H143292   6.453   3.411   4.746 -3.5042  1.8969 -0.1367
 7267TIP3    H243293   6.430   3.479   4.879 -1.0025 -0.7124  1.7364
 7268TIP3   OH243294   1.585   0.625   3.847 -0.0209  0.3507  0.1570
 7268TIP3    H143295   1.586   0.546   3.901  1.6508  0.2267 -0.0137
 7268TIP3    H243296   1.673   0.631   3.811 -0.6390  1.3115 -1.2918
 7269TIP3   OH243297   5.605   6.812   2.373  0.6354  0.5618 -0.4035
 7269TIP3    H143298   5.624   6.841   2.462  0.9767  0.5817 -0.4825
 7269TIP3    H243299   5.547   6.737   2.384  0.7190  0.5321 -0.1625
 7270TIP3   OH243300   5.351   5.918  12.164  0.1479 -0.2718  0.4760
 7270TIP3    H143301   5.344   5.925  12.259  0.4179  1.5511  0.4008
 7270TIP3    H243302   5.289   5.983  12.131 -0.5511 -1.4475 -0.6431
 7271TIP3   OH243303   0.287   1.059   4.637  0.4393 -0.2653  0.4570
 7271TIP3    H143304   0.353   1.009   4.684  0.6011 -1.3208 -0.8169
 7271TIP3    H243305   0.306   1.150   4.658  0.3229 -0.6803  2.6052
 7272TIP3   OH243306   4.972   2.072  14.983 -0.1063  0.3415 -0.6440
 7272TIP3    H143307   4.945   2.163  14.999 -1.1885  0.6523 -3.6509
 7272TIP3    H243308   4.954   2.057  14.890 -0.9253 -3.2931 -0.0603
 7273TIP3   OH243309   1.203   5.790   1.937 -0.0325  0.2761  0.0116
 7273TIP3    H143310   1.261   5.845   1.885  2.1607 -0.2325  1.7461
 7273TIP3    H243311   1.137   5.850   1.971  0.7543  1.3504 -0.2895
 7274TIP3   OH243312   3.131   5.250  12.309  0.1749 -0.4348  0.1625
 7274TIP3    H143313   3.070   5.286  12.374  1.6032  2.2042  0.1877
 7274TIP3    H243314   3.101   5.286  12.225 -0.0271 -1.5769 -0.2764
 7275TIP3   OH243315   0.706   6.230  16.015 -0.8971  0.0133 -0.1488
 7275TIP3    H143316   0.722   6.152  15.961 -1.3133 -1.1862  1.3811
 7275TIP3    H243317   0.621   6.262  15.986 -1.3551 -0.9220  0.1360
 7276TIP3   OH243318   5.922   2.378  12.866  0.1581 -0.0491 -0.0321
 7276TIP3    H143319   5.833   2.341  12.863 -0.3864  1.2592 -0.8414
 7276TIP3    H243320   5.947   2.388  12.774 -0.6566  3.6240 -0.0158
 7277TIP3   OH243321   0.610   0.779   4.536 -0.3226 -0.2290  0.3463
 7277TIP3    H143322   0.600   0.874   4.548  1.4037  0.0832 -0.3577
 7277TIP3    H243323   0.619   0.745   4.625 -1.6935  0.1461  0.6493
 7278TIP3   OH243324   6.499   1.325  15.895  0.0782 -0.2518 -0.0585
 7278TIP3    H143325   6.418   1.307  15.847  0.3183 -1.6445  0.0310
 7278TIP3    H243326   6.495   1.268  15.971  0.1587  1.2362  1.1155
 7279TIP3   OH243327   4.735   3.081  15.819  0.3155 -0.1043  0.1079
 7279TIP3    H143328   4.659   3.025  15.836 -0.0937  0.5265  0.3849
 7279TIP3    H243329   4.752   3.125  15.902  1.5724 -0.9193  0.3113
 7280TIP3   OH243330   6.028   5.995   3.673 -0.2047  0.1492 -0.3549
 7280TIP3    H143331   5.997   5.905   3.674 -1.3509  0.5287  0.3307
 7280TIP3    H243332   6.122   5.989   3.690 -0.5467 -0.8277  1.3827
 7281TIP3   OH243333   1.033   0.694   1.848  0.3399  0.3503  0.0657
 7281TIP3    H143334   0.951   0.675   1.894 -0.1716  0.5219 -0.7466
 7281TIP3    H243335   1.057   0.782   1.877  0.9478 -0.2083  1.3090
 7282TIP3   OH243336   4.824   3.658   4.838 -0.0287  0.6687  0.2713
 7282TIP3    H143337   4.857   3.590   4.897  1.1282  0.3706 -0.6864
 7282TIP3    H243338   4.894   3.724   4.838 -0.4238  1.0873 -0.0725
 7283TIP3   OH243339   3.094   2.200   3.018 -0.3458 -0.1550 -0.1329
 7283TIP3    H143340   3.142   2.239   3.091 -0.9644 -2.7155  1.8047
 7283TIP3    H243341   3.012   2.249   3.013 -0.2465  0.1332  0.8636
 7284TIP3   OH243342   4.481   2.749  12.355  0.1842 -0.1406 -0.5395
 7284TIP3    H143343   4.420   2.725  12.286  0.4009  0.3094 -0.8894
 7284TIP3    H243344   4.478   2.844  12.359 -0.7491 -0.2043  0.9197
 7285TIP3   OH243345   0.099   4.544  13.494  0.3002 -0.3284  0.2751
 7285TIP3    H143346   0.025   4.494  13.461  0.5054 -1.9897  2.1255
 7285TIP3    H243347   0.174   4.515  13.442 -0.0725  0.2892 -0.6273
 7286TIP3   OH243348   5.674   5.295   6.718  0.0815 -0.4297  0.2312
 7286TIP3    H143349   5.654   5.205   6.742 -3.2874 -0.2939 -1.4480
 7286TIP3    H243350   5.713   5.289   6.631 -0.3378 -0.2906  0.0288
 7287TIP3   OH243351   5.850   3.747   1.505  0.0724 -0.1924 -0.4787
 7287TIP3    H143352   5.885   3.722   1.590  4.3067  0.8690 -1.6903
 7287TIP3    H243353   5.848   3.665   1.455 -0.2798 -0.4455 -0.0594
 7288TIP3   OH243354   3.154   5.494   5.896  0.3489 -0.0015  0.2037
 7288TIP3    H143355   3.249   5.487   5.903  0.2441 -0.2862  2.1277
 7288TIP3    H243356   3.130   5.552   5.968 -0.9355  0.0404 -0.2431
 7289TIP3   OH243357   4.451   0.952   1.755 -0.6239  0.0426  0.1906
 7289TIP3    H143358   4.379   0.948   1.817 -0.2950 -1.2216  0.5154
 7289TIP3    H243359   4.508   0.878   1.779 -0.3288 -0.2875 -1.4015
 7290TIP3   OH243360   4.999   4.793   4.266 -0.0604 -0.4402  0.0142
 7290TIP3    H143361   5.064   4.765   4.201 -1.1470  0.5132 -1.5751
 7290TIP3    H243362   4.990   4.887   4.251 -1.9385 -0.5868  0.0269
 7291TIP3   OH243363   0.715   6.551   0.786  0.0721 -0.5871  0.2536
 7291TIP3    H143364   0.659   6.556   0.708 -0.7003  1.6799  0.8567
 7291TIP3    H243365   0.666   6.600   0.853  1.2004 -1.5799  1.8547
 7292TIP3   OH243366   1.626   6.526   3.476 -0.6389 -0.4746  0.3466
 7292TIP3    H143367   1.693   6.478   3.524 -0.6082  0.3890  1.1883
 7292TIP3    H243368   1.637   6.498   3.385 -0.7174 -2.1681  0.8196
 7293TIP3   OH243369   4.994   3.768   5.764  0.0053 -0.3824  0.1715
 7293TIP3    H143370   5.022   3.856   5.739  2.3888 -0.7262  1.3338
 7293TIP3    H243371   4.902   3.764   5.738  0.7721  1.1375 -3.2572
 7294TIP3   OH243372   5.440   4.933  11.350  0.5285 -0.2787 -0.2668
 7294TIP3    H143373   5.491   4.864  11.392 -0.2653 -1.1607 -0.7229
 7294TIP3    H243374   5.367   4.949  11.410  0.7617  0.2453 -0.1143
 7295TIP3   OH243375   4.593   6.093  14.820  0.0848  0.8954  0.2106
 7295TIP3    H143376   4.660   6.153  14.852  0.4166  1.2249 -1.0486
 7295TIP3    H243377   4.640   6.012  14.800 -0.2940  0.3343  1.5163
 7296TIP3   OH243378   0.442   5.526   6.986 -0.1573  0.5309 -0.0926
 7296TIP3    H143379   0.429   5.433   6.969 -0.9401  0.1932  2.0330
 7296TIP3    H243380   0.537   5.539   6.981  0.0773 -0.6852  0.8470
 7297TIP3   OH243381   2.909   3.711   0.457  0.3806  0.1816 -0.3790
 7297TIP3    H143382   2.873   3.762   0.385 -0.3569 -0.2849 -0.3605
 7297TIP3    H243383   3.004   3.715   0.446  0.2645 -0.7472 -1.9993
 7298TIP3   OH243384   0.257   4.169  13.134  0.3820  0.1252 -0.0837
 7298TIP3    H143385   0.244   4.214  13.050 -0.3619  0.5659  0.2585
 7298TIP3    H243386   0.340   4.205  13.166  1.1155 -0.6812 -1.0154
 7299TIP3   OH243387   0.749   2.509   3.235  0.3295 -0.3661 -0.4531
 7299TIP3    H143388   0.844   2.504   3.240  0.4481 -0.7758 -2.2817
 7299TIP3    H243389   0.727   2.462   3.154 -1.4645 -0.6947  0.1740
 7300TIP3   OH243390   5.739   5.699  15.108 -0.5698 -0.5680  0.3785
 7300TIP3    H143391   5.698   5.754  15.041 -0.1503 -1.5421 -0.7064
 7300TIP3    H243392   5.791   5.636  15.059 -0.0153 -1.1286  1.6435
 7301TIP3   OH243393   2.590   0.523   0.814  0.4384 -0.1407  0.1328
 7301TIP3    H143394   2.637   0.482   0.742  1.6862  0.5946  0.4941
 7301TIP3    H243395   2.656   0.533   0.883 -0.3293  0.6201  0.7792
 7302TIP3   OH243396   2.557   1.784  13.257 -0.1179  0.3944 -0.2757
 7302TIP3    H143397   2.565   1.859  13.316 -0.2035 -0.2362  0.5546
 7302TIP3    H243398   2.470   1.749  13.275  0.3753 -0.6236  0.2316
 7303TIP3   OH243399   1.652   4.758   2.217  0.5436 -0.3269 -0.3970
 7303TIP3    H143400   1.724   4.728   2.161  0.6719 -0.2997 -0.2494
 7303TIP3    H243401   1.672   4.719   2.303 -0.8676 -2.2781 -0.8991
 7304TIP3   OH243402   2.587   5.340  13.166  0.4281 -0.3954 -0.4348
 7304TIP3    H143403   2.639   5.291  13.230 -0.3587 -1.8310 -0.8538
 7304TIP3    H243404   2.611   5.431  13.180  1.5141 -0.8441  0.7690
 7305TIP3   OH243405   2.468   2.836   0.311 -0.0391  0.0480  0.3525
 7305TIP3    H143406   2.491   2.929   0.314 -0.1281  0.0760  0.1661
 7305TIP3    H243407   2.465   2.810   0.403 -0.6712  0.3929  0.4399
 7306TIP3   OH243408   6.486   5.664   0.590  0.3805 -0.0406  0.1179
 7306TIP3    H143409   6.570   5.690   0.553  0.1773  0.0879 -0.2500
 7306TIP3    H243410   6.463   5.585   0.543  0.9429 -0.8505  1.1571
 7307TIP3   OH243411   3.266   5.487  16.597 -0.9239 -0.0890 -0.0581
 7307TIP3    H143412   3.292   5.525  16.513 -0.6301 -0.2055 -0.0214
 7307TIP3    H243413   3.265   5.561  16.658 -1.2088  0.0081 -0.1768
 7308TIP3   OH243414   2.856   0.842   1.491  0.4464 -0.1861 -0.0262
 7308TIP3    H143415   2.869   0.914   1.554  0.2681 -0.7640  0.6804
 7308TIP3    H243416   2.875   0.882   1.406  2.6422  0.1393  0.5481
 7309TIP3   OH243417   1.329   6.706  13.842 -0.6412  0.0711 -0.0282
 7309TIP3    H143418   1.354   6.661  13.761  1.4244  1.3472 -0.1569
 7309TIP3    H243419   1.250   6.755  13.819 -0.9604 -0.7746 -0.8144
 7310TIP3   OH243420   6.526   2.343  15.373 -0.0736 -0.2449  0.0782
 7310TIP3    H143421   6.472   2.264  15.378 -1.0073  0.4343  1.1966
 7310TIP3    H243422   6.499   2.396  15.448 -0.1648  1.5800 -1.1663
 7311TIP3   OH243423   6.318   2.822   5.005 -0.0124 -0.3295 -0.0616
 7311TIP3    H143424   6.409   2.801   5.025  0.5944  0.0597 -2.1392
 7311TIP3    H243425   6.268   2.786   5.078  1.7311 -1.2454  0.7386
 7312TIP3   OH243426   2.157   3.430   1.194  0.4003  0.2157 -0.2449
 7312TIP3    H143427   2.221   3.362   1.174 -0.1744 -0.4682  0.2016
 7312TIP3    H243428   2.204   3.492   1.249  0.2583 -1.1264  1.4542
 7313TIP3   OH243429   3.291   2.477   1.539 -0.1945  0.3773  0.0295
 7313TIP3    H143430   3.198   2.497   1.522 -0.3622  0.1501  0.6548
 7313TIP3    H243431   3.320   2.432   1.460 -1.0218 -0.8512  0.3856
 7314TIP3   OH243432   4.176   6.302   1.006  0.3854  0.1450 -0.9123
 7314TIP3    H143433   4.123   6.223   0.992 -1.0556  1.1879 -1.6068
 7314TIP3    H243434   4.263   6.269   1.027 -0.6005 -1.6609  0.7024
 7315TIP3   OH243435   5.330   5.568  14.540  0.1232  0.2475 -0.0737
 7315TIP3    H143436   5.392   5.503  14.572 -2.0721 -1.1623  1.7167
 7315TIP3    H243437   5.259   5.517  14.502 -2.0640  1.4277  2.1119
 7316TIP3   OH243438   5.223   2.350   2.770 -0.6364 -0.2286  0.3270
 7316TIP3    H143439   5.310   2.388   2.757 -0.9012  0.4125  0.3979
 7316TIP3    H243440   5.238   2.279   2.832  0.1109 -1.2486 -0.9724
 7317TIP3   OH243441   1.521   2.832   2.201 -0.2957 -0.0100  0.0286
 7317TIP3    H143442   1.564   2.809   2.118  1.6036  0.2409  0.8995
 7317TIP3    H243443   1.483   2.750   2.232  0.5026 -0.4837 -0.2264
 7318TIP3   OH243444   0.048   5.122   1.237  0.4803 -0.1072 -0.3707
 7318TIP3    H143445   0.032   5.212   1.267  0.1915 -0.0084 -0.8159
 7318TIP3    H243446   0.143   5.111   1.244  0.7120  0.7585 -1.7789
 7319TIP3   OH243447   5.642   3.802  16.355  0.1079 -0.1216 -0.4599
 7319TIP3    H143448   5.664   3.894  16.367  1.9999 -0.6734  0.8745
 7319TIP3    H243449   5.565   3.788  16.411  0.8001  0.3370  0.6570
 7320TIP3   OH243450   0.208   3.143   4.803 -0.3621 -0.0815 -0.0619
 7320TIP3    H143451   0.142   3.083   4.768  1.4533 -1.5647 -1.1706
 7320TIP3    H243452   0.275   3.085   4.840  0.2966  1.3598  1.0956
 7321TIP3   OH243453   1.647   1.941  16.112 -0.3493 -0.0158  0.3596
 7321TIP3    H143454   1.594   1.957  16.190  2.6811  3.5146  2.0401
 7321TIP3    H243455   1.603   1.989  16.042 -1.4111 -0.5454  0.6463
 7322TIP3   OH243456   6.560   5.001   6.094 -0.2732  0.1408  0.2955
 7322TIP3    H143457   6.608   5.032   6.171 -1.3531 -0.8722  1.4311
 7322TIP3    H243458   6.471   4.983   6.127  0.0672 -3.4798 -0.3252
 7323TIP3   OH243459   4.126   4.600  16.054 -0.3023 -0.0465 -0.3811
 7323TIP3    H143460   4.044   4.643  16.031 -1.0481 -1.0641  0.2879
 7323TIP3    H243461   4.118   4.584  16.148  0.1313 -1.2628 -0.5425
 7324TIP3   OH243462   2.720   5.554   0.178 -0.2288 -0.4553 -0.5781
 7324TIP3    H143463   2.626   5.543   0.196 -0.2849 -0.9195 -1.1172
 7324TIP3    H243464   2.743   5.477   0.125  1.1554 -2.0760  2.1637
 7325TIP3   OH243465   4.138   5.016  11.187 -0.4440  0.1921  0.4134
 7325TIP3    H143466   4.199   5.079  11.225  0.8264 -0.8038  0.1033
 7325TIP3    H243467   4.177   4.931  11.207 -0.8874 -0.4141 -1.2022
 7326TIP3   OH243468   5.865   6.405  11.916  0.3482 -0.4832 -0.6836
 7326TIP3    H143469   5.949   6.363  11.898  1.4686  1.0206  0.8284
 7326TIP3    H243470   5.877   6.496  11.889 -0.5226 -0.0672  0.2909
 7327TIP3   OH243471   4.820   6.389   4.689 -0.1141 -0.2277 -0.7628
 7327TIP3    H143472   4.741   6.399   4.636  0.2033 -2.0363 -1.6696
 7327TIP3    H243473   4.794   6.332   4.761 -0.2015  1.1119  0.2859
 7328TIP3   OH243474   2.635   3.082  11.918 -0.6998  0.0632 -0.5307
 7328TIP3    H143475   2.554   3.106  11.963  0.0661 -0.1987  1.0755
 7328TIP3    H243476   2.626   2.989  11.900 -0.2067 -0.2875  0.9224
 7329TIP3   OH243477   5.750   4.008  15.894  0.2794 -0.2599 -0.1323
 7329TIP3    H143478   5.708   3.956  15.825  0.2092 -1.8061  1.0282
 7329TIP3    H243479   5.736   4.099  15.867 -0.9869 -0.7966 -1.4210
 7330TIP3   OH243480   5.543   4.923   2.158  0.2249 -0.0675  0.1259
 7330TIP3    H143481   5.512   4.965   2.239 -0.0092  0.8981 -0.4398
 7330TIP3    H243482   5.541   4.830   2.177 -1.8339  0.0100  0.5515
 7331TIP3   OH243483   5.119   2.194   4.959  0.4920  0.0676  0.1973
 7331TIP3    H143484   5.058   2.204   4.886 -0.6217 -0.2890  1.0535
 7331TIP3    H243485   5.163   2.111   4.941  1.6898  0.9367 -1.0925
 7332TIP3   OH243486   1.595   4.970  15.167 -0.0360  0.1295  0.1853
 7332TIP3    H143487   1.545   5.020  15.102 -2.9002 -3.3309 -0.6090
 7332TIP3    H243488   1.554   4.992  15.251 -1.8577 -1.3277 -0.2584
 7333TIP3   OH243489   0.224   6.303  14.513 -0.3170  0.1493  0.5705
 7333TIP3    H143490   0.279   6.257  14.449  0.0140 -2.1654  2.3762
 7333TIP3    H243491   0.136   6.296  14.478  0.1908  1.9261 -1.2469
 7334TIP3   OH243492   0.486   4.575   3.536  0.2209 -0.0086 -0.1484
 7334TIP3    H143493   0.487   4.550   3.628 -0.0345  1.2139  0.2112
 7334TIP3    H243494   0.438   4.658   3.534  0.4064  0.0944 -1.3510
 7335TIP3   OH243495   6.752   3.623  15.804 -0.3387  0.2804 -0.4542
 7335TIP3    H143496   6.688   3.662  15.745 -0.6756 -0.8250 -0.8358
 7335TIP3    H243497   6.703   3.605  15.884 -0.1134  0.8870 -0.1737
 7336TIP3   OH243498   4.914   2.342  15.032 -0.1894  0.1600 -0.2471
 7336TIP3    H143499   4.986   2.403  15.016  1.6578 -1.1590  2.4473
 7336TIP3    H243500   4.878   2.368  15.117 -1.6287 -0.4710 -0.6202
 7337TIP3   OH243501   3.118   3.516  12.851 -0.0610 -0.7050  0.5542
 7337TIP3    H143502   3.110   3.539  12.944  0.4342 -1.4863  0.8044
 7337TIP3    H243503   3.138   3.599  12.808  1.3967 -0.5729  1.3907
 7338TIP3   OH243504   6.664   3.129   5.252  0.1858  0.3418  0.3879
 7338TIP3    H143505   6.645   3.166   5.166  0.1345  1.5435  0.8947
 7338TIP3    H243506   6.627   3.193   5.314  0.9983 -0.0589  1.3084
 7339TIP3   OH243507   0.660   1.715  13.597  0.0460  0.7237  0.4828
 7339TIP3    H143508   0.751   1.694  13.617 -0.1651 -1.4687 -0.5294
 7339TIP3    H243509   0.621   1.632  13.571 -2.4652  1.4589  1.5588
 7340TIP3   OH243510   6.512   1.065   2.181  0.5255  0.3036 -0.6981
 7340TIP3    H143511   6.499   0.985   2.232 -0.6737  0.5218 -0.6425
 7340TIP3    H243512   6.523   1.134   2.247  0.6279  0.3337 -0.7462
 7341TIP3   OH243513   3.126   0.896  12.530 -0.0068 -0.2509 -0.5119
 7341TIP3    H143514   3.040   0.895  12.489  0.1642  0.3926 -0.9112
 7341TIP3    H243515   3.186   0.869  12.461  0.1995  0.1090 -0.4767
 7342TIP3   OH243516   3.624   1.317  14.595 -0.0270  0.1959 -0.2101
 7342TIP3    H143517   3.603   1.296  14.504  0.0419  1.0939 -0.4375
 7342TIP3    H243518   3.595   1.240  14.644 -0.4802 -0.1062 -0.9356
 7343TIP3   OH243519   2.235   2.554  14.859  0.1240 -0.2247 -0.3218
 7343TIP3    H143520   2.312   2.556  14.915 -0.2099  0.7246  0.1223
 7343TIP3    H243521   2.250   2.623  14.795  0.6541 -1.5076 -1.6589
 7344TIP3   OH243522   6.637   6.141   6.011 -0.0311  0.8248 -0.2803
 7344TIP3    H143523   6.650   6.108   6.101 -0.2367 -0.2021 -0.6120
 7344TIP3    H243524   6.709   6.102   5.961 -1.2130 -0.5059 -1.0255
 7345TIP3   OH243525   5.668   0.212   0.757 -0.3330  0.3314 -0.0927
 7345TIP3    H143526   5.751   0.176   0.788 -0.2887  0.3097 -0.2318
 7345TIP3    H243527   5.684   0.232   0.664 -0.7852 -0.6180 -0.3944
 7346TIP3   OH243528   1.586   4.905   1.386  0.1942 -0.4133 -0.1369
 7346TIP3    H143529   1.532   4.836   1.347 -0.9600 -0.4302  1.3837
 7346TIP3    H243530   1.532   4.940   1.457  1.4449  0.8910  0.2148
 7347TIP3   OH243531   3.045   5.731   2.988  0.2555  0.1364 -0.9954
 7347TIP3    H143532   2.963   5.777   2.971 -0.1023 -0.0588  0.1404
 7347TIP3    H243533   3.112   5.799   2.985 -0.0768  0.4715 -0.8751
 7348TIP3   OH243534   3.420   1.109   2.560  0.1205  0.3510 -0.6054
 7348TIP3    H143535   3.368   1.034   2.531  1.8997 -0.8246 -0.9529
 7348TIP3    H243536   3.452   1.084   2.646  1.9718 -0.0256 -1.3496
 7349TIP3   OH243537   6.538   1.483   5.903 -0.0713  0.1622  0.0456
 7349TIP3    H143538   6.479   1.462   5.976 -0.8463 -0.6255 -0.7819
 7349TIP3    H243539   6.624   1.491   5.944 -0.6297  0.6706  1.1831
 7350TIP3   OH243540   2.332   2.308   3.069  0.4871 -0.4359 -0.0069
 7350TIP3    H143541   2.360   2.278   2.983  2.3142 -1.3600  0.8541
 7350TIP3    H243542   2.271   2.240   3.100  1.2003 -1.0257  0.1296
 7351TIP3   OH243543   0.127   0.856   4.589  0.1532 -0.1268 -0.0576
 7351TIP3    H143544   0.186   0.927   4.615  0.4309 -0.6382  0.7420
 7351TIP3    H243545   0.115   0.869   4.495  0.0226  1.1038  0.1092
 7352TIP3   OH243546   0.817   1.918  13.838 -0.2037 -0.1448  0.0397
 7352TIP3    H143547   0.763   1.860  13.892  1.4673 -0.3906  1.5741
 7352TIP3    H243548   0.870   1.858  13.785  1.3295 -0.1036  1.4286
 7353TIP3   OH243549   4.406   3.654   5.513 -0.1052 -0.6432  0.7139
 7353TIP3    H143550   4.392   3.579   5.570  1.2655 -2.0703 -0.7106
 7353TIP3    H243551   4.386   3.622   5.425 -0.9263  1.1076  0.2179
 7354TIP3   OH243552   5.920   4.139   0.908  0.0772 -0.2974  0.6231
 7354TIP3    H143553   5.851   4.187   0.860  0.7809 -1.0814 -1.2516
 7354TIP3    H243554   5.922   4.181   0.994 -0.8359  1.6038 -0.2119
 7355TIP3   OH243555   1.449   0.582   4.787 -0.1218 -0.5466 -0.5324
 7355TIP3    H143556   1.486   0.539   4.710  2.0345  0.3797 -0.0824
 7355TIP3    H243557   1.476   0.527   4.861  1.0255  0.4972 -0.1377
 7356TIP3   OH243558   4.847   6.473  11.960 -0.0617  0.2946  0.2375
 7356TIP3    H143559   4.787   6.537  11.921 -0.3137  1.6953  2.6627
 7356TIP3    H243560   4.934   6.510  11.945 -0.0871  0.3196  0.1504
 7357TIP3   OH243561   3.337   6.637  17.034 -0.7734 -0.0858 -0.2738
 7357TIP3    H143562   3.400   6.615  16.966  0.9509  0.1430  1.1919
 7357TIP3    H243563   3.276   6.698  16.991  0.4993  0.3669 -1.5100
 7358TIP3   OH243564   1.618   4.287  12.723  1.0819  0.5915  0.7565
 7358TIP3    H143565   1.654   4.365  12.681 -0.2622  0.5777 -0.5127
 7358TIP3    H243566   1.566   4.244  12.654  0.8316 -0.7941  1.7507
 7359TIP3   OH243567   5.117   4.818  16.164 -0.0393  0.2693 -0.2383
 7359TIP3    H143568   5.080   4.866  16.090 -1.4166  3.7977  2.4377
 7359TIP3    H243569   5.069   4.734  16.165 -2.3257  1.4623 -1.4914
 7360TIP3   OH243570   5.181   3.368   5.808 -0.0140  0.0158  0.0341
 7360TIP3    H143571   5.247   3.329   5.865  1.9555  0.5369 -1.7600
 7360TIP3    H243572   5.181   3.313   5.730 -2.3113 -0.4180  0.2697
 7361TIP3   OH243573   1.615   2.894  15.958 -0.3427 -0.3410  0.5106
 7361TIP3    H143574   1.600   2.801  15.975 -1.8194 -0.2939 -0.3745
 7361TIP3    H243575   1.645   2.898  15.868 -1.6286  0.1187  0.0734
 7362TIP3   OH243576   3.202   5.054  15.126  0.0869 -0.4608 -0.0886
 7362TIP3    H143577   3.288   5.046  15.166  0.1529  1.0231  0.1117
 7362TIP3    H243578   3.155   4.976  15.155  0.4451  0.0819  2.1282
 7363TIP3   OH243579   1.647   0.295  17.149 -0.3284 -0.3867 -0.4495
 7363TIP3    H143580   1.681   0.383  17.164  1.1400 -0.7782 -1.3651
 7363TIP3    H243581   1.693   0.263  17.072 -1.4960 -1.6352 -0.6847
 7364TIP3   OH243582   4.504   1.072   4.478 -0.4746  0.1394  0.1070
 7364TIP3    H143583   4.480   1.019   4.402 -2.2215  0.9215  0.0712
 7364TIP3    H243584   4.544   1.009   4.538  0.4516 -0.5928 -1.2251
 7365TIP3   OH243585   2.957   4.814  11.759  0.2238 -0.0866 -0.4654
 7365TIP3    H143586   2.963   4.742  11.696 -0.6386 -1.4428  0.9299
 7365TIP3    H243587   2.864   4.836  11.760  0.3243  0.3203 -0.0765
 7366TIP3   OH243588   4.534   4.428   4.102  0.2549  0.0376  0.0930
 7366TIP3    H143589   4.439   4.423   4.114  0.2878 -1.1374  0.0038
 7366TIP3    H243590   4.546   4.485   4.027 -0.3945 -0.0475 -0.0838
 7367TIP3   OH243591   0.486   3.963   3.212  0.6247  0.1403  0.5808
 7367TIP3    H143592   0.512   3.876   3.182  0.6982  0.4281 -0.2194
 7367TIP3    H243593   0.567   4.014   3.210  0.1050  1.0124 -1.8166
 7368TIP3   OH243594   5.769   0.418   0.040  0.2365 -0.2330  0.1479
 7368TIP3    H143595   5.685   0.449   0.073 -0.1462 -0.1485 -0.8551
 7368TIP3    H243596   5.822   0.497   0.031  0.6550 -0.3567  1.3721
 7369TIP3   OH243597   5.944   6.639  11.819  0.2418  0.0736 -0.2084
 7369TIP3    H143598   6.011   6.665  11.883  2.0066 -2.9018 -0.6475
 7369TIP3    H243599   5.971   6.681  11.738  1.6772 -1.0914 -0.3834
 7370TIP3   OH243600   2.026   6.773   0.442 -0.2767 -0.6010 -0.0262
 7370TIP3    H143601   2.069   6.698   0.402 -0.2032 -0.6784  0.1994
 7370TIP3    H243602   1.977   6.813   0.370 -0.1568 -0.7483 -0.1910
 7371TIP3   OH243603   4.014   0.033   0.081  0.4178 -0.3183  0.3864
 7371TIP3    H143604   4.085   0.033   0.017  0.8948 -0.1451  0.9120
 7371TIP3    H243605   3.964  -0.047   0.062 -0.0054  0.1913 -0.8036
 7372TIP3   OH243606   6.266   3.721  12.867  0.1412  0.1515  0.1616
 7372TIP3    H143607   6.214   3.785  12.818  0.5814 -0.3609 -0.9987
 7372TIP3    H243608   6.355   3.756  12.865 -0.1005  1.0428  2.1697
 7373TIP3   OH243609   4.959   4.200   2.633 -0.6647  0.0249 -0.0248
 7373TIP3    H143610   4.933   4.278   2.583  0.2462 -0.0722 -0.6752
 7373TIP3    H243611   5.005   4.146   2.570 -2.4772 -1.7237  0.0466
 7374TIP3   OH243612   5.644   1.175  16.381  0.4029 -0.2980  0.4975
 7374TIP3    H143613   5.577   1.189  16.448  1.2629  0.8392  1.1730
 7374TIP3    H243614   5.727   1.178  16.430  0.9683 -1.2487 -0.3763
 7375TIP3   OH243615   2.843   2.184   6.214 -0.1619 -0.4900 -0.6564
 7375TIP3    H143616   2.748   2.176   6.223 -0.7825  0.6107 -4.4694
 7375TIP3    H243617   2.878   2.101   6.248 -2.1813 -0.1490  2.7129
 7376TIP3   OH243618   5.138   5.730   3.501 -0.1009  0.3517 -0.3290
 7376TIP3    H143619   5.160   5.637   3.493  0.5755  0.4689  0.0643
 7376TIP3    H243620   5.080   5.734   3.577  0.2193  0.3052 -0.0815
 7377TIP3   OH243621   3.221   2.956   5.698 -0.1751  0.5002 -0.4700
 7377TIP3    H143622   3.137   3.001   5.704 -1.1753 -0.8983 -2.7066
 7377TIP3    H243623   3.201   2.865   5.720  1.5853  0.7613  2.8038
 7378TIP3   OH243624   4.178   1.608   2.940 -0.0601 -0.4545  0.0026
 7378TIP3    H143625   4.167   1.653   3.024 -0.7252  1.1877 -0.9242
 7378TIP3    H243626   4.096   1.559   2.929 -0.5253  0.3534 -0.2549
 7379TIP3   OH243627   2.730   3.241  16.060 -0.2525  0.0726  0.1938
 7379TIP3    H143628   2.753   3.281  16.144  0.2887 -0.2782  0.2146
 7379TIP3    H243629   2.790   3.167  16.051  0.1679  0.5193 -0.8281
 7380TIP3   OH243630   1.900   2.442  12.807 -0.5061  0.2714  0.0191
 7380TIP3    H143631   1.929   2.498  12.735  0.4580  0.2864  0.4106
 7380TIP3    H243632   1.971   2.378  12.817 -2.4495 -2.4065 -1.8333
 7381TIP3   OH243633   1.132   6.454   2.664  0.6026 -0.2496  0.0887
 7381TIP3    H143634   1.172   6.421   2.584 -1.4225 -0.3058 -0.9466
 7381TIP3    H243635   1.049   6.493   2.636 -1.3729 -2.4118  2.3871
 7382TIP3   OH243636   0.975   5.328   0.568 -0.1820 -0.0120 -0.2292
 7382TIP3    H143637   0.931   5.383   0.503  0.1075 -0.9575 -1.2492
 7382TIP3    H243638   0.927   5.345   0.650  0.7187  2.7633 -0.1634
 7383TIP3   OH243639   3.123   2.114   5.332  0.2223 -0.1553  0.5790
 7383TIP3    H143640   3.092   2.204   5.343  1.8410  0.7751 -1.6390
 7383TIP3    H243641   3.097   2.070   5.412 -3.7477  1.3356  0.3181
 7384TIP3   OH243642   2.048   3.464  11.660  0.0229 -0.3292 -0.1675
 7384TIP3    H143643   2.093   3.383  11.635 -1.0115 -0.2572 -2.6171
 7384TIP3    H243644   2.112   3.533  11.642  0.8331 -0.5416  1.7265
 7385TIP3   OH243645   1.076   4.306   3.404 -0.0811  0.2472 -0.2060
 7385TIP3    H143646   1.121   4.272   3.482  0.1852  0.5701 -0.2181
 7385TIP3    H243647   1.083   4.235   3.340 -3.3285 -1.5122  1.1311
 7386TIP3   OH243648   3.740   0.991  16.058 -0.0345 -0.1202  0.4778
 7386TIP3    H143649   3.645   0.993  16.057 -0.0352  1.5766 -0.1992
 7386TIP3    H243650   3.765   1.037  16.138  0.2545 -2.4343  1.7899
 7387TIP3   OH243651   6.025   0.716  10.985 -0.1733  0.5014  0.0069
 7387TIP3    H143652   6.118   0.736  10.994  0.0338 -0.2168 -0.4212
 7387TIP3    H243653   6.012   0.638  11.038 -0.1125 -0.4954 -1.3824
 7388TIP3   OH243654   0.067   3.720   4.544 -0.3262 -0.2110 -0.1434
 7388TIP3    H143655   0.149   3.684   4.511 -1.0429 -2.1170  0.0170
 7388TIP3    H243656   0.014   3.643   4.565 -1.5662  0.9656  1.2531
 7389TIP3   OH243657   1.433   6.404  16.549 -0.1463  0.0365 -0.5667
 7389TIP3    H143658   1.398   6.340  16.611  1.3391 -1.9925 -1.7037
 7389TIP3    H243659   1.357   6.434  16.499 -0.7853 -1.5357 -0.5926
 7390TIP3   OH243660   6.298   4.660   6.118 -0.2550  0.1102 -0.4300
 7390TIP3    H143661   6.260   4.716   6.049 -0.4197  0.3065 -0.1824
 7390TIP3    H243662   6.251   4.686   6.197  1.2375  1.2454  0.1291
 7391TIP3   OH243663   6.817   0.747  14.928  0.0883  0.0343  0.3337
 7391TIP3    H143664   6.767   0.670  14.955 -1.4559  0.4761 -1.1259
 7391TIP3    H243665   6.761   0.821  14.950 -0.5366  0.4853 -2.4336
 7392TIP3   OH243666   4.033   2.689  11.271 -0.1300 -0.2167  0.4413
 7392TIP3    H143667   4.008   2.666  11.182 -0.3678 -1.0345  0.7049
 7392TIP3    H243668   4.127   2.671  11.275 -0.0318  0.2393  0.2355
 7393TIP3   OH243669   3.826   2.918   2.804 -0.4350  0.6941  0.1890
 7393TIP3    H143670   3.732   2.928   2.820 -0.8781  0.8251 -2.1591
 7393TIP3    H243671   3.834   2.829   2.769  0.7012 -0.2029  2.5126
 7394TIP3   OH243672   6.193   0.960  10.948  0.0575 -0.2303  0.0014
 7394TIP3    H143673   6.180   0.979  10.855  0.4723 -1.6759 -0.3799
 7394TIP3    H243674   6.283   0.929  10.954  0.4039  0.9191  1.0876
 7395TIP3   OH243675   3.065   1.174   3.640  0.4475 -0.8905  1.0590
 7395TIP3    H143676   3.048   1.084   3.668 -0.0529 -1.1666 -0.0785
 7395TIP3    H243677   3.014   1.228   3.700  0.0686 -1.4098  1.2058
 7396TIP3   OH243678   3.771   2.521  15.823 -0.0227  0.2702  0.2982
 7396TIP3    H143679   3.766   2.498  15.916  1.2308 -0.9964  0.0758
 7396TIP3    H243680   3.753   2.439  15.777 -1.2797  1.0094 -0.6255
 7397TIP3   OH243681   3.633   2.696   2.347 -0.0834  0.1360 -0.0984
 7397TIP3    H143682   3.717   2.654   2.367  0.3583  0.4693 -1.1906
 7397TIP3    H243683   3.572   2.623   2.340  0.4583 -0.2587 -0.9133
 7398TIP3   OH243684   6.076   3.931  13.749 -0.4891 -0.7907  0.2222
 7398TIP3    H143685   6.132   4.006  13.767 -0.3508 -0.9734  0.5756
 7398TIP3    H243686   6.105   3.899  13.664 -1.0742  0.0253 -0.2917
 7399TIP3   OH243687   5.274   4.035  17.175 -0.0465 -0.7992  0.1894
 7399TIP3    H143688   5.306   4.025  17.086 -0.8996 -1.7787 -0.0297
 7399TIP3    H243689   5.324   3.971  17.226  1.4633  0.7365  0.7286
 7400TIP3   OH243690   0.507   2.936  12.700  0.1523 -0.1628 -0.0545
 7400TIP3    H143691   0.538   2.919  12.790  0.5793  1.5743  0.1639
 7400TIP3    H243692   0.428   2.989  12.711  0.0067 -0.2348 -0.7092
 7401TIP3   OH243693   2.935   3.458   4.420 -0.0947  0.5360  0.4151
 7401TIP3    H143694   2.937   3.496   4.332  0.0071 -0.0754  0.1522
 7401TIP3    H243695   2.857   3.495   4.460 -2.5644 -2.3105 -1.3707
 7402TIP3   OH243696   3.941   5.393   1.670  0.0645 -0.0327 -0.7570
 7402TIP3    H143697   3.849   5.413   1.654 -0.3236 -0.9686  0.1772
 7402TIP3    H243698   3.952   5.303   1.640  0.3789 -0.3041  0.1241
 7403TIP3   OH243699   1.836   5.217  15.088 -0.5131 -0.4493  0.0889
 7403TIP3    H143700   1.792   5.133  15.075  0.0846 -0.5440 -1.5331
 7403TIP3    H243701   1.778   5.265  15.146 -0.3586 -2.3526  1.9386
 7404TIP3   OH243702   5.305   2.113   2.929  0.2022  0.0658  0.0206
 7404TIP3    H143703   5.384   2.088   2.882  0.8108 -1.2379  1.6097
 7404TIP3    H243704   5.242   2.043   2.912  0.5784 -0.6575  1.4041
 7405TIP3   OH243705   6.180   4.482  16.084 -0.1338 -0.3636 -0.1852
 7405TIP3    H143706   6.115   4.419  16.050  0.3088 -0.9089 -0.0361
 7405TIP3    H243707   6.153   4.566  16.047  0.2885 -0.9282 -1.8645
 7406TIP3   OH243708   3.422   5.480  10.425 -0.1630  0.0165 -0.0086
 7406TIP3    H143709   3.460   5.568  10.424  1.8680 -0.8110 -0.8909
 7406TIP3    H243710   3.370   5.475  10.345  1.8396 -0.4043 -1.3449
 7407TIP3   OH243711   3.474   5.960   3.846 -0.2457 -0.5806 -0.1209
 7407TIP3    H143712   3.500   6.049   3.870 -1.1932 -0.6468  1.3267
 7407TIP3    H243713   3.552   5.907   3.864  1.1194  0.1975 -3.1869
 7408TIP3   OH243714   6.398   0.544   0.307  0.4688  0.2446  0.1073
 7408TIP3    H143715   6.307   0.575   0.302  0.4472  0.0483 -0.7541
 7408TIP3    H243716   6.446   0.602   0.247  0.4602 -1.2479 -1.4083
 7409TIP3   OH243717   3.863   0.600  14.000  0.2672 -0.0731 -0.3271
 7409TIP3    H143718   3.847   0.658  13.925  1.6221  1.5166  0.5409
 7409TIP3    H243719   3.818   0.642  14.073  0.7889 -0.4081  0.2018
 7410TIP3   OH243720   4.334   6.295  12.248 -0.6181 -0.0549 -0.1848
 7410TIP3    H143721   4.351   6.210  12.287 -0.5418 -0.4992 -1.1753
 7410TIP3    H243722   4.397   6.353  12.290  1.3727 -1.0798 -1.6107
 7411TIP3   OH243723   3.030   4.263   2.547  0.1249 -0.3683  0.5024
 7411TIP3    H143724   3.047   4.280   2.455 -0.7989 -0.8641  0.2306
 7411TIP3    H243725   3.115   4.235   2.582  0.0045 -2.5871 -0.7730
 7412TIP3   OH243726   2.247   3.109   5.059 -0.1893  0.0878 -0.1305
 7412TIP3    H143727   2.167   3.062   5.037 -0.6080  0.8086 -0.1645
 7412TIP3    H243728   2.303   3.098   4.982  0.0307 -1.0203  0.1813
 7413TIP3   OH243729   3.141   2.795  14.371 -0.1911  0.2311  0.6023
 7413TIP3    H143730   3.052   2.769  14.396 -0.2982  0.2095  0.2067
 7413TIP3    H243731   3.176   2.719  14.324 -0.4252  0.7047 -0.3626
 7414TIP3   OH243732   0.332   0.816  16.925  0.1356 -0.2236 -0.1630
 7414TIP3    H143733   0.251   0.851  16.963  0.7419 -0.3203  1.2627
 7414TIP3    H243734   0.317   0.722  16.918  0.0097 -0.1997 -0.2311
 7415TIP3   OH243735   3.335   3.807   1.067  0.3525 -0.8622  0.0505
 7415TIP3    H143736   3.417   3.790   1.114 -0.6534  1.0056  2.7189
 7415TIP3    H243737   3.271   3.826   1.136 -2.3450 -2.0401 -1.9378
 7416TIP3   OH243738   1.187   5.131  16.641  0.6921  0.4793  0.6194
 7416TIP3    H143739   1.146   5.215  16.620  0.3264 -0.0053 -0.7212
 7416TIP3    H243740   1.255   5.152  16.705 -0.2608  1.5978  1.2767
 7417TIP3   OH243741   4.559   1.654  10.585 -0.1647  0.2376  0.0638
 7417TIP3    H143742   4.546   1.596  10.510 -1.1782  0.2084  0.2477
 7417TIP3    H243743   4.507   1.731  10.565 -2.4817 -0.7652  1.7948
 7418TIP3   OH243744   0.042   1.565  15.424 -0.2068  0.1292  0.3206
 7418TIP3    H143745  -0.006   1.491  15.462  1.7815 -0.9969  0.7931
 7418TIP3    H243746   0.056   1.541  15.333 -0.7041  0.5481  0.1312
 7419TIP3   OH243747   4.587   3.874  16.221  0.7871 -0.1742 -0.1805
 7419TIP3    H143748   4.589   3.792  16.271  0.6345 -1.5430 -2.2755
 7419TIP3    H243749   4.495   3.883  16.195  0.6463  1.1211  0.6887
 7420TIP3   OH243750   0.389   0.750  14.190  0.6052  0.5354  0.6134
 7420TIP3    H143751   0.430   0.770  14.106 -0.9776  1.7740  0.0831
 7420TIP3    H243752   0.341   0.669  14.174  1.0972  0.2452  0.6054
 7421TIP3   OH243753   3.246   3.791   1.940  0.3961 -0.2431 -0.4992
 7421TIP3    H143754   3.264   3.700   1.916  1.9875 -0.3538  0.9472
 7421TIP3    H243755   3.274   3.842   1.864 -0.2745 -0.9080 -1.2197
 7422TIP3   OH243756   5.391   6.270   0.576 -0.5084 -0.4238 -0.3578
 7422TIP3    H143757   5.398   6.318   0.494  0.4930  2.2162  1.1481
 7422TIP3    H243758   5.480   6.237   0.591 -0.6818 -0.8693 -0.3231
 7423TIP3   OH243759   1.457   1.164  16.255  0.0628  0.4543 -0.2032
 7423TIP3    H143760   1.520   1.201  16.317 -0.0020 -0.6986  0.5695
 7423TIP3    H243761   1.391   1.122  16.310 -1.0003  0.9972 -1.0148
 7424TIP3   OH243762   4.433   1.861   3.874 -0.4442 -0.6012 -0.4007
 7424TIP3    H143763   4.450   1.844   3.967 -0.2602  0.0610 -0.3066
 7424TIP3    H243764   4.506   1.916   3.846 -1.1363  0.2337 -0.6156
 7425TIP3   OH243765   6.663   4.421  12.119 -0.0307 -0.0525  0.2119
 7425TIP3    H143766   6.748   4.459  12.141  0.6367 -0.7912 -0.9454
 7425TIP3    H243767   6.653   4.348  12.181 -0.2742  0.6156  0.9673
 7426TIP3   OH243768   2.909   5.491  13.490 -0.1493 -0.0223 -0.3102
 7426TIP3    H143769   2.965   5.424  13.530 -1.1528 -0.1534  0.9435
 7426TIP3    H243770   2.823   5.477  13.530 -0.6959  1.1951 -1.0096
 7427TIP3   OH243771   2.387   1.492  15.778  0.1674 -0.5012  0.5524
 7427TIP3    H143772   2.471   1.457  15.808  0.8061  0.0028 -0.5852
 7427TIP3    H243773   2.328   1.480  15.853  1.7842  1.0422  2.1761
 7428TIP3   OH243774   3.419   3.937  13.851 -0.2133 -0.5152 -0.2320
 7428TIP3    H143775   3.326   3.918  13.835  0.0030 -1.8908  0.0593
 7428TIP3    H243776   3.454   3.958  13.764 -0.7655 -0.1002 -0.3631
 7429TIP3   OH243777   2.457   6.398   0.217  0.3121  0.1172  1.1081
 7429TIP3    H143778   2.378   6.363   0.176  0.1773  3.3260 -1.8262
 7429TIP3    H243779   2.429   6.422   0.306 -1.1508 -1.4199  1.1125
 7430TIP3   OH243780   4.849   1.009  15.306  0.1635  0.2711 -0.0194
 7430TIP3    H143781   4.911   0.962  15.251  1.2085  1.5708  0.0087
 7430TIP3    H243782   4.820   0.944  15.371 -2.7013 -1.9594 -3.1714
 7431TIP3   OH243783   6.295   3.490   4.291  0.2966  0.1715 -0.6840
 7431TIP3    H143784   6.322   3.582   4.294  0.8885 -0.0041 -0.4980
 7431TIP3    H243785   6.210   3.492   4.248  0.7728  0.7087 -1.6638
 7432TIP3   OH243786   4.437   0.087   3.913 -0.1787 -0.0284  0.1827
 7432TIP3    H143787   4.365   0.105   3.852 -1.1626 -1.3504  0.9017
 7432TIP3    H243788   4.428   0.154   3.981  0.1599  0.6821 -0.4590
 7433TIP3   OH243789   1.324   1.287   0.095  0.2314 -0.0788  0.1398
 7433TIP3    H143790   1.238   1.305   0.056  0.1683 -0.9706 -0.1591
 7433TIP3    H243791   1.304   1.229   0.169  0.7776 -2.7646 -1.6661
 7434TIP3   OH243792   3.439   0.969  16.717  0.1143  0.2191  0.1347
 7434TIP3    H143793   3.353   1.011  16.712 -0.7108 -1.4820 -0.4609
 7434TIP3    H243794   3.494   1.034  16.761 -1.0416  2.0024 -0.9187
 7435TIP3   OH243795   2.467   0.382   5.862  0.6027  0.8046  0.0489
 7435TIP3    H143796   2.374   0.365   5.875  0.5416  1.7812  0.9936
 7435TIP3    H243797   2.505   0.296   5.848 -0.4296  0.3874 -0.3060
 7436TIP3   OH243798   4.014   0.872   5.812  0.2686 -0.2128  0.0553
 7436TIP3    H143799   4.065   0.908   5.885  0.1980  1.3695 -0.6317
 7436TIP3    H243800   4.078   0.863   5.741 -0.3058  1.4930 -0.7159
 7437TIP3   OH243801   6.079   0.373   5.446  0.2851  0.4943  0.2124
 7437TIP3    H143802   6.079   0.438   5.375  1.7517 -2.4778 -2.7721
 7437TIP3    H243803   5.987   0.345   5.452  0.3716 -0.4005 -1.8170
 7438TIP3   OH243804   1.774   1.169  11.514 -0.4092  0.2681  0.3352
 7438TIP3    H143805   1.842   1.154  11.580  0.1809  0.8524 -0.1177
 7438TIP3    H243806   1.755   1.083  11.478  2.0088  0.3358 -1.3625
 7439TIP3   OH243807   3.840   1.908   4.088  0.2957 -0.2042  0.0289
 7439TIP3    H143808   3.846   1.983   4.148  0.0196 -0.3493  0.2451
 7439TIP3    H243809   3.777   1.849   4.131 -0.6745  0.1366 -0.8922
 7440TIP3   OH243810   0.686   4.978   6.496  0.5245 -0.6175  0.0739
 7440TIP3    H143811   0.704   4.977   6.590 -3.5501  0.2515  1.0578
 7440TIP3    H243812   0.717   4.893   6.464  1.4712 -1.1801  2.3090
 7441TIP3   OH243813   6.477   0.345   0.118 -0.8357  0.3380 -0.5849
 7441TIP3    H143814   6.448   0.422   0.167 -0.8581 -0.7453  1.2100
 7441TIP3    H243815   6.479   0.274   0.184  1.5533 -0.6472 -1.5890
 7442TIP3   OH243816   2.506   0.755   3.180  0.2332  0.8666  0.5163
 7442TIP3    H143817   2.508   0.729   3.088  1.2389  0.7744  0.5620
 7442TIP3    H243818   2.582   0.713   3.219  0.5601  1.9801  1.1084
 7443TIP3   OH243819   6.321   2.130   2.836 -0.2605 -0.4808  0.0396
 7443TIP3    H143820   6.376   2.057   2.867 -0.4413 -0.8723 -0.5533
 7443TIP3    H243821   6.281   2.097   2.755 -0.4109  0.2503 -0.1847
 7444TIP3   OH243822   5.214   0.288  14.153  0.5093  0.6466 -0.7318
 7444TIP3    H143823   5.153   0.359  14.138 -0.4943 -0.3576 -1.6117
 7444TIP3    H243824   5.254   0.272  14.067 -0.0270 -0.5004 -0.7854
 7445TIP3   OH243825   0.415   1.058  16.483 -0.3516  0.1805 -0.1582
 7445TIP3    H143826   0.419   0.971  16.522 -1.1597 -0.5611 -1.6748
 7445TIP3    H243827   0.321   1.076  16.474 -0.1983  1.2931  0.2939
 7446TIP3   OH243828   5.619   6.219  13.407  0.2782  0.1883 -0.5981
 7446TIP3    H143829   5.644   6.302  13.367  0.2377 -0.5770 -2.3030
 7446TIP3    H243830   5.527   6.209  13.386 -0.2203  0.5363  1.1945
 7447TIP3   OH243831   5.455   3.488   1.121  0.4219 -0.2072 -0.1152
 7447TIP3    H143832   5.541   3.446   1.126  1.2011  1.3605  0.5515
 7447TIP3    H243833   5.474   3.578   1.095 -1.0883  0.0337 -0.4957
 7448TIP3   OH243834   4.877   1.211  13.785  0.3466 -0.3317  0.0482
 7448TIP3    H143835   4.795   1.161  13.782  1.0428 -1.5087 -0.4358
 7448TIP3    H243836   4.860   1.289  13.733 -0.3230 -0.8086 -0.4650
 7449TIP3   OH243837   1.784   3.250   3.875 -0.2075 -0.0663 -0.4049
 7449TIP3    H143838   1.763   3.305   3.950  2.2489 -1.2187  1.2419
 7449TIP3    H243839   1.856   3.296   3.831  0.0176 -0.6148 -0.6149
 7450TIP3   OH243840   1.500   1.999   5.176 -0.5260 -0.0159 -0.1300
 7450TIP3    H143841   1.591   2.020   5.155 -0.3197  0.4328  1.0820
 7450TIP3    H243842   1.449   2.064   5.129 -0.0826  1.0258  0.7800
 7451TIP3   OH243843   2.787   3.745   1.237  0.4020 -0.4064 -0.0739
 7451TIP3    H143844   2.750   3.657   1.242 -1.3218  0.3047  0.3836
 7451TIP3    H243845   2.818   3.762   1.325  1.6350 -0.9001 -0.3938
 7452TIP3   OH243846   5.185   4.627   3.233  0.2484  0.2790 -0.4617
 7452TIP3    H143847   5.212   4.698   3.174 -0.0837 -0.4011 -1.4577
 7452TIP3    H243848   5.089   4.632   3.234  0.1907 -0.5125 -1.0086
 7453TIP3   OH243849   1.163   5.123   2.930 -0.0965 -0.0506 -0.3640
 7453TIP3    H143850   1.154   5.043   2.983  0.2229  0.4640  0.4918
 7453TIP3    H243851   1.257   5.131   2.914  0.0022  0.7611  0.5372
 7454TIP3   OH243852   4.551   1.924  16.414 -0.4098  0.1887 -0.5177
 7454TIP3    H143853   4.481   1.861  16.399  0.5544 -0.1506 -4.7995
 7454TIP3    H243854   4.512   2.009  16.394 -0.4210  0.4339  0.4702
 7455TIP3   OH243855   2.632   1.203  14.196  0.1927  0.2523  0.0119
 7455TIP3    H143856   2.695   1.138  14.228 -0.5779 -0.1974  0.6198
 7455TIP3    H243857   2.550   1.156  14.186 -0.4261  1.1690  0.6189
 7456TIP3   OH243858   3.775   0.905   6.010  0.0735  0.4741 -0.0921
 7456TIP3    H143859   3.860   0.919   6.052 -1.0962  0.9567  2.3254
 7456TIP3    H243860   3.726   0.851   6.073 -1.1279 -0.5536 -1.8245
 7457TIP3   OH243861   0.659   1.455   1.216 -0.1331 -0.5460 -0.3170
 7457TIP3    H143862   0.641   1.361   1.218  0.1123 -0.5850  0.1290
 7457TIP3    H243863   0.746   1.461   1.175  0.0112 -0.5382 -0.0091
 7458TIP3   OH243864   2.914   6.234  13.506 -0.1466  0.0531 -0.1918
 7458TIP3    H143865   2.950   6.318  13.535 -1.6938  0.6177  0.1855
 7458TIP3    H243866   2.975   6.169  13.539  0.1512  0.9329  1.0570
 7459TIP3   OH243867   4.153   2.057   3.132 -0.5847  0.2377 -0.0019
 7459TIP3    H143868   4.205   1.986   3.169 -0.3009  1.2349  1.6409
 7459TIP3    H243869   4.190   2.071   3.045 -1.3465 -2.2775 -0.8034
 7460TIP3   OH243870   5.594   3.663  13.718  0.2512  0.0872  0.0241
 7460TIP3    H143871   5.593   3.757  13.736 -0.0118  0.4245 -1.6415
 7460TIP3    H243872   5.621   3.624  13.801  3.0139  1.7998  0.0661
 7461TIP3   OH243873   3.232   1.897  12.559 -0.2488 -0.2767  0.3803
 7461TIP3    H143874   3.208   1.853  12.640 -0.8260 -1.0015 -0.1798
 7461TIP3    H243875   3.158   1.955  12.541 -0.1896 -0.2306  0.2874
 7462TIP3   OH243876   4.134   1.859   0.757  0.0118  0.6509  0.5471
 7462TIP3    H143877   4.041   1.883   0.758 -0.2767 -0.4592  0.8061
 7462TIP3    H243878   4.149   1.814   0.840  0.2679 -1.0367 -0.3654
 7463TIP3   OH243879   1.739   0.496   1.190 -0.0635 -0.0607 -0.4707
 7463TIP3    H143880   1.799   0.424   1.210 -1.2667 -1.3572 -1.3421
 7463TIP3    H243881   1.652   0.458   1.200 -0.7646  1.6761  0.4064
 7464TIP3   OH243882   4.543   5.391   1.543 -0.0041  0.0554  0.1590
 7464TIP3    H143883   4.551   5.388   1.638  0.0700  0.6742  0.1766
 7464TIP3    H243884   4.539   5.485   1.522 -1.6379 -0.0853 -0.3054
 7465TIP3   OH243885   3.800   2.244   5.702  0.1129 -0.1586 -0.3132
 7465TIP3    H143886   3.750   2.181   5.651 -0.9406 -1.1488  1.7965
 7465TIP3    H243887   3.884   2.201   5.719  0.0477 -0.2765 -0.2958
 7466TIP3   OH243888   3.653   0.940   3.061  1.1563  0.5362  0.5072
 7466TIP3    H143889   3.640   1.034   3.054 -1.9662  0.2023  0.4396
 7466TIP3    H243890   3.649   0.921   3.154  1.5819  0.4114  0.5059
 7467TIP3   OH243891   2.600   6.308  12.357  0.8097 -0.6467  0.4229
 7467TIP3    H143892   2.566   6.375  12.297  1.3202  0.9281  1.8048
 7467TIP3    H243893   2.544   6.232  12.342 -1.0345  0.7064  0.1271
 7468TIP3   OH243894   5.292   1.204   0.865  0.2942 -0.5337 -0.0332
 7468TIP3    H143895   5.203   1.172   0.880  0.0277  0.2795  0.1272
 7468TIP3    H243896   5.287   1.298   0.879  0.9588 -0.3297 -1.0781
 7469TIP3   OH243897   0.932   0.372   1.958  0.5094  0.1967  0.0866
 7469TIP3    H143898   1.019   0.397   1.928  0.8347 -0.0925  0.7592
 7469TIP3    H243899   0.945   0.349   2.050  0.0048 -1.3392 -0.2069
 7470TIP3   OH243900   0.133   4.981  16.885 -0.6788 -0.0539 -0.2501
 7470TIP3    H143901   0.199   5.030  16.934 -0.5979  0.5333 -0.9313
 7470TIP3    H243902   0.050   5.017  16.915 -0.6783 -0.5066  0.3037
 7471TIP3   OH243903   0.725   0.608   1.701  0.5822  0.3257  0.4225
 7471TIP3    H143904   0.701   0.614   1.793 -2.5221 -0.3816 -0.2154
 7471TIP3    H243905   0.745   0.515   1.687 -1.0963 -0.0161  0.0160
 7472TIP3   OH243906   4.046   0.276  14.329 -0.4604  0.1962  0.6272
 7472TIP3    H143907   3.994   0.203  14.294 -0.3965 -0.0417  1.0228
 7472TIP3    H243908   4.066   0.330  14.253  0.0375 -0.5453  0.2228
 7473TIP3   OH243909   0.762   1.014   2.975  0.1645 -0.1423  0.4001
 7473TIP3    H143910   0.825   1.035   2.906 -0.0239 -0.8832 -0.0015
 7473TIP3    H243911   0.682   1.061   2.949  0.4719  0.5975  0.7805
 7474TIP3   OH243912   2.872   4.960   2.527 -0.7172  0.0993  0.0803
 7474TIP3    H143913   2.892   4.882   2.475 -1.5682 -0.3105  0.3435
 7474TIP3    H243914   2.955   4.985   2.567  0.2858  1.1957 -2.4740
 7475TIP3   OH243915   2.114   1.925  10.916  0.4524  0.6163  0.4726
 7475TIP3    H143916   2.091   2.017  10.922 -1.4426  0.1133  1.8112
 7475TIP3    H243917   2.062   1.882  10.983  1.9714 -1.3306  0.5198
 7476TIP3   OH243918   2.778   2.602  12.540 -0.5209 -0.0080  0.7510
 7476TIP3    H143919   2.806   2.676  12.485 -0.3828 -0.7838 -0.2446
 7476TIP3    H243920   2.855   2.579  12.590  0.1197 -0.9311 -0.6123
 7477TIP3   OH243921   4.092   5.723  12.644  0.0805 -0.1574  0.5249
 7477TIP3    H143922   4.056   5.635  12.655 -3.5955  1.2386  1.2107
 7477TIP3    H243923   4.067   5.769  12.723  0.0655  2.0330 -0.6765
 7478TIP3   OH243924   1.787   0.741  13.114  0.2417  0.4804  0.2084
 7478TIP3    H143925   1.812   0.773  13.027 -1.9533  2.4828  0.2089
 7478TIP3    H243926   1.850   0.782  13.173  1.4998 -0.5680 -0.3563
 7479TIP3   OH243927   0.924   2.689   4.432  0.2528 -0.1453 -0.1912
 7479TIP3    H143928   0.924   2.670   4.338  1.1982  2.8003 -0.8839
 7479TIP3    H243929   0.998   2.638   4.466  2.3888  1.6592 -1.8300
 7480TIP3   OH243930   5.380   2.696   3.145  0.8495 -0.0185 -0.5477
 7480TIP3    H143931   5.342   2.614   3.176  0.2928  0.7354  0.8367
 7480TIP3    H243932   5.454   2.668   3.090  0.3530 -1.4444 -0.5385
 7481TIP3   OH243933   4.442   6.377   1.667 -0.1953  0.0913 -0.2451
 7481TIP3    H143934   4.365   6.370   1.610 -0.8284 -0.8877  0.7025
 7481TIP3    H243935   4.406   6.387   1.755  0.7462 -1.5176  0.3523
 7482TIP3   OH243936   6.169   0.801  15.540  0.2357 -0.6846 -0.5029
 7482TIP3    H143937   6.075   0.785  15.529  0.4900 -1.7924 -1.1724
 7482TIP3    H243938   6.173   0.886  15.585 -1.1831 -2.5051  3.5087
 7483TIP3   OH243939   6.809   2.943   3.729  0.4230 -0.1789 -0.7485
 7483TIP3    H143940   6.869   2.871   3.709  0.3578 -0.4375 -0.0416
 7483TIP3    H243941   6.850   2.989   3.802 -0.5262 -0.7300  0.1622
 7484TIP3   OH243942   2.467   0.278  16.844 -0.2182  0.1806  0.0593
 7484TIP3    H143943   2.494   0.209  16.782  0.0058 -1.2397  1.6603
 7484TIP3    H243944   2.525   0.266  16.919 -2.0871  0.2564  1.5641
 7485TIP3   OH243945   0.739   1.987   1.415 -0.1625 -0.1906  0.6864
 7485TIP3    H143946   0.745   1.928   1.490 -1.7509  0.0421  1.0366
 7485TIP3    H243947   0.753   2.074   1.452 -0.2575 -0.1363  0.5956
 7486TIP3   OH243948   0.568   1.221  12.292  0.0680  0.1596 -0.0107
 7486TIP3    H143949   0.627   1.222  12.217  2.0777 -0.4385  1.4633
 7486TIP3    H243950   0.520   1.138  12.284  1.1266 -0.4597 -0.0188
 7487TIP3   OH243951   6.175   2.627   3.538  0.0732 -0.2363 -1.2363
 7487TIP3    H143952   6.181   2.558   3.472 -0.3007 -0.3873 -1.1184
 7487TIP3    H243953   6.106   2.685   3.505  0.9051  0.4934 -1.7084
 7488TIP3   OH243954   5.539   6.664  13.783 -0.8488  0.1415  0.6565
 7488TIP3    H143955   5.611   6.635  13.726 -0.9362 -0.4557  0.8422
 7488TIP3    H243956   5.569   6.748  13.817 -0.6319  0.3310  0.0249
 7489TIP3   OH243957   6.510   6.421  10.394  0.0960 -0.1684  0.2669
 7489TIP3    H143958   6.501   6.513  10.416  0.5359  0.1430 -0.8076
 7489TIP3    H243959   6.600   6.399  10.419 -0.1167 -0.4130  0.8499
 7490TIP3   OH243960   0.063   5.315   1.977  0.1226 -0.8106  0.0028
 7490TIP3    H143961   0.104   5.234   2.007  1.1863 -1.1757 -2.2191
 7490TIP3    H243962   0.106   5.384   2.027  1.3446 -1.4330 -0.1535
 7491TIP3   OH243963   2.460   4.964   4.232  0.2728 -0.1284 -0.3290
 7491TIP3    H143964   2.445   4.871   4.213 -1.1336 -0.8120  3.1964
 7491TIP3    H243965   2.372   5.003   4.231  0.4555  0.4014  1.2251
 7492TIP3   OH243966   1.102   4.052  12.164 -1.2101 -0.4537 -0.2374
 7492TIP3    H143967   1.068   3.965  12.144 -0.1593 -0.6373 -1.4059
 7492TIP3    H243968   1.196   4.038  12.177 -1.2342  0.3208  0.9131
 7493TIP3   OH243969   1.230   6.599   3.231 -0.1815  0.5897 -0.6735
 7493TIP3    H143970   1.237   6.628   3.322 -0.3621  1.9769 -1.0817
 7493TIP3    H243971   1.304   6.538   3.220 -2.1605 -2.4930  1.3645
 7494TIP3   OH243972   6.132   0.579  11.779  0.0733  0.4580 -0.0006
 7494TIP3    H143973   6.078   0.648  11.740 -1.0196  0.8138  2.0010
 7494TIP3    H243974   6.071   0.528  11.832  0.9416 -1.8485 -1.0963
 7495TIP3   OH243975   1.506   5.523  14.070  0.0547  0.1919  0.5973
 7495TIP3    H143976   1.560   5.603  14.065  1.9072 -1.0357 -0.3687
 7495TIP3    H243977   1.457   5.523  13.987  1.3912 -0.5010 -0.2393
 7496TIP3   OH243978   5.251   0.501  16.672 -0.4166 -0.0514 -0.3100
 7496TIP3    H143979   5.189   0.572  16.655  0.2568  0.3761 -1.0494
 7496TIP3    H243980   5.304   0.495  16.592  2.4928  1.6573  1.3169
 7497TIP3   OH243981   0.894   0.958   1.424 -0.1452  0.8739  0.3557
 7497TIP3    H143982   0.980   0.915   1.428 -0.7876 -0.4928 -0.0378
 7497TIP3    H243983   0.913   1.050   1.444  0.7916 -0.1011  4.9059
 7498TIP3   OH243984   6.561   2.634   1.793 -0.0640  0.3896 -0.1420
 7498TIP3    H143985   6.592   2.573   1.860 -1.0248  1.5371  1.4015
 7498TIP3    H243986   6.516   2.579   1.729  0.4340 -0.6762  0.3959
 7499TIP3   OH243987   4.772   2.475  15.258 -0.2371 -0.0386 -0.1818
 7499TIP3    H143988   4.704   2.540  15.275 -0.7295 -0.2327 -1.3306
 7499TIP3    H243989   4.734   2.392  15.288 -0.5296 -0.1490 -0.8349
 7500TIP3   OH243990   0.838   6.653   4.559  0.2354  0.2188  0.2403
 7500TIP3    H143991   0.863   6.585   4.496  2.4820  3.2482 -2.4722
 7500TIP3    H243992   0.818   6.730   4.505  0.3538  2.4758  3.1718
 7501TIP3   OH243993   0.758   4.979  11.986 -0.3779  0.0101  0.2117
 7501TIP3    H143994   0.671   5.007  12.013 -0.5755 -0.0212 -0.3700
 7501TIP3    H243995   0.777   4.902  12.040 -0.2071  0.7221  1.1798
 7502TIP3   OH243996   2.918   4.485  16.530 -0.2944  0.6320  0.3000
 7502TIP3    H143997   2.976   4.554  16.563  2.2239 -1.7594  1.2944
 7502TIP3    H243998   2.878   4.448  16.608 -0.9701  0.3830 -0.1563
 7503TIP3   OH243999   2.799   2.167   0.703 -0.1612  0.7976 -0.0805
 7503TIP3    H144000   2.783   2.250   0.659 -1.5593 -0.5584 -2.3552
 7503TIP3    H244001   2.727   2.158   0.765 -2.2646 -0.2583 -2.4552
 7504TIP3   OH244002   0.406   4.890  12.165 -0.7082 -0.4715 -0.4075
 7504TIP3    H144003   0.346   4.965  12.163  1.0511  0.9994 -0.3397
 7504TIP3    H244004   0.458   4.903  12.244  1.1094 -0.5179 -1.5415
 7505TIP3   OH244005   0.556   5.567   4.284  0.4658  0.2027 -0.3291
 7505TIP3    H144006   0.566   5.479   4.322  0.7625  0.1928 -0.4303
 7505TIP3    H244007   0.497   5.612   4.345 -0.8961 -0.5336 -1.0569
 7506TIP3   OH244008   6.627   3.008   1.056 -0.0517  0.4366 -0.5679
 7506TIP3    H144009   6.539   2.975   1.072  0.1282 -0.4369 -1.3279
 7506TIP3    H244010   6.626   3.097   1.092 -1.5271  0.7907 -1.4132
 7507TIP3   OH244011   5.642   1.168  17.115 -0.4977 -0.0778  0.2431
 7507TIP3    H144012   5.692   1.250  17.106 -1.8313  0.5844 -1.9627
 7507TIP3    H244013   5.708   1.103  17.141  1.0225  1.2587 -0.0742
 7508TIP3   OH244014   6.449   5.455  12.094 -0.1685  0.3980  0.4953
 7508TIP3    H144015   6.464   5.476  12.002 -0.7917  1.5015  0.6372
 7508TIP3    H244016   6.449   5.359  12.097 -2.6403  0.2547 -1.1024
 7509TIP3   OH244017   2.339   1.639  12.913 -0.9741 -0.0392  0.1354
 7509TIP3    H144018   2.370   1.727  12.933  1.3449 -1.4673  4.0851
 7509TIP3    H244019   2.382   1.616  12.831  0.2785  1.6877  0.2518
 7510TIP3   OH244020   6.363   1.765   0.906  0.4102 -0.5513 -0.4249
 7510TIP3    H144021   6.443   1.713   0.920  0.6503 -0.0765 -0.0052
 7510TIP3    H244022   6.395   1.853   0.888 -0.0327 -0.1380  0.7221
 7511TIP3   OH244023   4.114   5.022   5.758 -0.6850 -0.1209  0.3467
 7511TIP3    H144024   4.117   5.026   5.853  2.2268 -1.7146  0.4359
 7511TIP3    H244025   4.185   4.962   5.734 -1.2222  0.3328 -2.8377
 7512TIP3   OH244026   4.680   5.803   2.475  0.7387  0.3144  0.1898
 7512TIP3    H144027   4.687   5.772   2.385  1.3968  1.0985 -0.0515
 7512TIP3    H244028   4.761   5.773   2.517  1.1014  1.1510  0.1139
 7513TIP3   OH244029   6.208   0.696   2.196 -0.9180 -0.3833  0.1783
 7513TIP3    H144030   6.131   0.664   2.244 -0.4959  0.0599  1.1625
 7513TIP3    H244031   6.187   0.678   2.104 -2.3548  0.0412  0.3955
 7514TIP3   OH244032   0.834   6.723  14.491 -0.6648  0.1601 -0.7186
 7514TIP3    H144033   0.876   6.727  14.405  0.7497 -0.6041 -0.1114
 7514TIP3    H244034   0.762   6.785  14.486 -0.5166  0.2393 -2.3995
 7515TIP3   OH244035   3.176   4.816  12.684 -0.1246  0.3512 -0.1489
 7515TIP3    H144036   3.263   4.850  12.667 -0.3046  1.3635  0.8144
 7515TIP3    H244037   3.144   4.786  12.599  1.4259 -0.7200 -0.3903
 7516TIP3   OH244038   0.655   4.436  15.982  0.7529 -0.5582 -0.3851
 7516TIP3    H144039   0.666   4.518  16.029 -0.3327 -0.9030  0.5156
 7516TIP3    H244040   0.685   4.369  16.044 -1.4784 -1.0915  0.2309
 7517TIP3   OH244041   0.779   6.350   0.380  0.2986  0.5969  0.8945
 7517TIP3    H144042   0.858   6.392   0.345 -0.0024  0.6932  0.3242
 7517TIP3    H244043   0.801   6.257   0.384  0.8017  0.7410  1.7205
 7518TIP3   OH244044   0.064   1.843  10.835 -0.0914 -0.3282  0.2354
 7518TIP3    H144045   0.006   1.867  10.908  0.4350 -0.1968  0.6176
 7518TIP3    H244046   0.152   1.847  10.873  0.1135 -1.3800 -0.1050
 7519TIP3   OH244047   4.939   3.875  15.364 -0.1865 -0.0763 -0.0404
 7519TIP3    H144048   4.891   3.809  15.313  0.7257 -1.2270  0.5388
 7519TIP3    H244049   4.915   3.857  15.455 -0.8226  1.1557  0.0504
 7520TIP3   OH244050   4.557   2.524   1.749  0.0155  0.2843  0.2169
 7520TIP3    H144051   4.522   2.457   1.809 -0.7252  1.7957  1.5362
 7520TIP3    H244052   4.485   2.540   1.687 -0.6625  1.4121  1.2551
 7521TIP3   OH244053   2.231   2.266  11.554  0.1095  0.1615 -0.8189
 7521TIP3    H144054   2.140   2.256  11.525 -0.2341  0.9898 -0.0806
 7521TIP3    H244055   2.233   2.224  11.640  1.0272 -1.9547 -1.7918
 7522TIP3   OH244056   2.492   2.009   0.886 -0.2428  0.4637 -0.5127
 7522TIP3    H144057   2.538   2.078   0.934  0.2786 -0.7949  0.8576
 7522TIP3    H244058   2.406   2.003   0.928  0.4161 -1.0239  0.6784
 7523TIP3   OH244059   6.644   3.281  15.730 -0.5104  0.3222  0.3699
 7523TIP3    H144060   6.730   3.239  15.740 -0.5287 -0.7577 -2.7419
 7523TIP3    H244061   6.658   3.346  15.660 -2.2778 -0.1474 -0.4657
 7524TIP3   OH244062   3.930   6.752   0.848  0.1234  0.1203 -0.2706
 7524TIP3    H144063   3.880   6.741   0.929  1.2544  0.6701  0.5313
 7524TIP3    H244064   3.995   6.682   0.850  1.6163  1.4770  0.4488
 7525TIP3   OH244065   6.256   1.967   4.217  0.0754 -0.2857 -0.0692
 7525TIP3    H144066   6.267   1.880   4.178  0.2060 -0.0415 -0.5902
 7525TIP3    H244067   6.333   2.016   4.188 -1.0625  0.6685 -1.6550
 7526TIP3   OH244068   6.440   5.589  16.192 -0.6399  0.6943 -0.7313
 7526TIP3    H144069   6.476   5.501  16.175  1.5019  0.4832  3.3974
 7526TIP3    H244070   6.375   5.574  16.261 -0.4352  2.3047 -0.1610
 7527TIP3   OH244071   1.099   3.126   3.449  0.2922  0.4869  0.1050
 7527TIP3    H144072   1.054   3.070   3.512 -0.8076  1.4369  0.1955
 7527TIP3    H244073   1.192   3.116   3.470  0.0942 -0.9866  0.3641
 7528TIP3   OH244074   6.072   1.574  11.435 -0.0469  0.5498  0.1488
 7528TIP3    H144075   6.066   1.666  11.408  1.3337  1.2551  2.0194
 7528TIP3    H244076   5.986   1.538  11.416 -0.2450  1.8684 -1.7826
 7529TIP3   OH244077   2.419   5.559  10.656  0.9384 -0.5321 -0.0947
 7529TIP3    H144078   2.337   5.554  10.705  0.3013 -1.8196 -1.2164
 7529TIP3    H244079   2.440   5.653  10.654  0.0265 -0.2850  1.0517
 7530TIP3   OH244080   2.022   2.816   4.355 -0.5258  0.3568  0.4238
 7530TIP3    H144081   2.044   2.907   4.374 -0.0713 -0.1453  2.5086
 7530TIP3    H244082   1.936   2.804   4.396  1.0634 -1.1289  3.5990
 7531TIP3   OH244083   5.985   0.159   0.788 -0.1227  0.4740  0.0508
 7531TIP3    H144084   5.996   0.212   0.867  1.1510  2.5860 -1.4519
 7531TIP3    H244085   6.073   0.126   0.769 -0.6704 -1.1460  0.2307
 7532TIP3   OH244086   2.728   0.324   6.139 -0.0118 -0.3437  0.6096
 7532TIP3    H144087   2.657   0.383   6.165 -0.3399 -0.1713 -0.6092
 7532TIP3    H244088   2.802   0.349   6.195 -0.7899 -0.2610  1.6227
 7533TIP3   OH244089   1.030   3.057   4.161  0.1729 -0.0810  0.8565
 7533TIP3    H144090   1.115   3.012   4.163 -0.0401 -0.6457 -0.8488
 7533TIP3    H244091   0.995   3.046   4.249  1.6392 -0.3068  1.4358
 7534TIP3   OH244092   4.984   1.860   6.268  0.4651 -0.0676  0.2218
 7534TIP3    H144093   5.064   1.908   6.293 -0.3674  1.7314 -0.3841
 7534TIP3    H244094   4.981   1.786   6.328  1.8382  0.6307  1.2169
 7535TIP3   OH244095   4.943   5.570  13.279 -0.4110 -0.2143 -0.0208
 7535TIP3    H144096   4.947   5.487  13.231 -1.3809 -0.4555  0.3033
 7535TIP3    H244097   5.033   5.602  13.278  0.0013 -1.3246 -0.0542
 7536TIP3   OH244098   5.715   1.850  15.390  0.3901  0.3220  0.3895
 7536TIP3    H144099   5.777   1.906  15.342 -1.6252  2.0872 -0.2999
 7536TIP3    H244100   5.634   1.854  15.339 -0.9848 -0.0718  2.4219
 7537TIP3   OH244101   6.204   1.800  14.438 -0.5830 -0.0426  0.0247
 7537TIP3    H144102   6.162   1.732  14.385 -0.2858  0.7692 -1.2876
 7537TIP3    H244103   6.140   1.871  14.440  0.4714  1.0044 -1.5710
 7538TIP3   OH244104   0.392   0.383   1.069  0.3784  0.4765 -0.1931
 7538TIP3    H144105   0.463   0.436   1.033  0.1536  0.3126 -0.8920
 7538TIP3    H244106   0.411   0.294   1.040  0.4970  0.2426  0.5772
 7539TIP3   OH244107   2.504   5.112  16.634 -0.1232 -0.5376 -0.5616
 7539TIP3    H144108   2.478   5.200  16.606 -0.0624 -0.5882 -0.7824
 7539TIP3    H244109   2.598   5.117  16.646 -0.3083 -0.1660  0.9339
 7540TIP3   OH244110   3.573   5.362  13.017  0.2309  0.4741 -0.2206
 7540TIP3    H144111   3.585   5.271  13.044 -1.2887  0.4651  0.5537
 7540TIP3    H244112   3.636   5.375  12.946  1.2871 -0.8197  0.4399
 7541TIP3   OH244113   1.179   3.328  13.481 -0.0610  0.1345  0.0227
 7541TIP3    H144114   1.178   3.249  13.535  2.6527  1.4462  2.2532
 7541TIP3    H244115   1.135   3.394  13.535  1.0716  1.0267 -0.1084
 7542TIP3   OH244116   2.484   4.308   2.211  0.5697  0.0808  0.8044
 7542TIP3    H144117   2.394   4.285   2.186  1.1199  0.2412 -1.5203
 7542TIP3    H244118   2.539   4.260   2.149  1.9771  2.3293  0.1913
 7543TIP3   OH244119   2.615   1.364  11.984 -0.0077 -0.4177  0.0338
 7543TIP3    H144120   2.614   1.455  11.954 -1.4539 -0.3355  0.2799
 7543TIP3    H244121   2.537   1.325  11.945  0.4227 -1.4814  0.1978
 7544TIP3   OH244122   2.352   4.370  14.502  0.5807  1.0361 -0.1950
 7544TIP3    H144123   2.446   4.386  14.515  0.8140 -1.1651  1.4883
 7544TIP3    H244124   2.349   4.291  14.447 -0.2332  0.6491  0.3758
 7545TIP3   OH244125   1.369   2.292  14.499 -0.4639  0.3899 -0.4016
 7545TIP3    H144126   1.353   2.324  14.410  1.8653  0.6112 -0.8191
 7545TIP3    H244127   1.326   2.206  14.501  0.7558 -0.3585 -2.3480
 7546TIP3   OH244128   0.879   3.119   3.009  0.2774 -0.1096 -0.1012
 7546TIP3    H144129   0.903   3.211   3.015 -1.7630  0.5514 -1.1650
 7546TIP3    H244130   0.961   3.072   3.024  1.7141  1.8991 -1.1657
 7547TIP3   OH244131   6.724   1.844   1.274  0.3350  0.0782  0.1262
 7547TIP3    H144132   6.657   1.836   1.342 -0.3811  0.7125 -0.4817
 7547TIP3    H244133   6.802   1.803   1.311 -0.2351 -0.1754  1.0633
 7548TIP3   OH244134   5.930   6.099   3.404 -0.5695  0.2275  0.4104
 7548TIP3    H144135   5.968   6.187   3.408 -0.3080  0.1278  0.1868
 7548TIP3    H244136   5.915   6.075   3.495 -1.5324  0.8847  0.4373
 7549TIP3   OH244137   4.371   5.614   5.232 -0.4275  0.2106  0.3499
 7549TIP3    H144138   4.366   5.695   5.182 -1.4463  0.2503  0.4912
 7549TIP3    H244139   4.444   5.566   5.193  0.6985  1.5111  0.7646
 7550TIP3   OH244140   2.682   1.051  12.854 -0.2576 -0.0181  0.4210
 7550TIP3    H144141   2.669   0.965  12.892  0.1908  0.2489  1.1944
 7550TIP3    H244142   2.767   1.047  12.811  0.0931  0.2507  1.0781
 7551TIP3   OH244143   0.237   6.209   1.150  0.2856 -0.3373  0.0467
 7551TIP3    H144144   0.307   6.273   1.159  0.4841 -0.2344 -1.7441
 7551TIP3    H244145   0.265   6.153   1.077 -1.4040 -0.3808 -0.6194
 7552TIP3   OH244146   4.403   1.164  12.450  0.2241 -0.2610 -0.3488
 7552TIP3    H144147   4.408   1.178  12.544  2.1613  3.5167 -0.8287
 7552TIP3    H244148   4.356   1.241  12.416  1.5503 -0.3647 -2.6255
 7553TIP3   OH244149   2.174   3.377  14.782 -0.9530 -0.2528  0.4529
 7553TIP3    H144150   2.094   3.352  14.737  0.3046 -2.1669 -0.8731
 7553TIP3    H244151   2.242   3.370  14.716  0.5691 -0.3862  1.9682
 7554TIP3   OH244152   1.211   5.173  15.672 -0.1167 -0.7971 -0.1735
 7554TIP3    H144153   1.199   5.178  15.577 -0.0882  0.7721 -0.1115
 7554TIP3    H244154   1.298   5.136  15.683  0.8780  1.2316 -0.8242
 7555TIP3   OH244155   5.952   1.305  15.061 -0.0433 -0.3162  0.5027
 7555TIP3    H144156   6.022   1.338  15.006  0.6620 -1.1649  0.8634
 7555TIP3    H244157   5.976   1.332  15.150  0.1105 -1.0634  0.6952
 7556TIP3   OH244158   6.023   3.954  11.370 -0.3767 -0.0210  0.1474
 7556TIP3    H144159   5.929   3.946  11.356 -0.7163  2.7497  0.3685
 7556TIP3    H244160   6.033   3.963  11.464  0.0627  0.0921  0.0924
 7557TIP3   OH244161   6.660   2.675   2.160  0.0306  0.1301 -0.1149
 7557TIP3    H144162   6.707   2.719   2.231 -0.3265  0.1579  0.1043
 7557TIP3    H244163   6.572   2.711   2.164  0.6054  1.9437 -2.1014
 7558TIP3   OH244164   1.682   5.573   1.531 -0.2782  0.7411 -0.0572
 7558TIP3    H144165   1.754   5.635   1.519 -0.0364  0.3600 -0.6255
 7558TIP3    H244166   1.603   5.627   1.528 -0.0399  1.1105  0.1908
 7559TIP3   OH244167   4.583   4.442   3.310  0.0425 -0.2309 -0.0707
 7559TIP3    H144168   4.619   4.382   3.245  0.5089 -0.1960  0.1538
 7559TIP3    H244169   4.590   4.394   3.393  0.2845  0.0827  0.0888
 7560TIP3   OH244170   6.559   0.930  15.771  0.1884 -0.6777 -0.1546
 7560TIP3    H144171   6.521   0.975  15.695  2.0100 -1.3261 -1.5134
 7560TIP3    H244172   6.634   0.983  15.796 -0.2960 -0.5645  1.1304
 7561TIP3   OH244173   2.170   0.994   3.132 -0.6070 -0.7226  0.6658
 7561TIP3    H144174   2.233   0.980   3.203  2.1211 -0.1562 -1.4400
 7561TIP3    H244175   2.156   0.907   3.095 -1.2955 -0.8807  1.2680
 7562TIP3   OH244176   0.470   1.442  11.841 -0.4101 -0.1841 -0.6137
 7562TIP3    H144177   0.558   1.405  11.840  0.0309  0.8108 -0.5568
 7562TIP3    H244178   0.444   1.441  11.933 -0.9785 -1.6265 -0.7751
 7563TIP3   OH244179   0.564   0.149   2.120 -0.2565  0.0874  0.6543
 7563TIP3    H144180   0.572   0.205   2.198 -0.8527  0.5530  0.3943
 7563TIP3    H244181   0.482   0.102   2.133 -0.9841  1.0629 -0.2400
 7564TIP3   OH244182   5.792   6.348   3.275 -0.0863  0.3697  0.2734
 7564TIP3    H144183   5.792   6.425   3.219  0.8853  1.0304  1.1550
 7564TIP3    H244184   5.818   6.380   3.361 -0.7894 -0.7523  0.9387
 7565TIP3   OH244185   3.950   4.525  15.224  0.0657  0.3382 -0.2474
 7565TIP3    H144186   3.874   4.553  15.274 -0.1264  2.2637 -1.4987
 7565TIP3    H244187   3.932   4.434  15.202 -1.9430  0.7652 -0.5680
 7566TIP3   OH244188   0.659   5.614  16.230  0.6591 -0.0960  0.1295
 7566TIP3    H144189   0.681   5.550  16.163 -1.3517 -0.3628 -0.3336
 7566TIP3    H244190   0.659   5.564  16.312 -0.1202 -0.5172 -0.1224
 7567TIP3   OH244191   3.686   4.982  11.437 -0.2634 -0.0547  0.0614
 7567TIP3    H144192   3.595   4.952  11.427  0.0640 -0.7359 -1.0682
 7567TIP3    H244193   3.738   4.902  11.440  0.4039  0.3419 -0.5165
 7568TIP3   OH244194   1.431   6.126   0.694 -0.2365  0.1038 -0.1172
 7568TIP3    H144195   1.454   6.096   0.606 -0.1262 -0.9754  0.2725
 7568TIP3    H244196   1.408   6.047   0.742  0.2888  0.6085  1.0096
 7569TIP3   OH244197   4.753   4.790  16.672 -0.2844  0.0871 -0.0264
 7569TIP3    H144198   4.838   4.801  16.714 -0.9014 -0.8134  1.5247
 7569TIP3    H244199   4.712   4.877  16.678 -0.3558 -0.0279  1.2394
 7570TIP3   OH244200   6.272   5.789   5.337 -0.0706 -0.0307  0.6587
 7570TIP3    H144201   6.203   5.737   5.377 -2.3493  1.2301 -1.3197
 7570TIP3    H244202   6.283   5.864   5.395 -1.0662  0.2020  0.5696
 7571TIP3   OH244203   6.104   6.643   4.997 -0.0264  0.5818 -0.5062
 7571TIP3    H144204   6.086   6.733   5.023  0.5537  0.7809 -0.7942
 7571TIP3    H244205   6.039   6.623   4.930 -1.9637 -0.1385  1.4482
 7572TIP3   OH244206   2.891   4.831   0.079 -0.2633 -0.2260 -0.3424
 7572TIP3    H144207   2.931   4.749   0.051 -0.7343 -0.2945 -0.8476
 7572TIP3    H244208   2.833   4.854   0.006 -1.0597 -0.0832  0.3333
 7573TIP3   OH244209   2.555   0.886   5.201  1.1407  0.2218 -0.2424
 7573TIP3    H144210   2.486   0.895   5.266  1.1297 -1.9875  0.1276
 7573TIP3    H244211   2.628   0.846   5.248  1.7181  0.0687 -1.2346
 7574TIP3   OH244212   4.056   4.399  12.169 -0.4690  0.0180 -0.3614
 7574TIP3    H144213   4.094   4.388  12.082  2.7135 -0.3466  0.9661
 7574TIP3    H244214   4.072   4.491  12.190  0.6855 -0.3887  0.6225
 7575TIP3   OH244215   4.040   3.823  16.825  0.4544 -0.8276 -0.7720
 7575TIP3    H144216   3.949   3.817  16.794  0.1097 -2.3807  0.4125
 7575TIP3    H244217   4.032   3.839  16.919  1.4375  0.1088 -0.8370
 7576TIP3   OH244218   1.272   5.879   2.376  0.3371  0.0453 -0.2718
 7576TIP3    H144219   1.192   5.829   2.365  0.5580 -0.2243 -0.6841
 7576TIP3    H244220   1.340   5.813   2.392  0.4966  0.2640 -0.0313
 7577TIP3   OH244221   1.575   4.350  14.125  0.3069 -0.0855 -0.2014
 7577TIP3    H144222   1.524   4.420  14.084 -0.7617  0.7965  2.4228
 7577TIP3    H244223   1.511   4.296  14.170  1.4291 -0.7392  0.6787
 7578TIP3   OH244224   5.857   4.125   6.737  0.1753 -0.3132 -0.0400
 7578TIP3    H144225   5.867   4.073   6.816  0.4144 -1.5988 -0.8869
 7578TIP3    H244226   5.874   4.215   6.765  1.1065 -0.8445  1.1949
 7579TIP3   OH244227   1.097   1.921  14.004 -0.0256  0.2863  0.3765
 7579TIP3    H144228   1.127   1.847  13.951  2.0983  0.4739  1.1960
 7579TIP3    H244229   1.002   1.912  14.006 -0.1534 -0.1976 -2.6995
 7580TIP3   OH244230   5.582   2.965  14.933 -0.2443 -0.3894 -0.2990
 7580TIP3    H144231   5.655   2.955  14.996  0.5836 -0.9160 -1.3098
 7580TIP3    H244232   5.523   2.893  14.954 -0.2157 -0.2745  0.1902
 7581TIP3   OH244233   2.443   3.923  16.417 -0.1661 -0.1152 -0.4863
 7581TIP3    H144234   2.403   4.009  16.430  0.6569  0.3345 -0.9029
 7581TIP3    H244235   2.376   3.872  16.372 -0.9064  0.0941  0.3473
 7582TIP3   OH244236   6.745   6.648   1.562 -0.1040 -0.0471 -0.0870
 7582TIP3    H144237   6.836   6.674   1.550  0.4080 -1.0240  1.3306
 7582TIP3    H244238   6.716   6.618   1.476  0.7039  0.8652 -0.6961
 7583TIP3   OH244239   0.601   1.583   4.266 -0.3696  0.0372 -0.1708
 7583TIP3    H144240   0.659   1.638   4.319 -0.8345 -1.2839  1.8193
 7583TIP3    H244241   0.517   1.629   4.265 -0.4898 -0.1466  0.6845
 7584TIP3   OH244242   4.055   1.340  10.444 -0.7710 -0.0496 -0.3888
 7584TIP3    H144243   3.988   1.365  10.507 -0.8821 -0.2213 -0.4372
 7584TIP3    H244244   4.103   1.268  10.487  0.1277  0.8268  0.1275
 7585TIP3   OH244245   5.808   3.798   0.342  0.2921 -0.0964  0.2813
 7585TIP3    H144246   5.845   3.741   0.274 -0.9801 -0.4484 -0.1479
 7585TIP3    H244247   5.867   3.873   0.345  0.0977  0.1804 -1.6027
 7586TIP3   OH244248   3.915   4.933  13.182 -0.4109  0.6895 -0.6494
 7586TIP3    H144249   3.952   4.845  13.176 -1.0577  0.3708 -0.0908
 7586TIP3    H244250   3.980   4.989  13.139 -0.1587 -0.1030 -1.3391
 7587TIP3   OH244251   4.925   3.056  11.063  0.6174  0.0699 -0.3502
 7587TIP3    H144252   4.941   2.997  11.136  0.9356  0.6600  0.0642
 7587TIP3    H244253   4.882   3.001  10.997 -0.5115 -0.2529  0.6300
 7588TIP3   OH244254   2.212   6.475   5.340  0.1432  0.1666  0.5101
 7588TIP3    H144255   2.282   6.501   5.399  1.0997 -4.2202  1.6575
 7588TIP3    H244256   2.248   6.492   5.252  1.0985  1.3749  1.1008
 7589TIP3   OH244257   2.296   3.206  15.512  0.4563  0.1075  0.0085
 7589TIP3    H144258   2.377   3.156  15.510 -0.1432 -0.9209 -2.6523
 7589TIP3    H244259   2.293   3.252  15.427 -0.5038  2.2475  1.1035
 7590TIP3   OH244260   3.269   3.006  11.459  0.9729  0.5895  0.0017
 7590TIP3    H144261   3.335   3.012  11.389  0.0646  0.0813 -0.9306
 7590TIP3    H244262   3.247   3.097  11.479 -2.0166  0.9134 -3.6232
 7591TIP3   OH244263   6.444   6.535   0.129  0.5918  0.0281  0.5237
 7591TIP3    H144264   6.470   6.530   0.221 -0.1689 -3.4061  0.7008
 7591TIP3    H244265   6.353   6.564   0.131  0.2861 -0.9134  0.9887
 7592TIP3   OH244266   1.790   2.827   4.879 -0.1956  0.2138 -0.3195
 7592TIP3    H144267   1.790   2.860   4.969 -0.8550  0.7039 -0.4882
 7592TIP3    H244268   1.697   2.812   4.859 -0.0087 -0.4370 -0.7232
 7593TIP3   OH244269   6.214   0.490  16.531 -0.3683  0.7543 -0.3965
 7593TIP3    H144270   6.223   0.461  16.622  0.5268 -2.1199 -1.2885
 7593TIP3    H244271   6.298   0.532  16.511  0.0249  0.0257 -0.3104
 7594TIP3   OH244272   5.922   1.161   5.302 -1.1642 -0.5585  0.2711
 7594TIP3    H144273   5.906   1.078   5.256  1.3092 -0.8864 -0.1267
 7594TIP3    H244274   5.969   1.214   5.238  0.7512 -0.3426  1.7760
 7595TIP3   OH244275   4.536   3.941   4.781  1.1611  0.6918  0.4567
 7595TIP3    H144276   4.558   3.911   4.869  2.3135  0.1104 -0.0008
 7595TIP3    H244277   4.621   3.954   4.738  0.6414  1.8081 -0.3040
 7596TIP3   OH244278   5.973   2.703   0.281  0.4575  0.4787 -0.6145
 7596TIP3    H144279   6.037   2.703   0.209 -1.1239  1.4716 -2.0811
 7596TIP3    H244280   5.911   2.634   0.258 -0.1275  0.8774 -0.2341
 7597TIP3   OH244281   0.475   2.277   1.279  0.3617 -0.0634  0.0563
 7597TIP3    H144282   0.469   2.245   1.189  1.2717 -1.0798  0.3483
 7597TIP3    H244283   0.513   2.365   1.271  0.2054 -0.0491 -0.5605
 7598TIP3   OH244284   0.182   5.005   5.923 -0.7188  0.1830  0.2554
 7598TIP3    H144285   0.217   5.033   6.008 -1.0961 -0.4291  0.6238
 7598TIP3    H244286   0.181   5.085   5.870  3.4890 -0.1620 -0.6341
 7599TIP3   OH244287   0.709   4.450   0.793  0.0215  0.1645 -0.1035
 7599TIP3    H144288   0.620   4.458   0.757 -0.0731  0.0541  0.1038
 7599TIP3    H244289   0.748   4.537   0.779 -0.7777  0.8318  1.5321
 7600TIP3   OH244290   4.228   4.510  11.964 -0.0116  0.6532 -0.4120
 7600TIP3    H144291   4.261   4.574  12.027  2.2447 -0.8590  0.0681
 7600TIP3    H244292   4.296   4.506  11.897 -1.1690  0.3672 -1.5882
 7601TIP3   OH244293   2.208   2.583   2.794 -0.4385  0.0126 -0.7131
 7601TIP3    H144294   2.192   2.513   2.857  2.4596 -0.4679 -0.3776
 7601TIP3    H244295   2.182   2.663   2.840  0.7866 -0.4150  0.8085
 7602TIP3   OH244296   0.562   6.448  14.438 -0.1305 -0.3206 -0.2032
 7602TIP3    H144297   0.637   6.390  14.451  0.1613  0.3668  1.4094
 7602TIP3    H244298   0.487   6.390  14.433  0.3673 -0.9442 -0.5458
 7603TIP3   OH244299   0.505   4.708  16.753  0.0721  0.0880  0.3293
 7603TIP3    H144300   0.462   4.639  16.804 -1.3007  0.6536 -0.0313
 7603TIP3    H244301   0.592   4.717  16.793 -0.5888 -0.2018  1.8834
 7604TIP3   OH244302   0.084   2.897   4.971  0.7876 -0.2408  0.0491
 7604TIP3    H144303   0.050   2.929   4.887  1.0215  1.0688  0.4328
 7604TIP3    H244304   0.154   2.958   4.993 -1.0503  1.1565  2.5051
 7605TIP3   OH244305   3.714   2.854   4.569 -0.1017  0.1555  0.4655
 7605TIP3    H144306   3.645   2.827   4.630 -0.3461 -0.6213 -0.1387
 7605TIP3    H244307   3.786   2.882   4.626 -0.8313  0.7799  1.0997
 7606TIP3   OH244308   1.584   4.781   1.781 -0.2739 -0.7403 -0.0850
 7606TIP3    H144309   1.547   4.827   1.856 -0.5579 -1.0951 -0.0073
 7606TIP3    H244310   1.510   4.768   1.722  0.3471  1.6494 -1.5327
 7607TIP3   OH244311   3.958   3.179   4.954  0.1533 -0.1407  0.1734
 7607TIP3    H144312   4.035   3.144   4.998 -0.3434 -0.5121  0.7620
 7607TIP3    H244313   3.884   3.138   4.999 -0.4622  1.7217  0.9625
 7608TIP3   OH244314   5.849   3.492   1.270 -0.0217  0.3860  0.3611
 7608TIP3    H144315   5.772   3.461   1.318 -0.0502  0.4969  0.3875
 7608TIP3    H244316   5.885   3.414   1.229  1.1428 -0.0927  2.1502
 7609TIP3   OH244317   4.210   6.231  16.551  0.1557  0.3534 -0.4014
 7609TIP3    H144318   4.151   6.234  16.475 -0.1232 -1.5012 -0.3114
 7609TIP3    H244319   4.166   6.285  16.617 -0.6154  0.3396 -0.8832
 7610TIP3   OH244320   4.072   5.969   1.979 -0.1137 -0.6990  0.6018
 7610TIP3    H144321   4.006   5.971   1.910  1.3446  1.2760 -0.8320
 7610TIP3    H244322   4.136   5.905   1.950 -0.4067 -1.2101  1.0554
 7611TIP3   OH244323   5.373   0.545   5.448 -0.0105  0.2486 -0.3910
 7611TIP3    H144324   5.429   0.526   5.523 -0.3907 -1.8731 -0.5758
 7611TIP3    H244325   5.389   0.472   5.387 -3.0900 -0.6048 -0.3568
 7612TIP3   OH244326   2.729   1.584  16.860  0.1178  0.0601  0.1817
 7612TIP3    H144327   2.668   1.658  16.853 -0.1202  0.0370  1.6466
 7612TIP3    H244328   2.773   1.596  16.944  1.4389 -0.4689 -0.3979
 7613TIP3   OH244329   2.622   5.513  13.452 -0.5257 -0.6182 -0.4148
 7613TIP3    H144330   2.581   5.593  13.484  1.6111  0.6297 -0.5608
 7613TIP3    H244331   2.583   5.443  13.502  0.3261  0.9207  2.6270
 7614TIP3   OH244332   2.992   3.380   2.612 -0.1243  0.1182 -0.4895
 7614TIP3    H144333   3.062   3.317   2.631  0.3401  0.4897 -0.9778
 7614TIP3    H244334   2.970   3.365   2.520 -1.9734 -1.2663  0.1060
 7615TIP3   OH244335   2.644   3.084   3.468  0.6422 -0.4683  0.5978
 7615TIP3    H144336   2.617   3.173   3.491 -1.1866 -0.6137 -0.6945
 7615TIP3    H244337   2.737   3.091   3.447  0.6048  1.0783  0.8395
 7616TIP3   OH244338   5.651   6.306  16.958  0.3958 -0.4398  0.4867
 7616TIP3    H144339   5.665   6.396  16.989  1.0101 -0.7198  1.0613
 7616TIP3    H244340   5.707   6.253  17.015 -0.0789 -1.2032  0.2508
 7617TIP3   OH244341   6.687   0.691  16.912 -0.0254  0.9884 -0.9297
 7617TIP3    H144342   6.651   0.655  16.831 -2.7250 -0.4462  0.7592
 7617TIP3    H244343   6.643   0.776  16.922 -0.5140  0.6846 -0.4576
 7618TIP3   OH244344   3.620   5.335  11.716  0.6605  0.1478  0.0485
 7618TIP3    H144345   3.700   5.372  11.754  0.4569 -0.4043  1.0639
 7618TIP3    H244346   3.619   5.244  11.746 -1.3093  0.6262  1.7559
 7619TIP3   OH244347   2.821   4.854  14.063  0.3442 -0.0552  0.1747
 7619TIP3    H144348   2.734   4.815  14.058 -0.3638  1.1707  1.9340
 7619TIP3    H244349   2.853   4.830  14.151  1.7717 -0.4469 -0.4234
 7620TIP3   OH244350   4.142   0.310  14.851 -0.4996  0.1987 -0.0439
 7620TIP3    H144351   4.079   0.243  14.879 -1.1542  0.3933 -1.0183
 7620TIP3    H244352   4.169   0.353  14.933 -2.0967  0.5170  0.3377
 7621TIP3   OH244353   3.167   6.146  11.203  0.2780 -0.5309 -0.1877
 7621TIP3    H144354   3.226   6.221  11.203 -0.3211 -0.0547  0.4759
 7621TIP3    H244355   3.123   6.151  11.118  0.2614 -0.1424 -0.1598
 7622TIP3   OH244356   0.127   0.033   5.078 -0.3984 -0.6129  0.3960
 7622TIP3    H144357   0.119   0.125   5.099 -2.9637  0.4928 -4.0441
 7622TIP3    H244358   0.217   0.010   5.100  0.4262  3.0323  1.3222
 7623TIP3   OH244359   2.872   4.752   4.992  0.3217 -0.0207 -0.0554
 7623TIP3    H144360   2.939   4.792   5.048 -1.1875  0.6128  1.3486
 7623TIP3    H244361   2.823   4.827   4.957 -1.2194 -0.5145  0.9521
 7624TIP3   OH244362   6.424   5.107   4.515  0.1739  0.1531  0.8504
 7624TIP3    H144363   6.433   5.185   4.570 -0.6369  1.0130 -0.1891
 7624TIP3    H244364   6.330   5.101   4.498  0.0948 -1.5962  1.6426
 7625TIP3   OH244365   6.507   5.938  15.987 -0.4433 -0.1506  0.1056
 7625TIP3    H144366   6.457   5.903  15.913 -1.3311  0.2298  0.5023
 7625TIP3    H244367   6.441   5.951  16.056  0.1659  0.5957  0.5636
 7626TIP3   OH244368   5.308   1.427  11.797  0.0159 -0.5696  0.2510
 7626TIP3    H144369   5.265   1.432  11.712  0.7823 -0.0625 -0.1274
 7626TIP3    H244370   5.390   1.475  11.784  0.0051 -0.2345  1.3617
 7627TIP3   OH244371   2.308   2.897   1.254  0.2570 -0.0762 -0.5085
 7627TIP3    H144372   2.329   2.805   1.239 -3.0129 -0.8573 -1.0756
 7627TIP3    H244373   2.285   2.902   1.346 -0.0238  0.0520 -0.5833
 7628TIP3   OH244374   4.760   4.937   4.537 -0.2322 -0.2013  0.0268
 7628TIP3    H144375   4.801   5.021   4.516 -2.5919  0.4727 -2.5533
 7628TIP3    H244376   4.833   4.874   4.539  1.4660  1.6735  0.9838
 7629TIP3   OH244377   6.417   5.886   1.396  0.1340  0.0096 -0.1800
 7629TIP3    H144378   6.375   5.804   1.371  0.7397  0.0410 -1.3988
 7629TIP3    H244379   6.364   5.954   1.353  0.8215  0.1107 -0.8872
 7630TIP3   OH244380   2.266   6.717  10.763  0.1186 -0.5914 -0.1649
 7630TIP3    H144381   2.275   6.702  10.669  2.6974 -0.6897  0.0165
 7630TIP3    H244382   2.297   6.636  10.802 -1.9680 -0.9759  0.8272
 7631TIP3   OH244383   6.247   1.851  14.945 -0.2348 -0.5027  0.3666
 7631TIP3    H144384   6.281   1.777  14.995  0.5430  0.2156  0.9328
 7631TIP3    H244385   6.225   1.916  15.011 -2.3611 -0.7672 -0.0085
 7632TIP3   OH244386   0.973   1.308   1.944 -0.1242  0.1093 -0.1324
 7632TIP3    H144387   0.889   1.344   1.973  0.4895  0.1211  1.7975
 7632TIP3    H244388   1.033   1.327   2.016  0.9993 -1.8953 -0.4655
 7633TIP3   OH244389   4.499   0.016  15.823 -0.2211  0.0089 -0.8129
 7633TIP3    H144390   4.483  -0.024  15.909 -2.5647 -0.4389 -1.3871
 7633TIP3    H244391   4.591   0.039  15.825  0.1855 -1.4510  1.2216
 7634TIP3   OH244392   6.550   4.231  14.382 -0.2207  0.0354  0.1161
 7634TIP3    H144393   6.473   4.288  14.370  0.9081  2.5234  3.2283
 7634TIP3    H244394   6.610   4.284  14.434  3.6903 -1.8079 -2.1553
 7635TIP3   OH244395   2.742   6.690  16.280  0.0713  0.3863 -0.0402
 7635TIP3    H144396   2.667   6.640  16.247 -0.4751  1.2255 -0.1131
 7635TIP3    H244397   2.816   6.630  16.275 -0.4753 -0.2492 -0.5795
 7636TIP3   OH244398   4.594   6.772  14.443  0.4397  0.2850 -0.1223
 7636TIP3    H144399   4.505   6.757  14.411 -0.0548  2.8046 -0.1980
 7636TIP3    H244400   4.591   6.745  14.535 -0.1228 -0.5292 -0.3636
 7637TIP3   OH244401   5.212   4.158  14.419 -0.2766 -0.7289 -0.3250
 7637TIP3    H144402   5.258   4.074  14.425 -0.0754 -0.9703 -3.5029
 7637TIP3    H244403   5.121   4.135  14.436  0.1226 -1.0773  1.4887
 7638TIP3   OH244404   2.630   0.228   1.608 -0.5535  0.1315  0.4312
 7638TIP3    H144405   2.592   0.232   1.520 -1.2743  1.2276  0.7563
 7638TIP3    H244406   2.643   0.320   1.632 -0.0690 -0.1650  1.3463
 7639TIP3   OH244407   3.973   4.136   6.476 -0.1666  0.6233  0.5397
 7639TIP3    H144408   4.026   4.120   6.554  2.0928  2.3466 -0.5610
 7639TIP3    H244409   3.928   4.218   6.494  1.0260  1.4697 -0.2855
 7640TIP3   OH244410   0.324   4.296  10.468 -0.2134  0.5212  0.0823
 7640TIP3    H144411   0.285   4.373  10.427 -0.2712  1.2942  1.5295
 7640TIP3    H244412   0.360   4.328  10.551  0.7646 -0.7933  0.1951
 7641TIP3   OH244413   0.790   1.246   0.161  0.0714  0.5880  0.1255
 7641TIP3    H144414   0.761   1.191   0.088 -0.5535  0.7145  0.2737
 7641TIP3    H244415   0.748   1.331   0.146 -0.2943  0.5333  0.7788
 7642TIP3   OH244416   4.871   0.827   3.805 -0.1538 -0.3311  0.3239
 7642TIP3    H144417   4.817   0.872   3.740 -0.1479  1.7774  1.6960
 7642TIP3    H244418   4.910   0.754   3.757 -2.6953 -0.8139 -1.1921
 7643TIP3   OH244419   1.435   4.479   5.772  0.0425  0.3395  0.3050
 7643TIP3    H144420   1.348   4.507   5.744 -0.2488 -1.1722 -0.4171
 7643TIP3    H244421   1.419   4.417   5.843  0.4289 -0.9718 -0.7183
 7644TIP3   OH244422   0.713   6.402  11.978  0.1714  0.2516 -0.1101
 7644TIP3    H144423   0.698   6.377  12.069 -0.8565  1.5249  0.0984
 7644TIP3    H244424   0.808   6.416  11.973  0.1780  0.6751  0.9157
 7645TIP3   OH244425   0.035   1.380   0.912  0.4593  0.0529  0.7384
 7645TIP3    H144426   0.085   1.425   0.980 -1.4090 -0.4301  2.5449
 7645TIP3    H244427  -0.005   1.306   0.957  1.9859 -2.4525 -1.7504
 7646TIP3   OH244428   4.916   6.399  13.163  0.0277  0.0506  0.2855
 7646TIP3    H144429   4.834   6.439  13.191  0.4209  0.4960  0.8133
 7646TIP3    H244430   4.968   6.472  13.129 -0.5444 -0.4929 -1.9306
 7647TIP3   OH244431   6.025   0.670  12.167 -0.6985  0.1128 -0.3745
 7647TIP3    H144432   6.038   0.576  12.153  1.9593  0.6708 -2.5108
 7647TIP3    H244433   6.084   0.712  12.104 -1.7456  3.2377  0.5484
 7648TIP3   OH244434   4.583   3.642  10.579 -0.2750  0.8145  0.3775
 7648TIP3    H144435   4.578   3.557  10.536 -1.4681  0.2189  1.6200
 7648TIP3    H244436   4.517   3.696  10.534 -0.3324  0.7320  0.3640
 7649TIP3   OH244437   0.802   5.663   2.867  0.1178 -0.1784 -0.3944
 7649TIP3    H144438   0.781   5.713   2.788 -1.2351  0.2609  0.2245
 7649TIP3    H244439   0.780   5.573   2.844 -0.6408  0.0031 -0.3975
 7650TIP3   OH244440   6.815   1.062   2.061 -0.0257  0.2970  0.4439
 7650TIP3    H144441   6.884   0.998   2.077 -1.3078 -1.9912 -2.3520
 7650TIP3    H244442   6.746   1.037   2.123 -0.9809 -1.9367 -1.3836
 7651TIP3   OH244443   1.097   3.931   6.068 -0.0976 -0.0077 -0.1731
 7651TIP3    H144444   1.026   3.951   6.129 -0.7457 -0.2486 -0.8300
 7651TIP3    H244445   1.057   3.941   5.982  0.9669  0.9196 -0.5697
 7652TIP3   OH244446   4.791   3.783  12.550  0.2032  0.1344  0.2715
 7652TIP3    H144447   4.726   3.761  12.483  0.2407  1.6725 -0.3115
 7652TIP3    H244448   4.849   3.707  12.552 -0.5433 -0.4782 -0.5229
 7653TIP3   OH244449   6.544   6.100  11.250  0.4171  0.4311 -0.9659
 7653TIP3    H144450   6.471   6.072  11.305 -0.3114  0.5650 -1.8460
 7653TIP3    H244451   6.508   6.170  11.195  1.5832  1.4873 -0.4467
 7654TIP3   OH244452   3.767   3.473  15.525 -0.5991 -0.1138 -0.1621
 7654TIP3    H144453   3.829   3.491  15.454  0.1578 -1.1629  0.2054
 7654TIP3    H244454   3.801   3.524  15.599 -1.2986  0.8524 -0.4751
 7655TIP3   OH244455   1.704   3.898   0.544 -0.0103  0.1758 -0.1378
 7655TIP3    H144456   1.636   3.954   0.582  0.1012 -0.6445  1.3331
 7655TIP3    H244457   1.699   3.816   0.594  0.1957 -0.9504 -1.8699
 7656TIP3   OH244458   1.051   1.971  16.826 -0.0457  0.1105 -0.3373
 7656TIP3    H144459   0.993   2.007  16.758 -1.0100  0.0035  0.4023
 7656TIP3    H244460   1.051   1.876  16.810 -0.9329 -0.0078  0.2884
 7657TIP3   OH244461   5.173   4.402  16.164 -0.2946  0.2550 -0.0084
 7657TIP3    H144462   5.115   4.478  16.162  0.8515  1.1386 -1.4941
 7657TIP3    H244463   5.116   4.329  16.189 -2.1058  1.0344 -1.6593
 7658TIP3   OH244464   1.578   3.624   3.499  0.6730  0.4925  0.4249
 7658TIP3    H144465   1.620   3.709   3.483 -2.2034  1.9356  0.0273
 7658TIP3    H244466   1.584   3.578   3.415  1.6300  0.5507  0.4480
 7659TIP3   OH244467   0.446   2.960   1.545 -0.0185  0.2656 -0.1414
 7659TIP3    H144468   0.470   2.871   1.571 -0.0882  0.0407 -0.8336
 7659TIP3    H244469   0.521   3.014   1.571  0.1409 -0.0357  0.0281
 7660TIP3   OH244470   3.921   6.160  15.808  1.0768  0.3904 -0.3830
 7660TIP3    H144471   3.844   6.214  15.825  0.5874 -0.3748 -0.0774
 7660TIP3    H244472   3.964   6.153  15.893  0.3138 -0.9053 -0.0648
 7661TIP3   OH244473   0.904   0.726  14.742  0.0405  0.5065 -0.2216
 7661TIP3    H144474   0.851   0.768  14.675  0.8979  0.8595 -0.6798
 7661TIP3    H244475   0.842   0.707  14.813 -0.8874  0.0516 -1.1283
 7662TIP3   OH244476   6.223   1.612  11.769  0.4770 -0.2318  0.6466
 7662TIP3    H144477   6.247   1.597  11.678  1.7777 -0.4709  1.0149
 7662TIP3    H244478   6.142   1.564  11.781  0.1175  0.0653 -0.4658
 7663TIP3   OH244479   5.663   3.863  15.483 -0.0268  0.0765 -0.5318
 7663TIP3    H144480   5.725   3.828  15.546  0.5370 -0.5933 -1.4315
 7663TIP3    H244481   5.591   3.898  15.536  1.2245  1.1060  0.5275
 7664TIP3   OH244482   5.406   5.970   4.459 -0.1551 -0.2546  0.3333
 7664TIP3    H144483   5.323   6.014   4.440  0.2483  1.8241  2.8687
 7664TIP3    H244484   5.473   6.037   4.445  1.0810 -1.6113 -0.6722
 7665TIP3   OH244485   4.474   5.026  12.230 -0.1437 -0.8825 -0.2845
 7665TIP3    H144486   4.448   5.050  12.141 -2.0702  0.4353  0.5692
 7665TIP3    H244487   4.555   5.075  12.246 -0.7178  0.2467 -0.7298
 7666TIP3   OH244488   6.444   0.683  16.452 -0.6864 -0.4649 -0.3952
 7666TIP3    H144489   6.537   0.675  16.428 -0.2727  1.6426  0.2722
 7666TIP3    H244490   6.437   0.772  16.488 -3.0259 -0.5057 -0.6494
 7667TIP3   OH244491   5.776   5.554   2.669  0.3767  0.1224  0.2691
 7667TIP3    H144492   5.790   5.648   2.674  2.4428  0.0206 -1.9222
 7667TIP3    H244493   5.862   5.517   2.649 -0.9239 -1.8186 -2.5486
 7668TIP3   OH244494   5.414   6.632   2.823 -0.1456  0.1617  0.3247
 7668TIP3    H144495   5.440   6.724   2.811 -1.0254  0.3708 -0.1145
 7668TIP3    H244496   5.346   6.635   2.889 -0.8543 -0.0457 -0.3759
 7669TIP3   OH244497   4.164   2.907  15.774 -1.1537 -0.4406  0.2572
 7669TIP3    H144498   4.099   2.887  15.841 -1.0263 -0.0798  0.4901
 7669TIP3    H244499   4.191   2.997  15.792  1.3296 -1.4035  1.7947
 7670TIP3   OH244500   2.923   0.149   4.841  0.1535 -0.1162 -0.0503
 7670TIP3    H144501   2.989   0.168   4.775  0.7031 -2.6254 -0.3385
 7670TIP3    H244502   2.840   0.151   4.794  0.2492  0.8343 -0.1874
 7671TIP3   OH244503   2.401   4.899   2.356 -0.4230  0.2352  0.4690
 7671TIP3    H144504   2.403   4.977   2.411 -2.2025 -0.3525  1.4358
 7671TIP3    H244505   2.380   4.931   2.269  1.0931  1.0369  0.3676
 7672TIP3   OH244506   0.495   6.771   3.532 -0.1757  0.0341 -0.4776
 7672TIP3    H144507   0.449   6.853   3.513  2.0127  0.9506 -2.4044
 7672TIP3    H244508   0.527   6.781   3.622  0.6273  1.6404 -0.9057
 7673TIP3   OH244509   6.139   4.339  12.520 -0.0128 -0.1896 -0.3321
 7673TIP3    H144510   6.224   4.327  12.561  0.4156  1.3937 -0.6850
 7673TIP3    H244511   6.094   4.402  12.577 -0.4274  0.0261 -0.8902
 7674TIP3   OH244512   4.330   4.644  12.719  0.2920 -0.2507  0.3057
 7674TIP3    H144513   4.378   4.705  12.775  1.4920  0.1858 -1.1092
 7674TIP3    H244514   4.365   4.558  12.740 -1.3252 -0.4928  2.2326
 7675TIP3   OH244515   4.069   6.460   4.936  0.3956  0.2744  0.3955
 7675TIP3    H144516   4.023   6.433   5.015 -1.4386  2.9650  0.3706
 7675TIP3    H244517   4.076   6.555   4.944  0.4945  0.5878 -2.4876
 7676TIP3   OH244518   0.688   4.465  11.543  0.3531  0.1583 -0.0300
 7676TIP3    H144519   0.682   4.496  11.453 -0.2702  0.5842  0.1559
 7676TIP3    H244520   0.749   4.391  11.538 -2.1252 -1.9686 -1.3796
 7677TIP3   OH244521   4.678   2.977   1.727  0.2042  0.5574 -0.0574
 7677TIP3    H144522   4.586   2.953   1.738  0.9732 -1.9673  1.5688
 7677TIP3    H244523   4.701   2.942   1.641 -0.0322  0.0549  0.0773
 7678TIP3   OH244524   0.054   6.435  16.424 -0.1131  0.4403 -0.2892
 7678TIP3    H144525   0.080   6.344  16.434 -2.3424 -0.2852 -0.4887
 7678TIP3    H244526   0.017   6.458  16.510  2.2623  1.8706  0.4452
 7679TIP3   OH244527   4.676   4.088   2.246  0.4636 -0.1644 -0.4460
 7679TIP3    H144528   4.600   4.038   2.274  0.4701 -0.4553 -0.9354
 7679TIP3    H244529   4.720   4.031   2.183  0.5688  0.3893 -0.8744
 7680TIP3   OH244530   6.137   4.444  15.664 -0.4445  0.1741  0.3080
 7680TIP3    H144531   6.076   4.518  15.661 -0.2672  0.5173  2.9091
 7680TIP3    H244532   6.224   4.484  15.665 -0.1912 -0.2429 -1.1904
 7681TIP3   OH244533   0.253   1.399   4.236 -0.3914 -0.4585 -0.1996
 7681TIP3    H144534   0.330   1.358   4.276 -1.0089 -1.7296 -0.2778
 7681TIP3    H244535   0.265   1.492   4.254  0.2111 -0.8108  1.4653
 7682TIP3   OH244536   3.414   1.841   5.733  0.0037 -0.1139  0.2590
 7682TIP3    H144537   3.348   1.892   5.780  1.0391 -0.2517  1.9448
 7682TIP3    H244538   3.497   1.864   5.775  1.4933  1.8890 -3.3045
 7683TIP3   OH244539   4.940   4.206   3.803 -0.5110 -0.2110  0.1056
 7683TIP3    H144540   5.015   4.254   3.837 -0.0740 -1.0742  0.3891
 7683TIP3    H244541   4.976   4.151   3.733 -0.5787 -1.7179  1.2051
 7684TIP3   OH244542   3.414   0.256  14.705  0.2059 -0.2545 -0.2003
 7684TIP3    H144543   3.398   0.166  14.734  2.3582 -0.6470 -0.0310
 7684TIP3    H244544   3.472   0.247  14.630  0.3536  0.9862 -0.2561
 7685TIP3   OH244545   5.901   0.228   0.198  0.0065  0.2966  0.2902
 7685TIP3    H144546   5.828   0.166   0.203  1.4937 -1.6407 -0.6175
 7685TIP3    H244547   5.870   0.298   0.141 -1.7396  0.4633  1.3805
 7686TIP3   OH244548   5.340   2.479  14.249  0.2224 -0.3303 -0.2303
 7686TIP3    H144549   5.264   2.461  14.305  0.5354  0.2120  0.3884
 7686TIP3    H244550   5.397   2.403  14.262  1.3261  0.7762  2.0065
 7687TIP3   OH244551   5.498   4.926   3.734 -0.6295 -0.3742 -0.2374
 7687TIP3    H144552   5.417   4.959   3.774 -1.2640 -2.3620  0.2306
 7687TIP3    H244553   5.550   4.893   3.808  1.5159  2.5243 -0.3003
 7688TIP3   OH244554   2.372   2.904  16.105  0.1952  0.2946  0.0255
 7688TIP3    H144555   2.347   2.887  16.014 -0.2626  2.5968 -0.3349
 7688TIP3    H244556   2.338   2.991  16.123  3.5283  1.5184  1.1695
 7689TIP3   OH244557   3.863   0.106   2.884 -0.1832  0.1459 -0.1454
 7689TIP3    H144558   3.926   0.035   2.894  0.2591  0.7633  1.7591
 7689TIP3    H244559   3.910   0.185   2.912 -1.3975  0.8137  0.0959
 7690TIP3   OH244560   4.718   0.616  13.642  0.2538 -0.0756  0.2727
 7690TIP3    H144561   4.631   0.586  13.667  0.0034  1.0765  0.8639
 7690TIP3    H244562   4.778   0.572  13.703 -0.1228  0.7542  1.2654
 7691TIP3   OH244563   2.987   3.650  13.730  0.1856 -0.4849 -0.5959
 7691TIP3    H144564   3.048   3.588  13.692  0.3731 -2.0451  2.0057
 7691TIP3    H244565   3.031   3.735  13.723  2.6184 -1.5197  0.9884
 7692TIP3   OH244566   2.492   2.042   2.000  0.2939 -0.2534  0.3415
 7692TIP3    H144567   2.552   2.104   1.957  1.6298 -2.4823 -1.2060
 7692TIP3    H244568   2.480   2.079   2.087  3.4827  0.6761  0.5441
 7693TIP3   OH244569   2.459   5.412  16.009  0.0282 -0.2269  0.8617
 7693TIP3    H144570   2.405   5.337  16.032 -0.3707 -0.6208 -1.1753
 7693TIP3    H244571   2.397   5.478  15.977  0.4537  0.6905  1.8500
 7694TIP3   OH244572   6.527   5.316   0.113  0.3781 -0.4228 -0.1316
 7694TIP3    H144573   6.621   5.319   0.094 -0.0091 -1.1064 -2.4679
 7694TIP3    H244574   6.492   5.396   0.075  0.1491  0.5168  1.9354
 7695TIP3   OH244575   5.849   3.295  13.332  0.5593 -0.3811  0.3312
 7695TIP3    H144576   5.828   3.241  13.408  1.0779  0.7523  1.3079
 7695TIP3    H244577   5.792   3.371  13.340  0.5561 -0.2886 -0.4743
 7696TIP3   OH244578   1.811   6.651  14.258 -0.2811 -0.9416 -0.2113
 7696TIP3    H144579   1.741   6.708  14.226  0.5721 -0.0792 -0.6294
 7696TIP3    H244580   1.769   6.567  14.274 -1.9531  0.2254  2.0378
 7697TIP3   OH244581   2.452   0.235  12.664  0.1182 -0.1825  0.2083
 7697TIP3    H144582   2.362   0.226  12.694  0.0864 -0.9323 -0.0830
 7697TIP3    H244583   2.499   0.271  12.739 -0.1253 -1.2388  0.8951
 7698TIP3   OH244584   2.457   3.326  16.063 -0.2992 -0.4226 -0.0295
 7698TIP3    H144585   2.449   3.383  16.139 -0.9061  0.1395 -0.4984
 7698TIP3    H244586   2.551   3.307  16.057 -0.3082 -0.9842  1.2081
 7699TIP3   OH244587   3.469   4.437   1.116 -0.3149 -0.5932  0.1499
 7699TIP3    H144588   3.512   4.380   1.053  2.4550  0.4816  0.9379
 7699TIP3    H244589   3.491   4.400   1.202 -1.5290 -0.3383  0.6073
 7700TIP3   OH244590   0.134   0.728  13.651  0.1579  0.4029  0.3054
 7700TIP3    H144591   0.063   0.702  13.592 -1.1854  0.9269  1.6220
 7700TIP3    H244592   0.128   0.666  13.723 -0.2841  1.6840  1.3962
 7701TIP3   OH244593   6.543   3.404   1.300 -0.5530  0.5583  0.4942
 7701TIP3    H144594   6.546   3.313   1.271 -2.4382  0.5023  0.3499
 7701TIP3    H244595   6.482   3.447   1.239 -0.2490  1.7407  0.9934
 7702TIP3   OH244596   6.007   5.753  16.003  0.0270  0.0392 -0.7939
 7702TIP3    H144597   5.987   5.804  15.925  0.0704  1.3243  0.0132
 7702TIP3    H244598   6.043   5.671  15.970  1.7662  1.2664 -2.1070
 7703TIP3   OH244599   6.297   1.828  16.717  0.5811  0.0691  0.3204
 7703TIP3    H144600   6.244   1.905  16.697 -0.8605 -1.0735 -0.5551
 7703TIP3    H244601   6.386   1.851  16.691 -0.2582  0.5828 -2.3965
 7704TIP3   OH244602   2.743   4.392  17.102  0.3155 -0.2101 -0.3850
 7704TIP3    H144603   2.685   4.462  17.072  1.2974  1.0096  0.4785
 7704TIP3    H244604   2.683   4.323  17.133 -0.6648  0.4633 -0.7540
 7705TIP3   OH244605   6.408   5.605   3.862  0.6129  0.2973  0.6105
 7705TIP3    H144606   6.346   5.585   3.792  0.5585  0.8076  0.5109
 7705TIP3    H244607   6.433   5.520   3.896  1.4390 -0.0258 -0.7253
 7706TIP3   OH244608   0.576   3.257   6.407  0.3323 -0.3619 -0.2759
 7706TIP3    H144609   0.652   3.292   6.454  0.3147 -0.2939 -0.2982
 7706TIP3    H244610   0.502   3.271   6.467  0.5716 -1.8328  0.4142
 7707TIP3   OH244611   2.462   0.987  15.743  0.2671 -0.1958 -0.0645
 7707TIP3    H144612   2.445   1.027  15.828 -0.0752 -0.3389 -0.0651
 7707TIP3    H244613   2.494   1.059  15.689 -0.6140  0.1400 -0.1463
 7708TIP3   OH244614   2.921   5.677  15.518  0.2644  0.1817 -0.0515
 7708TIP3    H144615   2.938   5.729  15.440 -0.5955 -1.7489 -1.6048
 7708TIP3    H244616   2.969   5.595  15.504  0.4795 -0.0288  1.6733
 7709TIP3   OH244617   2.165   5.957   3.370  0.3912 -0.1608  0.8675
 7709TIP3    H144618   2.091   5.896   3.363  0.1873  0.1670  0.0751
 7709TIP3    H244619   2.231   5.921   3.310  0.3957  0.2174  0.6435
 7710TIP3   OH244620   3.834   0.261   0.082 -0.1965  0.2771 -0.3137
 7710TIP3    H144621   3.868   0.207   0.153  1.2890  1.2157 -0.2468
 7710TIP3    H244622   3.858   0.214   0.002 -1.7844 -0.7317 -0.2332
 7711TIP3   OH244623   5.540   2.778  14.475  0.7492  0.1366  0.4289
 7711TIP3    H144624   5.624   2.814  14.504  0.6471  1.1035 -0.4068
 7711TIP3    H244625   5.563   2.706  14.416  1.0685  1.6075 -1.3358
 7712TIP3   OH244626   3.623   4.288  12.471  0.1312  0.1985  0.0211
 7712TIP3    H144627   3.717   4.296  12.459  0.3943  0.5649  1.9611
 7712TIP3    H244628   3.604   4.338  12.551 -1.7100  0.1724 -0.3461
 7713TIP3   OH244629   0.315   1.003   0.649  0.3058 -0.4422  0.1742
 7713TIP3    H144630   0.334   0.925   0.595 -0.2781 -1.4661  1.4029
 7713TIP3    H244631   0.377   1.069   0.617  2.1315 -1.9848  0.3475
 7714TIP3   OH244632   3.450   5.705   5.880 -0.0232 -0.2268  0.2516
 7714TIP3    H144633   3.432   5.626   5.932 -0.3141  0.6201  1.4719
 7714TIP3    H244634   3.546   5.714   5.883  0.0654 -0.8354 -0.3784
 7715TIP3   OH244635   2.516   1.343  13.723  0.2455  0.0818  0.4043
 7715TIP3    H144636   2.560   1.389  13.651 -0.4491  1.5779  0.8742
 7715TIP3    H244637   2.429   1.322  13.688  0.5662 -0.9056  0.1887
 7716TIP3   OH244638   4.201   5.064   2.555  0.7355  0.1439  0.0154
 7716TIP3    H144639   4.207   5.159   2.567 -0.0680  0.1191  0.6915
 7716TIP3    H244640   4.108   5.046   2.560  0.8666 -0.6548 -0.3909
 7717TIP3   OH244641   5.284   5.786  14.390  0.2626 -0.2874 -0.2834
 7717TIP3    H144642   5.362   5.841  14.394  0.1539 -0.0819 -0.9648
 7717TIP3    H244643   5.309   5.706  14.436  1.1271 -0.5229 -1.1361
 7718TIP3   OH244644   4.011   5.091   4.113  0.0858  0.0104 -0.2020
 7718TIP3    H144645   3.928   5.055   4.144  0.8587 -0.2735  1.7030
 7718TIP3    H244646   3.995   5.114   4.022 -2.1155  0.1089  0.1555
 7719TIP3   OH244647   5.404   2.136   5.227 -0.0589  0.4496  0.5542
 7719TIP3    H144648   5.346   2.099   5.293 -0.3105  0.4370  0.3285
 7719TIP3    H244649   5.380   2.090   5.146  0.1468  0.5679  0.4264
 7720TIP3   OH244650   5.123   0.284   4.479 -0.0303  0.6233  0.4195
 7720TIP3    H144651   5.152   0.375   4.492 -0.5970  0.8030  0.4559
 7720TIP3    H244652   5.083   0.260   4.562  1.2938 -0.1205  0.8657
 7721TIP3   OH244653   0.098   1.581   2.079 -0.0621  0.0968 -0.0668
 7721TIP3    H144654   0.096   1.498   2.128 -0.9999 -0.3164 -0.7739
 7721TIP3    H244655   0.081   1.648   2.144  0.4885 -0.2823  0.4799
 7722TIP3   OH244656   5.884   5.550  15.658  0.0523  0.2631 -0.0835
 7722TIP3    H144657   5.956   5.605  15.629  1.0558 -0.1461  1.4936
 7722TIP3    H244658   5.814   5.613  15.680  1.4021  1.0768  2.3269
 7723TIP3   OH244659   6.612   0.581   0.521  0.0428 -0.3532  0.4238
 7723TIP3    H144660   6.582   0.670   0.540  2.7176  0.5326  0.9764
 7723TIP3    H244661   6.560   0.554   0.446 -1.3876  1.3635  0.7222
 7724TIP3   OH244662   2.585   3.143   3.930 -0.6372  0.4036  0.2693
 7724TIP3    H144663   2.540   3.119   3.849  1.5434 -0.0103 -0.8880
 7724TIP3    H244664   2.555   3.233   3.947 -0.1901  1.0086 -1.7595
 7725TIP3   OH244665   0.558   0.746  15.824  0.1125  0.0757  0.3527
 7725TIP3    H144666   0.539   0.827  15.778  0.5330  0.4904  0.9022
 7725TIP3    H244667   0.545   0.677  15.758 -0.9758  0.5134  0.0839
 7726TIP3   OH244668   2.456   5.946  16.893  0.4309 -0.3715 -0.9439
 7726TIP3    H144669   2.536   5.935  16.945  0.5387 -0.6978 -1.1735
 7726TIP3    H244670   2.442   6.040  16.891  1.1009 -0.2730 -1.3375
 7727TIP3   OH244671   3.280   3.234  12.213  0.2000  0.5973 -0.0153
 7727TIP3    H144672   3.213   3.302  12.213 -0.9242 -0.3890 -2.1792
 7727TIP3    H244673   3.353   3.272  12.164 -0.4241  0.3074 -1.2152
 7728TIP3   OH244674   1.746   6.338   5.445  0.2036 -0.1190 -0.3889
 7728TIP3    H144675   1.723   6.423   5.484  0.6771 -0.4745  0.7146
 7728TIP3    H244676   1.832   6.318   5.482  1.3962  0.2141 -2.7906
 7729TIP3   OH244677   1.608   6.059   1.678  0.5279 -0.3854  0.0231
 7729TIP3    H144678   1.546   6.084   1.747  0.8890  0.1368  0.1636
 7729TIP3    H244679   1.692   6.093   1.707  0.3701  1.5283 -1.5353
 7730TIP3   OH244680   0.575   3.859  10.728  0.2867 -0.3241  0.5844
 7730TIP3    H144681   0.627   3.863  10.808 -0.1100 -3.3392  1.1198
 7730TIP3    H244682   0.619   3.793  10.674 -0.7630 -0.0445 -0.6670
 7731TIP3   OH244683   5.740   5.490  11.423  0.1154 -0.2855 -0.2145
 7731TIP3    H144684   5.799   5.512  11.350  0.7433  1.4248  0.7443
 7731TIP3    H244685   5.693   5.413  11.393  0.4332  0.2820 -2.3925
 7732TIP3   OH244686   1.333   6.631  16.424  0.3571  0.2400  0.2217
 7732TIP3    H144687   1.292   6.701  16.475 -1.0634 -0.0480 -0.4583
 7732TIP3    H244688   1.372   6.677  16.349  0.1198  0.3896  0.1873
 7733TIP3   OH244689   4.207   5.542   3.166  0.3887  0.2358  0.7206
 7733TIP3    H144690   4.282   5.561   3.111 -0.7801  0.3860 -0.8996
 7733TIP3    H244691   4.225   5.456   3.204  1.0671 -0.0375 -0.1982
 7734TIP3   OH244692   0.858   4.140   2.171  0.2005  0.3194 -0.1649
 7734TIP3    H144693   0.804   4.182   2.237 -0.2311 -0.0064 -0.3111
 7734TIP3    H244694   0.869   4.050   2.202  1.6771  0.6941  0.4883
 7735TIP3   OH244695   4.114   2.727   5.230 -0.2075 -0.1418 -0.4988
 7735TIP3    H144696   4.172   2.692   5.162 -0.8337 -2.1332 -0.0573
 7735TIP3    H244697   4.078   2.650   5.273 -1.0222  1.0812  1.0934
 7736TIP3   OH244698   2.630   2.706  13.125  0.0411  0.7001  0.1830
 7736TIP3    H144699   2.675   2.640  13.177 -0.2770  0.6024  0.3402
 7736TIP3    H244700   2.539   2.677  13.123  0.3240 -0.1799 -1.7940
 7737TIP3   OH244701   5.123   1.635   5.887  0.1310  0.6479  0.3917
 7737TIP3    H144702   5.195   1.589   5.845  0.7079 -0.1276  2.1197
 7737TIP3    H244703   5.044   1.590   5.855  0.6376 -1.0327  1.3634
 7738TIP3   OH244704   1.371   0.105   5.450 -0.8083 -0.2511  0.4727
 7738TIP3    H144705   1.370   0.155   5.531 -2.6271 -0.7454  0.7811
 7738TIP3    H244706   1.327   0.022   5.471 -2.5643  0.1483 -1.2992
 7739TIP3   OH244707   6.180   2.859  15.937  0.4194  0.2870 -0.3783
 7739TIP3    H144708   6.169   2.954  15.935  0.6649  0.3201 -0.2289
 7739TIP3    H244709   6.100   2.824  15.897  0.4697  0.5664 -0.7274
 7740TIP3   OH244710   1.051   2.819   5.666 -0.0285  0.1034 -0.5777
 7740TIP3    H144711   1.047   2.911   5.692  1.6195  0.0448  0.0126
 7740TIP3    H244712   0.975   2.779   5.708  1.4880  0.3973  2.7861
 7741TIP3   OH244713   0.740   2.070  14.243 -0.3505 -0.3598  0.4051
 7741TIP3    H144714   0.778   2.104  14.162 -1.3139  0.7689  0.3910
 7741TIP3    H244715   0.676   2.005  14.214  0.4495 -1.1263  0.3500
 7742TIP3   OH244716   6.494   1.097   1.704  0.3199 -0.3052 -0.9536
 7742TIP3    H144717   6.551   1.027   1.734 -1.9215 -1.8538 -0.0917
 7742TIP3    H244718   6.463   1.139   1.785 -0.4664 -0.0833 -1.3633
 7743TIP3   OH244719   3.211   4.689   1.008 -0.3762 -0.4134  0.4845
 7743TIP3    H144720   3.137   4.636   1.037  0.2754  0.7656  5.1263
 7743TIP3    H244721   3.189   4.778   1.035  1.0059  0.7253 -1.8745
 7744TIP3   OH244722   6.262   3.269  15.502 -0.4468  0.7523  0.3460
 7744TIP3    H144723   6.356   3.259  15.491 -0.3404  2.4082 -0.5408
 7744TIP3    H244724   6.228   3.278  15.413 -1.1200  2.5744  0.7479
 7745TIP3   OH244725   4.982   2.228  11.800 -0.2009 -0.2925  0.4643
 7745TIP3    H144726   4.976   2.249  11.707  0.7356  0.1120  0.4792
 7745TIP3    H244727   4.913   2.163  11.815 -1.1643  0.5403 -0.2425
 7746TIP3   OH244728   3.674   4.429   5.024 -0.0918  0.0433 -0.1918
 7746TIP3    H144729   3.678   4.448   5.117 -1.9094 -0.2514 -0.0279
 7746TIP3    H244730   3.605   4.364   5.015  0.5362 -0.4634 -1.6710
 7747TIP3   OH244731   0.917   0.072   3.040 -0.2067  0.3524 -0.1206
 7747TIP3    H144732   0.831   0.102   3.071 -0.3979 -0.0576 -0.2347
 7747TIP3    H244733   0.904  -0.022   3.024  0.5232  0.0860  0.7708
 7748TIP3   OH244734   6.375   0.472  11.751 -0.3833  0.0059 -0.3568
 7748TIP3    H144735   6.420   0.499  11.672  0.8156  2.3571  1.0143
 7748TIP3    H244736   6.285   0.501  11.739  0.3985  3.0119  0.1817
 7749TIP3   OH244737   0.124   3.218   4.359 -0.0914 -0.8329  0.4241
 7749TIP3    H144738   0.123   3.308   4.327 -0.1522 -0.4777  1.4215
 7749TIP3    H244739   0.051   3.176   4.313  1.3309 -1.0232 -1.8085
 7750TIP3   OH244740   4.084   1.292   2.175  0.3556 -0.4138  0.2614
 7750TIP3    H144741   4.127   1.242   2.245  0.6043 -0.3568  0.1500
 7750TIP3    H244742   4.036   1.226   2.124  2.5604 -0.9284 -1.3111
 7751TIP3   OH244743   6.213   2.068  12.479  0.2725  0.5104 -0.1775
 7751TIP3    H144744   6.268   2.026  12.413 -2.1328  1.8605 -3.3059
 7751TIP3    H244745   6.178   1.996  12.531  0.2096 -0.9234 -2.1020
 7752TIP3   OH244746   5.150   5.762   3.164 -0.2323 -0.2982 -0.1904
 7752TIP3    H144747   5.132   5.803   3.249 -0.5805  0.7228 -0.7483
 7752TIP3    H244748   5.130   5.830   3.100 -0.8362 -1.3473 -1.1430
 7753TIP3   OH244749   6.641   6.161  14.819  0.2379 -0.0639  0.1625
 7753TIP3    H144750   6.561   6.139  14.772  0.9549  0.1729 -1.2401
 7753TIP3    H244751   6.689   6.078  14.826  0.8315  0.1652 -0.9518
 7754TIP3   OH244752   2.097   1.377   2.596  0.2083  0.4431  0.0163
 7754TIP3    H144753   2.089   1.363   2.501 -0.1968  1.4305 -0.1083
 7754TIP3    H244754   2.030   1.321   2.634 -1.1038  1.6371 -0.4398
 7755TIP3   OH244755   0.855   0.785   0.669  0.4230 -0.5794 -0.0603
 7755TIP3    H144756   0.884   0.712   0.613  1.6513 -0.6024  0.5744
 7755TIP3    H244757   0.909   0.778   0.747 -1.8308 -1.0331  1.5431
 7756TIP3   OH244758   5.839   2.608   3.789  0.0024  0.3417 -0.8162
 7756TIP3    H144759   5.883   2.684   3.827 -0.5568  0.7709 -1.0035
 7756TIP3    H244760   5.749   2.614   3.822 -0.1850  0.0674 -1.2709
 7757TIP3   OH244761   4.411   4.214   2.790  0.7700 -0.3328  0.1528
 7757TIP3    H144762   4.480   4.158   2.754 -0.9053 -1.7025 -1.1038
 7757TIP3    H244763   4.416   4.201   2.885  2.2317 -0.3618  0.1005
 7758TIP3   OH244764   4.338   0.922   3.244 -0.0259 -0.1840 -0.5051
 7758TIP3    H144765   4.294   0.927   3.329 -0.9652  1.4508 -1.0596
 7758TIP3    H244766   4.397   0.997   3.243  1.7107 -1.4735 -0.4139
 7759TIP3   OH244767   6.341   6.832  12.495  0.0795 -0.2614 -0.6215
 7759TIP3    H144768   6.338   6.927  12.499 -0.7462 -0.2416 -1.4288
 7759TIP3    H244769   6.380   6.812  12.410  2.0874 -0.6664  0.3410
 7760TIP3   OH244770   5.271   1.272   2.887  0.6451  0.1712  0.0210
 7760TIP3    H144771   5.257   1.182   2.858 -0.7523  0.6101 -0.7650
 7760TIP3    H244772   5.365   1.278   2.901  0.6326 -1.7761  1.3996
 7761TIP3   OH244773   6.140   4.779   1.290  0.5704  0.1746 -0.0470
 7761TIP3    H144774   6.176   4.832   1.218  0.1265  0.3014 -0.1739
 7761TIP3    H244775   6.134   4.691   1.255  0.9839  0.1026  0.0532
 7762TIP3   OH244776   0.803   1.402  11.307  0.2199  0.1777 -0.7747
 7762TIP3    H144777   0.779   1.372  11.219  0.4960 -0.9055 -0.5036
 7762TIP3    H244778   0.878   1.459  11.293 -1.4411  2.3262 -1.4869
 7763TIP3   OH244779   6.174   6.731  10.490  0.9550  0.6886 -0.2574
 7763TIP3    H144780   6.257   6.737  10.443  1.5009  0.9009  0.6977
 7763TIP3    H244781   6.107   6.742  10.423  1.6739 -0.5019 -1.2076
 7764TIP3   OH244782   6.826   4.543  11.892 -0.3006  0.5658 -0.1201
 7764TIP3    H144783   6.798   4.496  11.813 -0.5895 -0.1008  0.3622
 7764TIP3    H244784   6.764   4.514  11.959  1.1021 -0.3758  0.8054
 7765TIP3   OH244785   3.579   3.887  16.122  0.1913  0.1868  0.6992
 7765TIP3    H144786   3.550   3.800  16.149 -0.0839  0.7203  2.2907
 7765TIP3    H244787   3.522   3.947  16.171  0.5893  1.2579 -0.1081
 7766TIP3   OH244788   1.899   0.507  16.175  0.0121 -0.3195 -0.3251
 7766TIP3    H144789   1.843   0.565  16.124 -0.3688 -1.8372 -1.7355
 7766TIP3    H244790   1.838   0.451  16.223  0.1348 -2.6615 -2.6355
 7767TIP3   OH244791   3.255   0.379   4.771  0.2706 -0.7573 -0.0620
 7767TIP3    H144792   3.302   0.406   4.692  0.5186 -0.3930  0.2034
 7767TIP3    H244793   3.170   0.349   4.739  0.2038 -0.2018 -0.4327
 7768TIP3   OH244794   5.183   2.588   2.904 -0.4497 -0.4062 -0.0883
 7768TIP3    H144795   5.176   2.508   2.851  0.3846  0.7215 -2.0275
 7768TIP3    H244796   5.137   2.568   2.985  1.0320 -3.3797  0.1303
 7769TIP3   OH244797   6.179   1.766   3.471  0.2065  0.1338 -0.4496
 7769TIP3    H144798   6.200   1.784   3.562  2.3373 -2.9697 -0.1753
 7769TIP3    H244799   6.219   1.839   3.423  0.0965  1.1889  0.9885
 7770TIP3   OH244800   6.272   4.471   1.631  0.3517  0.0788  0.4574
 7770TIP3    H144801   6.304   4.476   1.541 -0.5464  0.4177  0.1485
 7770TIP3    H244802   6.204   4.538   1.637  0.5082  0.1663  1.4362
 7771TIP3   OH244803   0.601   0.468  15.536  0.1254  0.0918 -0.0985
 7771TIP3    H144804   0.658   0.416  15.480  1.2773 -0.8780  1.8750
 7771TIP3    H244805   0.512   0.445  15.507  0.6563 -1.3525 -0.6878
 7772TIP3   OH244806   5.040   5.545  17.092  0.0381  0.2276  0.0574
 7772TIP3    H144807   5.015   5.460  17.128 -0.6567 -0.0068 -0.9302
 7772TIP3    H244808   5.053   5.528  16.999 -0.6937  1.3230 -0.2675
 7773TIP3   OH244809   6.101   4.042   6.417  0.0361 -0.3930 -0.1721
 7773TIP3    H144810   6.007   4.026   6.425 -0.0288  0.1595  0.1894
 7773TIP3    H244811   6.139   3.954   6.406 -0.5342 -0.6027 -0.5169
 7774TIP3   OH244812   4.713   0.368   2.786  0.4133 -0.4306 -0.5500
 7774TIP3    H144813   4.791   0.330   2.745 -0.0323 -0.6818 -1.1828
 7774TIP3    H244814   4.655   0.293   2.802 -0.4695 -0.0383 -1.8015
 7775TIP3   OH244815   4.430   6.137   2.940 -0.6308  0.2146 -0.7756
 7775TIP3    H144816   4.466   6.210   2.890 -0.8727  0.4435 -0.6207
 7775TIP3    H244817   4.464   6.149   3.029 -0.1833 -0.2040 -0.8838
 7776TIP3   OH244818   2.319   6.491  17.037 -0.0206 -0.0220 -0.2806
 7776TIP3    H144819   2.369   6.570  17.058  1.5105 -0.7497 -0.9948
 7776TIP3    H244820   2.265   6.475  17.114 -0.0956  1.5205  0.0106
 7777TIP3   OH244821   6.821   1.707   0.370 -0.6368 -0.2714 -0.1083
 7777TIP3    H144822   6.882   1.634   0.357  1.4973  0.8241  2.5496
 7777TIP3    H244823   6.740   1.666   0.398  0.3956 -1.7166  0.9485
 7778TIP3   OH244824   3.874   1.396   2.844  0.0769  0.1739 -0.2794
 7778TIP3    H144825   3.852   1.424   2.933  1.8017  2.5391 -0.4925
 7778TIP3    H244826   3.930   1.319   2.856 -1.3247 -0.7662  0.5487
 7779TIP3   OH244827   3.033   2.709   4.033 -0.5564  0.3999  0.0002
 7779TIP3    H144828   3.057   2.773   4.100  0.1000 -0.0745  0.2323
 7779TIP3    H244829   3.053   2.753   3.950  2.0631 -0.2924  0.1909
 7780TIP3   OH244830   0.136   1.471   0.378 -0.3353  0.4754  1.0727
 7780TIP3    H144831   0.193   1.476   0.301  1.0726  0.2836  2.0786
 7780TIP3    H244832   0.159   1.389   0.420 -2.1590 -0.1528  0.9317
 7781TIP3   OH244833   1.033   4.762  15.367 -0.3888  0.3059  0.0967
 7781TIP3    H144834   1.124   4.749  15.339  0.2985 -0.0654  2.3034
 7781TIP3    H244835   0.983   4.699  15.316  1.0947 -1.8701  1.1837
 7782TIP3   OH244836   1.201   4.239  14.030 -0.1612  0.4140  0.3327
 7782TIP3    H144837   1.192   4.147  14.003 -0.1419  0.7146 -0.7389
 7782TIP3    H244838   1.253   4.279  13.961  0.2524  1.1367  1.0417
 7783TIP3   OH244839   5.257   4.655   2.891  0.0297  0.2777 -0.3768
 7783TIP3    H144840   5.264   4.718   2.820 -0.0481  1.2004  0.4082
 7783TIP3    H244841   5.184   4.598   2.866  1.0361 -0.4482 -1.7923
 7784TIP3   OH244842   6.235   5.665   1.418  0.0171 -0.0290 -0.0616
 7784TIP3    H144843   6.260   5.579   1.453  0.5224  0.6958  1.4331
 7784TIP3    H244844   6.157   5.647   1.365 -0.0618 -1.3639  0.4650
 7785TIP3   OH244845   1.945   0.135  14.152  0.1298  0.3977  0.1826
 7785TIP3    H144846   1.987   0.065  14.103  2.6585  0.8126  1.5702
 7785TIP3    H244847   1.958   0.213  14.097 -0.8560  0.1714 -0.4026
 7786TIP3   OH244848   3.395   4.928  11.668  0.1949  0.3921  0.3084
 7786TIP3    H144849   3.428   4.841  11.690 -0.5465  0.1011  0.2956
 7786TIP3    H244850   3.464   4.988  11.698  0.9880 -0.2246 -0.2233
 7787TIP3   OH244851   4.462   0.489  14.947 -0.1591  1.0912  0.2069
 7787TIP3    H144852   4.540   0.437  14.963  0.5195  1.6362 -1.1133
 7787TIP3    H244853   4.459   0.553  15.019  0.8691  1.3446  0.0380
 7788TIP3   OH244854   5.435   1.985  14.021 -0.5013  0.0007 -0.5541
 7788TIP3    H144855   5.358   1.954  14.069  0.7568 -0.5588  1.1846
 7788TIP3    H244856   5.503   1.921  14.041  1.7359  2.8496  1.8035
 7789TIP3   OH244857   4.569   0.352  14.316  0.9173 -0.1216  0.2916
 7789TIP3    H144858   4.577   0.341  14.221  0.4838  0.5416  0.1746
 7789TIP3    H244859   4.475   0.359  14.331  0.9708 -0.4694  0.8006
 7790TIP3   OH244860   3.686   6.479  11.336  0.6495  0.2663  0.7196
 7790TIP3    H144861   3.773   6.450  11.309 -0.3019 -1.6881 -0.3722
 7790TIP3    H244862   3.652   6.407  11.388 -0.1425  1.2511  1.6162
 7791TIP3   OH244863   3.749   5.385   3.132 -0.1924  0.5456 -0.1942
 7791TIP3    H144864   3.661   5.372   3.168  0.4052 -2.9261  0.3896
 7791TIP3    H244865   3.734   5.424   3.046 -2.3418 -0.1155 -0.1812
 7792TIP3   OH244866   3.221   0.991  16.281 -0.2685  0.7239  0.0858
 7792TIP3    H144867   3.280   1.047  16.331  1.2223 -0.1657 -0.6092
 7792TIP3    H244868   3.152   0.967  16.343  0.1750  1.6681  0.9686
 7793TIP3   OH244869   1.057   6.443  12.304  0.1674 -0.3086 -0.5321
 7793TIP3    H144870   0.996   6.482  12.367  0.8294  1.1553 -0.7372
 7793TIP3    H244871   1.062   6.351  12.328 -2.1323 -0.4880 -0.5430
 7794TIP3   OH244872   5.086   4.300   2.944  0.2781 -0.1164 -0.1440
 7794TIP3    H144873   5.003   4.256   2.926  1.0042 -0.8010 -2.0944
 7794TIP3    H244874   5.100   4.288   3.038 -1.2654 -0.9699  0.0066
 7795TIP3   OH244875   3.479   1.991   3.977 -0.1244  0.6859 -0.4782
 7795TIP3    H144876   3.457   1.945   3.896  1.1111 -0.3946 -0.2412
 7795TIP3    H244877   3.473   1.924   4.045 -2.0460  1.7832  0.5100
 7796TIP3   OH244878   4.267   1.366  12.317 -0.0186  0.3429  0.3869
 7796TIP3    H144879   4.212   1.309  12.263 -0.4498  2.0082 -1.0462
 7796TIP3    H244880   4.245   1.455  12.288  2.4323  1.1515  0.7154
 7797TIP3   OH244881   4.800   2.334  16.635 -0.5547  0.8173 -0.1603
 7797TIP3    H144882   4.705   2.330  16.646 -0.6105  0.3366 -0.7754
 7797TIP3    H244883   4.814   2.403  16.571 -0.2975  2.8230  1.9193
 7798TIP3   OH244884   0.765   3.163  11.090  0.6800 -0.0586  0.3376
 7798TIP3    H144885   0.839   3.121  11.134  0.7936  0.1257  0.3220
 7798TIP3    H244886   0.785   3.257  11.093 -1.3622  0.4462  3.7607
 7799TIP3   OH244887   2.856   6.297  11.542  0.2651 -0.3039  0.0686
 7799TIP3    H144888   2.891   6.209  11.532  0.7559 -0.0914 -0.0704
 7799TIP3    H244889   2.853   6.311  11.636 -0.3683 -0.6894  0.1132
 7800TIP3   OH244890   1.338   3.849   6.310 -0.4462  0.3595 -0.8006
 7800TIP3    H144891   1.293   3.933   6.313  1.2812  1.2973  0.0567
 7800TIP3    H244892   1.358   3.828   6.401  0.9887  0.0731 -1.1563
 7801TIP3   OH244893   1.822   6.046  14.053 -0.2883 -0.6064  0.0067
 7801TIP3    H144894   1.830   5.987  14.128  0.2630 -0.6192 -0.0614
 7801TIP3    H244895   1.813   6.133  14.091 -1.2009 -0.7320  0.1117
 7802TIP3   OH244896   6.231   5.664   2.178 -0.0114  0.2153  0.0646
 7802TIP3    H144897   6.312   5.672   2.127 -0.8617 -0.1660 -1.4175
 7802TIP3    H244898   6.190   5.750   2.171  0.3343  0.4613  0.9620
 7803TIP3   OH244899   2.360   6.402  12.035 -0.0339 -0.5958 -0.7036
 7803TIP3    H144900   2.368   6.397  11.939  0.7166  1.0097 -0.7614
 7803TIP3    H244901   2.336   6.314  12.062  1.4973 -1.5443 -2.2274
 7804TIP3   OH244902   0.098   5.770   5.361  0.5707 -0.2591  0.2602
 7804TIP3    H144903   0.150   5.730   5.291  1.7561 -0.4063  1.1896
 7804TIP3    H244904   0.158   5.832   5.402 -0.5229  0.7870  0.3141
 7805TIP3   OH244905   1.194   2.989  11.656  0.2866 -0.0875  0.2690
 7805TIP3    H144906   1.251   2.913  11.645 -0.9569 -1.0866  0.4597
 7805TIP3    H244907   1.149   2.998  11.572 -0.0537  0.0315  0.4614
 7806TIP3   OH244908   3.094   5.560  11.312  0.2222  0.8741  0.2105
 7806TIP3    H144909   3.124   5.511  11.389  1.9509 -0.3588 -1.1770
 7806TIP3    H244910   3.005   5.527  11.296  0.8864 -0.9556  0.0399
 7807TIP3   OH244911   0.294   4.256  15.846  0.0055  0.2225 -0.1760
 7807TIP3    H144912   0.334   4.332  15.888 -2.0895  0.5057  1.4692
 7807TIP3    H244913   0.225   4.229  15.906 -1.8863 -0.5867 -2.5636
 7808TIP3   OH244914   5.883   5.233  15.490 -0.1001  0.0483 -0.2758
 7808TIP3    H144915   5.902   5.166  15.556  0.3689  1.0471  0.6610
 7808TIP3    H244916   5.944   5.304  15.512 -0.9666  0.9943 -0.8805
 7809TIP3   OH244917   0.172   0.758   3.907 -0.0420 -0.7510  0.4146
 7809TIP3    H144918   0.207   0.738   3.994  1.6241 -1.3227 -0.3319
 7809TIP3    H244919   0.168   0.673   3.863 -0.8578 -0.4688 -0.0746
 7810TIP3   OH244920   5.162   5.434  16.596  0.0683 -0.0493 -0.2829
 7810TIP3    H144921   5.166   5.352  16.646 -0.4070 -0.3731 -0.7583
 7810TIP3    H244922   5.101   5.489  16.645 -0.1080 -0.2259 -0.3033
 7811TIP3   OH244923   3.556   5.771   2.035  0.1194 -0.0197 -0.4713
 7811TIP3    H144924   3.650   5.780   2.053  0.1431  0.5540 -0.8694
 7811TIP3    H244925   3.515   5.783   2.121  0.4914 -1.9897  0.0337
 7812TIP3   OH244926   6.133   2.267   5.925 -0.6667  0.6424 -0.1875
 7812TIP3    H144927   6.197   2.328   5.962 -1.1368  0.0252  1.7677
 7812TIP3    H244928   6.077   2.322   5.870  1.3760  1.2292 -1.8312
 7813TIP3   OH244929   4.887   2.742  12.602 -0.4845  0.1509 -0.2745
 7813TIP3    H144930   4.793   2.731  12.589 -0.5128  0.7105 -0.5589
 7813TIP3    H244931   4.924   2.738  12.514 -0.1823 -0.5643 -0.1228
 7814TIP3   OH244932   3.552   2.343   3.797  0.2385 -0.0964  0.3365
 7814TIP3    H144933   3.566   2.435   3.818 -1.5814  0.5714 -1.1287
 7814TIP3    H244934   3.541   2.341   3.702  2.5587 -2.1892  0.0006
 7815TIP3   OH244935   2.560   0.035  16.035 -0.1505 -0.2472 -0.3250
 7815TIP3    H144936   2.621   0.107  16.019  2.3926 -1.5579  2.5200
 7815TIP3    H244937   2.595  -0.037  15.981 -0.5973 -0.3453 -0.4847
 7816TIP3   OH244938   6.444   3.148  14.209  0.1351 -0.0553  0.0247
 7816TIP3    H144939   6.364   3.200  14.208  0.3549  0.3028  0.8039
 7816TIP3    H244940   6.429   3.080  14.143 -0.2642  0.8244 -0.8232
 7817TIP3   OH244941   1.230   1.464  16.816  0.1032  0.8364  0.4370
 7817TIP3    H144942   1.242   1.371  16.830 -1.1884  0.5757 -0.0516
 7817TIP3    H244943   1.209   1.500  16.902  1.3763  0.8241  0.7651
 7818TIP3   OH244944   0.815   5.797  13.852  1.1873 -0.7646  0.7019
 7818TIP3    H144945   0.769   5.781  13.934  0.5778  1.6287  0.9231
 7818TIP3    H244946   0.816   5.893  13.844  2.9420 -0.8642 -1.1262
 7819TIP3   OH244947   1.129   1.555  10.003 -0.0846 -0.1254 -0.2045
 7819TIP3    H144948   1.194   1.494   9.969 -0.2596 -1.8251  2.2277
 7819TIP3    H244949   1.045   1.512   9.986 -0.2151 -0.5894  1.4400
 7820TIP3   OH244950   5.548   1.829   2.239 -0.3038 -0.2996 -0.4229
 7820TIP3    H144951   5.539   1.781   2.157 -1.5028 -1.0804  0.1306
 7820TIP3    H244952   5.605   1.774   2.293 -1.7217 -1.1949  0.2314
 7821TIP3   OH244953   5.565   2.615  14.795 -0.4158  0.3260  0.3829
 7821TIP3    H144954   5.625   2.679  14.755  0.9785 -0.1781  1.5642
 7821TIP3    H244955   5.479   2.656  14.788  0.2255  1.6451 -0.2577
 7822TIP3   OH244956   2.245   2.716   2.168  0.0905 -1.0551 -0.1743
 7822TIP3    H144957   2.255   2.716   2.263 -0.6641 -0.3590 -0.0890
 7822TIP3    H244958   2.300   2.789   2.138  1.4911 -2.1529 -0.4295
 7823TIP3   OH244959   0.977   6.815  14.744 -0.3150  0.3650  0.2402
 7823TIP3    H144960   0.944   6.772  14.824 -0.0487  0.4227  0.3830
 7823TIP3    H244961   0.932   6.770  14.673 -1.6674  1.2923  0.4814
 7824TIP3   OH244962   5.241   4.486   1.418 -0.0596 -0.4317 -0.5939
 7824TIP3    H144963   5.236   4.532   1.502 -2.1688 -0.9170 -0.3863
 7824TIP3    H244964   5.271   4.552   1.356  0.8629  0.1177  0.4123
 7825TIP3   OH244965   6.582   5.221   1.386  0.7682  0.0611 -0.5371
 7825TIP3    H144966   6.526   5.153   1.423 -0.2736  2.0459  1.8105
 7825TIP3    H244967   6.557   5.224   1.294 -2.0400 -0.1052  0.1256
 7826TIP3   OH244968   1.576   0.537  13.887  0.4913 -0.0686  0.0837
 7826TIP3    H144969   1.642   0.606  13.890 -0.8530  1.2410  1.3418
 7826TIP3    H244970   1.587   0.488  13.968  0.8777 -0.8096 -0.4052
 7827TIP3   OH244971   0.042   0.183  12.764 -0.8459  0.5701  0.6192
 7827TIP3    H144972  -0.018   0.116  12.731 -1.0084  0.5947  0.8665
 7827TIP3    H244973   0.004   0.266  12.734 -0.4877  0.5391  0.0600
 7828TIP3   OH244974   3.425   6.030   4.322  0.0443 -0.4501  0.0686
 7828TIP3    H144975   3.410   5.940   4.293  1.4746 -0.8536  0.4617
 7828TIP3    H244976   3.521   6.037   4.327 -0.0831  0.6047  1.5565
 7829TIP3   OH244977   1.758   4.272   3.531  0.0882 -0.1244  0.2097
 7829TIP3    H144978   1.785   4.266   3.440  0.9429 -0.8116  0.4872
 7829TIP3    H244979   1.840   4.271   3.581 -0.3927 -2.7569  1.1106
 7830TIP3   OH244980   1.529   6.612  13.254  0.4792 -0.1937  0.7682
 7830TIP3    H144981   1.601   6.588  13.197 -0.9091 -1.1652 -0.6605
 7830TIP3    H244982   1.460   6.548  13.234 -1.8068  2.3328 -0.0239
 7831TIP3   OH244983   5.289   6.154   0.071  0.0875 -0.7044  0.1484
 7831TIP3    H144984   5.334   6.194   0.145 -1.4968 -1.9185  1.8658
 7831TIP3    H244985   5.199   6.141   0.101 -0.7499 -0.8762 -2.1627
 7832TIP3   OH244986   2.275   3.934   1.487  0.6110  0.1338  0.1818
 7832TIP3    H144987   2.229   4.018   1.484 -0.9869 -0.7310 -0.3930
 7832TIP3    H244988   2.318   3.927   1.401 -1.4738 -0.7893 -0.8628
 7833TIP3   OH244989   4.953   6.356   1.964  0.2013 -0.1666 -0.0079
 7833TIP3    H144990   4.882   6.303   2.001  1.0550 -0.6909  0.9371
 7833TIP3    H244991   4.910   6.435   1.932 -0.8121 -0.4775  0.5446
 7834TIP3   OH244992   4.564   1.758   4.428  0.2096  0.2371  0.3884
 7834TIP3    H144993   4.643   1.710   4.403  0.3884  0.0551  1.2709
 7834TIP3    H244994   4.508   1.692   4.468 -1.5280 -0.2198 -2.4949
 7835TIP3   OH244995   4.955   1.432   1.136  0.6757 -0.0479  0.2011
 7835TIP3    H144996   4.966   1.429   1.041 -1.1606 -0.9034 -0.0197
 7835TIP3    H244997   4.966   1.342   1.165 -0.5586 -0.1043  0.5535
 7836TIP3   OH244998   4.523   1.249  11.282 -0.0583  0.0604 -0.8083
 7836TIP3    H144999   4.489   1.161  11.266  0.9472 -0.4790 -0.1006
 7836TIP3    H245000   4.586   1.264  11.212  2.0630 -1.0595  0.7851
 7837TIP3   OH245001   2.815   3.467  12.968  0.0234 -0.4980  0.0253
 7837TIP3    H145002   2.908   3.489  12.959  0.2812 -1.7437 -0.5124
 7837TIP3    H245003   2.779   3.477  12.880 -0.0399 -1.3377 -0.0521
 7838TIP3   OH245004   3.286   1.729  16.390 -0.1325 -0.4632  0.6912
 7838TIP3    H145005   3.351   1.796  16.409 -0.6210  0.5236 -0.9132
 7838TIP3    H245006   3.312   1.695  16.303 -0.8213 -1.2116  0.7688
 7839TIP3   OH245007   5.740   5.797   0.970  0.3674 -0.1925 -0.2653
 7839TIP3    H145008   5.835   5.805   0.963  0.3451  0.6872  0.2306
 7839TIP3    H245009   5.719   5.716   0.925  1.2725  0.0172 -1.1016
 7840TIP3   OH245010   1.273   0.185   4.189  0.3005 -0.3319 -0.2818
 7840TIP3    H145011   1.316   0.236   4.257  1.1370  0.8175 -1.6051
 7840TIP3    H245012   1.264   0.246   4.116  1.8563 -2.1736 -2.1606
 7841TIP3   OH245013   5.420   0.438  14.243  0.0640 -0.0406  0.0083
 7841TIP3    H145014   5.382   0.511  14.292  1.6256 -0.5301  2.0667
 7841TIP3    H245015   5.349   0.374  14.237 -1.4681  1.6814 -2.1765
 7842TIP3   OH245016   6.546   5.834  13.756  0.9538  0.4157 -0.1855
 7842TIP3    H145017   6.528   5.787  13.837 -0.0035 -2.3134 -1.8752
 7842TIP3    H245018   6.641   5.828  13.744  1.0952  0.8152  0.6647
 7843TIP3   OH245019   1.034   4.497  14.461 -0.0038  0.9120  0.2524
 7843TIP3    H145020   1.056   4.419  14.409  2.0175 -0.2055  2.5499
 7843TIP3    H245021   0.959   4.536  14.416 -1.4708 -2.6415 -0.7327
 7844TIP3   OH245022   3.200   3.771   0.747 -0.8109  0.2606  0.2600
 7844TIP3    H145023   3.141   3.720   0.801  1.0043  0.1140  2.2523
 7844TIP3    H245024   3.278   3.784   0.801  1.7726 -1.0892 -2.7792
 7845TIP3   OH245025   0.644   6.591   3.876 -0.1493  0.4122 -0.4732
 7845TIP3    H145026   0.660   6.588   3.782  0.5591  1.6285 -0.4170
 7845TIP3    H245027   0.723   6.630   3.913 -0.6684  0.5470  0.5485
 7846TIP3   OH245028   4.221   4.478  15.061  0.2885 -0.3122 -0.4419
 7846TIP3    H145029   4.143   4.533  15.064  0.5894  0.1068 -0.1266
 7846TIP3    H245030   4.207   4.420  14.986 -0.7361 -0.8751  0.1572
 7847TIP3   OH245031   6.329   5.472   1.892 -0.1928  0.0379 -0.5698
 7847TIP3    H145032   6.390   5.424   1.837 -0.0835 -0.9664  0.3906
 7847TIP3    H245033   6.247   5.422   1.886 -0.9298  1.2927 -1.7397
 7848TIP3   OH245034   4.442   5.014   5.478  0.1215  0.3016  0.2486
 7848TIP3    H145035   4.450   5.004   5.384  0.3927 -0.1777  0.3202
 7848TIP3    H245036   4.529   4.992   5.513 -0.0307  0.2756  0.6221
 7849TIP3   OH245037   2.802   1.417   3.412 -0.6606 -0.4554  0.4119
 7849TIP3    H145038   2.875   1.458   3.458 -1.3792  0.9209  0.3655
 7849TIP3    H245039   2.830   1.413   3.321 -0.2058 -0.9662  0.5673
 7850TIP3   OH245040   6.274   1.001  16.219  0.5493  0.1055 -0.2016
 7850TIP3    H145041   6.333   0.975  16.290  0.2533 -0.4056 -0.1438
 7850TIP3    H245042   6.293   0.941  16.148 -0.3323 -0.4634  0.0297
 7851TIP3   OH245043   5.538   0.227  14.081 -0.1392  0.5300  0.0138
 7851TIP3    H145044   5.532   0.155  14.143 -0.3459 -0.0837 -0.7083
 7851TIP3    H245045   5.528   0.306  14.134 -0.7843 -0.0048  0.6991
 7852TIP3   OH245046   2.937   0.298  10.672  0.2299 -0.3240 -0.0855
 7852TIP3    H145047   2.851   0.339  10.667  0.4409  0.5379  2.1580
 7852TIP3    H245048   2.996   0.358  10.626 -0.2907 -0.8076 -1.4300
 7853TIP3   OH245049   0.467   5.505   0.294  0.0571 -0.0507  0.2122
 7853TIP3    H145050   0.431   5.474   0.211 -1.0723  0.4564  0.4929
 7853TIP3    H245051   0.455   5.600   0.291 -0.3336 -0.0650  1.1021
 7854TIP3   OH245052   3.967   4.761   1.763  0.0066  0.1869 -0.2414
 7854TIP3    H145053   3.982   4.735   1.672  0.8127  0.3870 -0.1707
 7854TIP3    H245054   3.889   4.816   1.760  0.6257  1.0641 -0.9808
 7855TIP3   OH245055   4.716   5.894   1.395  0.4401 -0.0853  0.3048
 7855TIP3    H145056   4.668   5.834   1.338  1.7736  0.4817 -1.5045
 7855TIP3    H245057   4.699   5.981   1.359  1.6489  0.2490  0.4860
 7856TIP3   OH245058   4.626   1.137  15.757 -0.0784  0.1825 -0.6975
 7856TIP3    H145059   4.570   1.195  15.809 -1.4569  0.7310 -2.6998
 7856TIP3    H245060   4.698   1.193  15.728 -1.1021  0.7750 -2.1493
 7857TIP3   OH245061   3.021   3.885  12.221  0.5935  0.3947  0.3328
 7857TIP3    H145062   2.963   3.958  12.195 -0.4207 -0.8939 -1.2171
 7857TIP3    H245063   2.994   3.865  12.311 -0.3628  0.7709  0.1472
 7858TIP3   OH245064   3.068   3.369  10.684  0.4990  0.1671  0.0664
 7858TIP3    H145065   3.077   3.299  10.619 -0.2363 -0.2092  0.3579
 7858TIP3    H245066   3.141   3.428  10.666 -0.8603  1.2558 -2.5647
 7859TIP3   OH245067   2.680   1.586   0.888  0.2846  0.7345 -0.1030
 7859TIP3    H145068   2.637   1.630   0.961 -1.0364  0.8096 -0.8769
 7859TIP3    H245069   2.773   1.594   0.905  0.0197  1.9657  0.8492
 7860TIP3   OH245070   1.824   2.239  11.742 -0.0390 -0.4686  0.0025
 7860TIP3    H145071   1.914   2.245  11.774  0.4579 -0.4022 -1.3255
 7860TIP3    H245072   1.804   2.145  11.741 -1.1001 -0.3939  3.0997
 7861TIP3   OH245073   2.417   5.631   1.056 -0.9446 -0.2671 -0.5155
 7861TIP3    H145074   2.481   5.592   1.115  0.9678  0.7590 -1.8065
 7861TIP3    H245075   2.351   5.563   1.045  1.3594 -2.5486 -1.3585
 7862TIP3   OH245076   3.801   5.658   4.461  0.0941 -0.2721 -0.1578
 7862TIP3    H145077   3.734   5.698   4.405  0.0122 -1.3702 -0.8776
 7862TIP3    H245078   3.879   5.713   4.448 -0.4796  0.6322  0.1824
 7863TIP3   OH245079   6.640   4.462   5.826 -0.0676 -0.3382  0.1879
 7863TIP3    H145080   6.624   4.553   5.850  1.6390 -0.1919  0.9025
 7863TIP3    H245081   6.596   4.451   5.742 -1.2754  0.8019  0.6341
 7864TIP3   OH245082   6.661   1.881   6.600  0.2404  0.5411  0.8528
 7864TIP3    H145083   6.625   1.808   6.649 -0.2340  1.2221  1.5345
 7864TIP3    H245084   6.746   1.898   6.641  0.2595  0.5008  0.8293
 7865TIP3   OH245085   1.343   4.806  16.101  0.7149 -0.1410  0.2719
 7865TIP3    H145086   1.255   4.845  16.105  0.2125 -1.3308  1.8924
 7865TIP3    H245087   1.359   4.795  16.007 -0.8219  0.2273 -0.0757
 7866TIP3   OH245088   0.842   0.962   5.845  0.7685  0.0005  0.8204
 7866TIP3    H145089   0.798   0.886   5.883 -0.6594  0.3219 -0.1020
 7866TIP3    H245090   0.935   0.949   5.865  0.6064 -2.1430  0.4116
 7867TIP3   OH245091   3.331   2.237   4.107 -0.3367  0.5542  0.4401
 7867TIP3    H145092   3.350   2.167   4.046  1.2024  0.0928  1.3770
 7867TIP3    H245093   3.359   2.317   4.062  2.1199  0.0815  1.0117
 7868TIP3   OH245094   1.691   1.228  13.946  0.2934  0.6303  0.5412
 7868TIP3    H145095   1.640   1.217  13.865  3.4310 -0.4938 -1.4667
 7868TIP3    H245096   1.694   1.141  13.984 -0.5748  1.0184  1.5411
 7869TIP3   OH245097   2.901   2.646   3.384  0.4194  0.1542 -0.0232
 7869TIP3    H145098   2.989   2.675   3.357  0.6602 -0.1333  0.4398
 7869TIP3    H245099   2.842   2.711   3.346  0.8987  0.8880  0.4456
 7870TIP3   OH245100   4.089   1.201   2.829  0.6654 -0.4578 -0.2713
 7870TIP3    H145101   4.101   1.108   2.808 -0.3955 -0.3471 -1.5082
 7870TIP3    H245102   4.159   1.221   2.891  1.6462 -1.7781 -0.9029
 7871TIP3   OH245103   3.785   1.086  12.376 -0.1494  0.1141 -0.7079
 7871TIP3    H145104   3.858   1.050  12.327  0.6297  0.3691  0.2334
 7871TIP3    H245105   3.707   1.058  12.327  0.5798  0.1961 -1.9502
 7872TIP3   OH245106   2.750   6.464   0.508 -0.2463 -0.0380 -0.2138
 7872TIP3    H145107   2.699   6.545   0.511 -0.2309 -0.0407  0.0973
 7872TIP3    H245108   2.709   6.412   0.439  0.4909  0.7362 -1.2649
 7873TIP3   OH245109   1.980   1.360  11.694 -0.1756  0.2054  0.0047
 7873TIP3    H145110   2.052   1.383  11.635 -1.1944  0.2720 -1.2769
 7873TIP3    H245111   1.981   1.264  11.698 -0.0436  0.2046 -0.0636
 7874TIP3   OH245112   5.420   3.920  15.687  0.6098 -0.5931  0.1581
 7874TIP3    H145113   5.328   3.945  15.683  1.0864  1.4108  0.7123
 7874TIP3    H245114   5.429   3.872  15.770  0.0883 -0.7978  0.1007
 7875TIP3   OH245115   3.759   0.806   0.424 -0.4559 -0.1783  0.0517
 7875TIP3    H145116   3.820   0.875   0.450 -0.0767 -0.4803 -0.0325
 7875TIP3    H245117   3.790   0.777   0.339 -2.3317  1.5522 -1.3067
 7876TIP3   OH245118   2.854   5.818   5.642  0.4146 -0.1679  0.0758
 7876TIP3    H145119   2.917   5.750   5.666  0.6438  0.4092  1.1714
 7876TIP3    H245120   2.775   5.797   5.692  0.5353  0.4365  0.5321
 7877TIP3   OH245121   2.343   3.841  11.808  0.4184 -0.3938 -0.1644
 7877TIP3    H145122   2.406   3.877  11.746  2.1776  0.0706  1.7526
 7877TIP3    H245123   2.310   3.918  11.855 -1.7844 -0.6104 -1.2274
 7878TIP3   OH245124   6.668   5.038   3.600 -0.2357  0.0119 -0.1136
 7878TIP3    H145125   6.754   5.080   3.611  1.1686 -2.5777 -0.5184
 7878TIP3    H245126   6.632   5.078   3.520  0.1911  1.6897  0.4845
 7879TIP3   OH245127   3.085   2.620  15.094 -0.7411  0.0776 -0.3544
 7879TIP3    H145128   3.179   2.605  15.102 -0.5855 -0.2824 -2.3758
 7879TIP3    H245129   3.076   2.674  15.016 -2.2966 -0.9799 -0.9454
 7880TIP3   OH245130   0.434   5.098  16.446  0.0071 -0.3410 -0.5267
 7880TIP3    H145131   0.352   5.109  16.398 -0.0373 -2.2441 -0.9519
 7880TIP3    H245132   0.417   5.025  16.507  1.3973 -0.8345 -0.6980
 7881TIP3   OH245133   4.457   1.394   2.351  0.5453  0.8345  0.0709
 7881TIP3    H145134   4.533   1.358   2.304 -0.2616 -0.6091 -0.1902
 7881TIP3    H245135   4.415   1.318   2.390  0.2417  1.8316  1.7627
 7882TIP3   OH245136   1.109   0.056  11.327  0.0056 -0.1589  0.2008
 7882TIP3    H145137   1.160   0.050  11.246 -3.1069  0.3777 -1.9965
 7882TIP3    H245138   1.038  -0.007  11.314 -3.0675  2.9950  0.4427
 7883TIP3   OH245139   3.363   4.613  16.559  0.0227 -0.3648  0.2648
 7883TIP3    H145140   3.326   4.641  16.475  0.1407  0.2495  0.4127
 7883TIP3    H245141   3.435   4.554  16.534 -0.1109 -0.3931 -0.0614
 7884TIP3   OH245142   1.024   2.878  16.890  0.5940  0.3568  0.2160
 7884TIP3    H145143   0.994   2.852  16.802 -1.0872 -2.1866  1.4265
 7884TIP3    H245144   1.048   2.796  16.932 -0.0755  1.3162  2.6403
 7885TIP3   OH245145   3.480   3.270   1.642  0.3620 -0.2963  0.5884
 7885TIP3    H145146   3.414   3.248   1.709  0.2632  1.1267  0.9959
 7885TIP3    H245147   3.505   3.360   1.663  0.4749  0.1062 -1.1927
 7886TIP3   OH245148   0.792   0.809   2.668 -0.6154  0.4165  0.3831
 7886TIP3    H145149   0.800   0.736   2.729 -0.5784  0.8679  0.9370
 7886TIP3    H245150   0.735   0.872   2.714 -0.5140  0.8018 -0.0117
 7887TIP3   OH245151   2.129   1.734  15.944 -0.2681 -0.1874  0.5014
 7887TIP3    H145152   2.073   1.693  15.878 -0.3356  1.7771 -0.7288
 7887TIP3    H245153   2.101   1.694  16.027 -3.4965  0.6594 -0.0289
 7888TIP3   OH245154   6.324   1.399   4.569 -0.0379  0.5665  0.2181
 7888TIP3    H145155   6.277   1.448   4.637  0.3824  0.1735  0.8071
 7888TIP3    H245156   6.277   1.418   4.488  0.4154  2.3662  0.3431
 7889TIP3   OH245157   5.951   0.885   5.640  0.1322 -0.4643 -0.0705
 7889TIP3    H145158   5.943   0.852   5.550 -1.0636  0.1651 -0.2108
 7889TIP3    H245159   5.918   0.974   5.636 -0.1325 -0.4991  1.0354
 7890TIP3   OH245160   1.307   5.473   1.631 -0.5216 -0.4865  0.3632
 7890TIP3    H145161   1.323   5.399   1.691 -0.4684 -0.8862 -0.1335
 7890TIP3    H245162   1.222   5.508   1.659 -0.2918 -0.3889  0.9527
 7891TIP3   OH245163   4.635   0.721   1.807 -0.0559 -0.0327 -0.2451
 7891TIP3    H145164   4.643   0.797   1.865 -0.5826 -0.6646  0.6785
 7891TIP3    H245165   4.725   0.695   1.789  0.1189 -0.3568  1.0149
 7892TIP3   OH245166   5.555   1.706   0.393 -0.2357 -0.2424 -0.4766
 7892TIP3    H145167   5.579   1.782   0.447  1.7723  0.1103 -1.7645
 7892TIP3    H245168   5.589   1.631   0.441 -0.3940 -0.1400 -0.1998
 7893TIP3   OH245169   2.461   5.921  16.122  0.2659  0.1430 -0.5943
 7893TIP3    H145170   2.541   5.882  16.087  1.0523 -0.1683  1.4236
 7893TIP3    H245171   2.474   5.923  16.217 -3.3033 -2.6606  0.1896
 7894TIP3   OH245172   6.248   5.357   2.955 -0.8162  0.5479  0.0265
 7894TIP3    H145173   6.321   5.305   2.922  0.4646  2.8844 -1.0317
 7894TIP3    H245174   6.180   5.292   2.975  0.4032 -1.4634 -1.8777
 7895TIP3   OH245175   4.498   0.323  13.491  0.0066  0.7593 -0.0839
 7895TIP3    H145176   4.430   0.302  13.555  0.6514  0.2702  0.4658
 7895TIP3    H245177   4.453   0.368  13.420 -0.7343  1.2488  0.6905
 7896TIP3   OH245178   0.331   5.261   3.724 -0.0730 -0.1416 -0.7421
 7896TIP3    H145179   0.422   5.279   3.747 -0.6007  1.2385  0.4701
 7896TIP3    H245180   0.281   5.287   3.802 -1.5749  0.0611 -1.7256
 7897TIP3   OH245181   3.397   0.024   1.072  0.1607 -0.2111  0.7212
 7897TIP3    H145182   3.446  -0.054   1.046 -1.6829 -1.1098 -0.2629
 7897TIP3    H245183   3.308  -0.007   1.088 -0.0464  1.2736  2.9566
 7898TIP3   OH245184   0.536   3.031   4.233  0.3586  0.6073  0.2359
 7898TIP3    H145185   0.627   3.042   4.257  0.7937 -1.2396 -0.4321
 7898TIP3    H245186   0.488   3.087   4.294  1.8306  0.6159  1.4337
 7899TIP3   OH245187   1.565   4.300   2.638  0.3623  0.1067  0.0368
 7899TIP3    H145188   1.481   4.286   2.680  0.4247 -1.3173 -0.2503
 7899TIP3    H245189   1.545   4.348   2.558 -0.1141  0.2453  0.2387
 7900TIP3   OH245190   3.213   0.731   3.368 -1.0787 -0.4498  0.5164
 7900TIP3    H145191   3.121   0.706   3.361 -0.9575 -0.7995  0.0980
 7900TIP3    H245192   3.225   0.798   3.301 -1.1374 -0.0694  0.8842
 7901TIP3   OH245193   3.582   4.277  12.993 -0.0693  0.0233  0.1027
 7901TIP3    H145194   3.587   4.371  12.974 -1.2869  0.0316 -0.2481
 7901TIP3    H245195   3.510   4.246  12.939 -1.1777 -0.6846  1.9384
 7902TIP3   OH245196   4.553   6.277   5.520  0.2047  0.1643 -0.0056
 7902TIP3    H145197   4.603   6.196   5.524 -1.3761 -0.8280  0.9939
 7902TIP3    H245198   4.576   6.315   5.436  0.8624 -1.4093 -0.5759
 7903TIP3   OH245199   4.656   3.622  11.181  0.1269 -0.1502 -0.4625
 7903TIP3    H145200   4.673   3.679  11.257 -0.3594 -0.5351 -0.0525
 7903TIP3    H245201   4.597   3.673  11.126 -2.2305 -1.0964  1.0315
 7904TIP3   OH245202   3.651   3.318  17.208 -0.1565  0.1533  0.3353
 7904TIP3    H145203   3.726   3.342  17.154 -0.0983 -1.6560 -0.4745
 7904TIP3    H245204   3.623   3.400  17.249  0.3367  1.4562 -1.7694
 7905TIP3   OH245205   5.307   6.145   5.171  0.0993 -0.9743 -0.4963
 7905TIP3    H145206   5.292   6.234   5.138  1.5491 -0.7184 -0.5477
 7905TIP3    H245207   5.224   6.100   5.158 -1.2348  0.8504  1.0683
 7906TIP3   OH245208   5.902   0.421  13.144 -0.1116 -0.1320  0.0549
 7906TIP3    H145209   5.972   0.417  13.079  0.1341 -0.0911  0.3138
 7906TIP3    H245210   5.933   0.486  13.208  0.4139 -1.3746  1.1057
 7907TIP3   OH245211   0.735   6.248  14.532  0.5410 -0.6027 -0.4484
 7907TIP3    H145212   0.821   6.278  14.503  0.2906  0.6918  0.0474
 7907TIP3    H245213   0.730   6.157  14.504  2.4732 -1.0194  0.3634
 7908TIP3   OH245214   5.817   2.852   5.189  0.0754  0.1141  0.0560
 7908TIP3    H145215   5.773   2.795   5.127  1.8348  1.5274 -2.7267
 7908TIP3    H245216   5.871   2.794   5.242 -1.1283 -1.1013 -0.0126
 7909TIP3   OH245217   2.427   3.607  12.668  0.2347  0.1116 -0.4078
 7909TIP3    H145218   2.333   3.596  12.658  0.0563  0.8217  0.4211
 7909TIP3    H245219   2.445   3.695  12.634 -0.0748  1.7266  3.1531
 7910TIP3   OH245220   0.803   2.676  14.430 -0.8278 -0.2562  0.1750
 7910TIP3    H145221   0.890   2.645  14.454 -0.0163 -0.7776 -3.0417
 7910TIP3    H245222   0.773   2.724  14.507  2.7648  0.9280  1.0349
 7911TIP3   OH245223   6.423   1.166   0.993  0.2895 -0.4514  0.0854
 7911TIP3    H145224   6.500   1.121   0.956  0.2491 -1.3876  1.1171
 7911TIP3    H245225   6.360   1.167   0.921  1.8108  1.8665 -1.3887
 7912TIP3   OH245226   5.802   2.482   1.320  0.3037 -0.8576  0.1624
 7912TIP3    H145227   5.777   2.534   1.396 -0.1385 -1.7381  0.6338
 7912TIP3    H245228   5.725   2.484   1.263  0.7834  0.1673 -0.4996
 7913TIP3   OH245229   3.299   4.929   6.008 -0.2149 -0.2108  0.5841
 7913TIP3    H145230   3.300   4.870   5.932 -1.9889 -0.5325  0.7726
 7913TIP3    H245231   3.222   4.902   6.058  0.7782  0.1657  2.3891
 7914TIP3   OH245232   6.357   4.670   2.351 -0.3883 -0.3625 -0.5495
 7914TIP3    H145233   6.418   4.632   2.288  1.0330  0.6539  0.1703
 7914TIP3    H245234   6.382   4.761   2.357 -0.4005 -0.4545  1.5891
 7915TIP3   OH245235   3.352   1.693  15.642  0.0363  0.6598 -0.1302
 7915TIP3    H145236   3.296   1.755  15.689  0.6455  2.4098 -1.5782
 7915TIP3    H245237   3.293   1.622  15.617 -0.7091  0.6485  1.5089
 7916TIP3   OH245238   3.371   3.260  13.777 -0.0766 -0.3822  0.4842
 7916TIP3    H145239   3.465   3.251  13.761 -0.3893 -0.7730 -1.4140
 7916TIP3    H245240   3.354   3.354  13.773  0.1366 -0.3581  0.1268
 7917TIP3   OH245241   6.386   4.001  11.692  0.5540  0.5690  0.0922
 7917TIP3    H145242   6.368   3.959  11.608  0.7784  0.4821  0.0876
 7917TIP3    H245243   6.475   4.037  11.683  1.0296 -0.4226  0.6789
 7918TIP3   OH245244   6.455   6.077  13.300  0.0715 -0.3171 -0.7330
 7918TIP3    H145245   6.423   6.081  13.209  0.0656 -0.1628 -0.7248
 7918TIP3    H245246   6.462   6.169  13.326  0.6448 -0.3421 -0.7760
 7919TIP3   OH245247   5.457   3.228  11.579 -0.6116  0.4532 -0.5156
 7919TIP3    H145248   5.417   3.228  11.666  2.4481  2.9733  1.0820
 7919TIP3    H245249   5.396   3.279  11.525 -2.7654 -1.4973 -0.1240
 7920TIP3   OH245250   2.268   3.315  12.067 -0.8230  0.7425  0.3357
 7920TIP3    H145251   2.300   3.276  11.985  0.3687  1.1120  0.6188
 7920TIP3    H245252   2.183   3.273  12.081  0.3960 -1.8142  0.6438
 7921TIP3   OH245253   3.605   1.054   4.620 -0.1822  0.4030  0.2382
 7921TIP3    H145254   3.523   1.060   4.669  0.5458  0.5624  1.4608
 7921TIP3    H245255   3.650   1.136   4.638  0.1551  0.4230 -0.6347
 7922TIP3   OH245256   2.572   0.464   1.456 -0.5983  0.0116 -0.2132
 7922TIP3    H145257   2.577   0.553   1.492 -0.9898  0.0601 -0.2684
 7922TIP3    H245258   2.621   0.469   1.374 -0.1194  0.0248  0.0685
 7923TIP3   OH245259   5.353   4.780  16.554 -0.6295 -0.1936  0.2339
 7923TIP3    H145260   5.441   4.750  16.532 -1.2506 -1.6012 -0.5177
 7923TIP3    H245261   5.339   4.749  16.643  0.0135  1.0013  0.7730
 7924TIP3   OH245262   1.142   3.816   2.510  0.5688 -0.2072  0.0019
 7924TIP3    H145263   1.092   3.734   2.514  2.2526 -1.3305 -0.9781
 7924TIP3    H245264   1.075   3.885   2.514 -0.8061 -1.5475  2.4397
 7925TIP3   OH245265   4.559   2.291  14.093 -0.0907 -0.0547 -0.6125
 7925TIP3    H145266   4.530   2.328  14.176 -1.2707  0.3353 -1.1832
 7925TIP3    H245267   4.645   2.332  14.078  0.2394 -0.3033  0.5103
 7926TIP3   OH245268   1.606   5.911   0.031 -0.5293 -0.5240 -0.5969
 7926TIP3    H145269   1.589   5.980  -0.033 -0.3409 -1.2875 -1.4828
 7926TIP3    H245270   1.697   5.884   0.014  0.1325  0.4590  1.1548
 7927TIP3   OH245271   4.613   3.517   0.141 -0.5253  0.1668 -0.3930
 7927TIP3    H145272   4.691   3.545   0.094 -1.0397  1.1835 -0.6607
 7927TIP3    H245273   4.540   3.551   0.089 -1.1267  0.4815  0.6202
 7928TIP3   OH245274   2.090   2.152   5.296 -0.2107  0.0600  0.1096
 7928TIP3    H145275   2.182   2.178   5.287 -0.2512  0.8195  1.6073
 7928TIP3    H245276   2.054   2.163   5.208  0.6168  1.8642 -0.0540
 7929TIP3   OH245277   5.323   3.099   6.540  0.1164 -0.3878 -0.2565
 7929TIP3    H145278   5.314   3.157   6.616  0.8081 -1.6129  0.8027
 7929TIP3    H245279   5.248   3.040   6.546  1.4329 -2.0355  0.9119
 7930TIP3   OH245280   5.198   2.965  12.728 -0.4499 -0.3071 -0.0706
 7930TIP3    H145281   5.136   2.987  12.658 -0.0271 -0.1125 -0.3869
 7930TIP3    H245282   5.149   2.979  12.809 -0.9302 -0.4910 -0.3246
 7931TIP3   OH245283   1.502   5.060   0.729 -0.1647 -0.7745 -0.0251
 7931TIP3    H145284   1.538   5.104   0.806 -0.0849 -0.6118 -0.1550
 7931TIP3    H245285   1.532   4.969   0.736 -1.8373 -1.2888  1.2292
 7932TIP3   OH245286   2.305   1.331   2.780 -0.2471  1.0076  0.2507
 7932TIP3    H145287   2.365   1.302   2.712 -0.1380 -0.7935  1.0508
 7932TIP3    H245288   2.219   1.335   2.737 -0.0061  0.8911 -0.2388
 7933TIP3   OH245289   5.528   3.509  16.575 -0.3340  0.2827  0.0536
 7933TIP3    H145290   5.540   3.594  16.616 -0.7674  1.1233 -1.5018
 7933TIP3    H245291   5.600   3.455  16.610 -0.2514  1.1757  1.2919
 7934TIP3   OH245292   3.298   0.140  10.968 -0.3701 -0.3195  0.2067
 7934TIP3    H145293   3.239   0.065  10.972  0.6327 -1.2615 -1.5901
 7934TIP3    H245294   3.311   0.156  10.874  2.1074 -0.0894  0.5170
 7935TIP3   OH245295   5.944   5.304  11.646 -0.5878 -0.5780  0.5028
 7935TIP3    H145296   5.943   5.227  11.703 -0.6532  0.1047  1.4380
 7935TIP3    H245297   5.869   5.292  11.588 -1.6014 -0.4109  1.7453
 7936TIP3   OH245298   3.624   5.020  16.321  0.1253 -0.0313 -0.4655
 7936TIP3    H145299   3.654   5.104  16.357  1.7447 -0.5400 -0.5305
 7936TIP3    H245300   3.701   4.963  16.327 -0.8565 -1.4288 -0.7023
 7937TIP3   OH245301   1.505   1.329   3.402 -0.2661  0.0597  0.1612
 7937TIP3    H145302   1.478   1.284   3.482 -2.8513  0.2003 -0.5518
 7937TIP3    H245303   1.538   1.258   3.346 -1.7850 -0.6054  0.0532
 7938TIP3   OH245304   4.259   5.309   2.107 -0.4030  0.0688 -0.0522
 7938TIP3    H145305   4.324   5.357   2.159 -0.1134  0.4878 -0.7916
 7938TIP3    H245306   4.175   5.341   2.139 -0.2431 -0.0946  0.5514
 7939TIP3   OH245307   4.236   5.267   3.237 -0.3808  0.1150 -0.7269
 7939TIP3    H145308   4.142   5.266   3.256 -0.1915  0.1588  0.2588
 7939TIP3    H245309   4.277   5.231   3.316  0.6302  2.8876  0.1453
 7940TIP3   OH245310   3.919   5.236   1.962 -0.7740 -0.1067  0.1323
 7940TIP3    H145311   3.867   5.167   1.921 -0.2908 -0.0314 -0.6300
 7940TIP3    H245312   3.946   5.293   1.890  0.9147 -0.5046  0.3911
 7941TIP3   OH245313   4.422   3.319  13.806 -0.5073 -0.1920 -0.0165
 7941TIP3    H145314   4.435   3.230  13.840 -0.4831  0.1006  0.7730
 7941TIP3    H245315   4.506   3.342  13.766 -1.0620 -1.1803 -1.8511
 7942TIP3   OH245316   3.963   5.245   3.259 -0.0815  0.6111  0.1778
 7942TIP3    H145317   3.892   5.288   3.211  1.2787 -0.0529 -2.5982
 7942TIP3    H245318   3.918   5.183   3.317 -1.7979 -0.4198 -2.1128
 7943TIP3   OH245319   4.986   0.779   4.940 -0.4600  0.4152 -0.6165
 7943TIP3    H145320   5.016   0.759   4.852  0.4692 -0.5293 -0.1152
 7943TIP3    H245321   4.923   0.851   4.929 -0.2441  0.4139 -2.0125
 7944TIP3   OH245322   3.165   1.655   5.726 -0.0754  0.1888 -0.0325
 7944TIP3    H145323   3.073   1.672   5.703 -0.2371 -0.6052  0.0176
 7944TIP3    H245324   3.195   1.738   5.764 -0.6475  0.5912 -0.4346
 7945TIP3   OH245325   5.625   3.982   6.161 -0.7861  0.7468 -0.2557
 7945TIP3    H145326   5.591   4.069   6.141  0.7211  1.2743 -0.6938
 7945TIP3    H245327   5.629   3.979   6.257 -1.3383  0.9657 -0.2260
 7946TIP3   OH245328   3.984   1.008  10.578 -0.5695 -0.1527  0.0503
 7946TIP3    H145329   3.944   0.969  10.655 -0.5346  1.0890  0.7299
 7946TIP3    H245330   4.041   1.077  10.613  0.0166 -0.0524 -1.0429
 7947TIP3   OH245331   3.718   1.641  12.224  0.1304 -0.6793  0.3712
 7947TIP3    H145332   3.721   1.659  12.130  0.7916  1.4527  0.7429
 7947TIP3    H245333   3.745   1.550  12.232 -0.4578 -1.0615 -1.5253
 7948TIP3   OH245334   5.298   3.228  11.215  0.2676  0.1915 -0.1676
 7948TIP3    H145335   5.371   3.272  11.170 -0.2017  0.3339 -0.8117
 7948TIP3    H245336   5.267   3.293  11.278  1.6032 -0.3873  1.1402
 7949TIP3   OH245337   6.599   4.768   5.338  0.1635 -0.0911 -0.2499
 7949TIP3    H145338   6.659   4.696   5.321  1.4257  0.6649  0.8469
 7949TIP3    H245339   6.514   4.725   5.352  0.5250 -1.2095 -1.2414
 7950TIP3   OH245340   6.178   0.246   2.132 -0.1477  0.1968 -0.0299
 7950TIP3    H145341   6.271   0.268   2.127 -0.1106  0.5278  1.6872
 7950TIP3    H245342   6.147   0.253   2.041  1.2951  0.9498 -0.4922
 7951TIP3   OH245343   1.201   4.107  15.325 -0.3045 -0.3233  0.0939
 7951TIP3    H145344   1.283   4.123  15.371 -1.3768  1.0219  1.6759
 7951TIP3    H245345   1.163   4.032  15.370  0.5447 -1.6933 -1.3951
 7952TIP3   OH245346   0.443   1.266  13.052  0.6770 -0.2962 -0.3271
 7952TIP3    H145347   0.396   1.349  13.044  0.1590 -0.7466 -2.5531
 7952TIP3    H245348   0.513   1.284  13.115  1.8593  2.4663 -2.2137
 7953TIP3   OH245349   1.542   0.831   1.892 -0.2052 -0.5295  0.5182
 7953TIP3    H145350   1.609   0.817   1.825  0.5887  3.1271  0.3413
 7953TIP3    H245351   1.459   0.832   1.844 -0.2847 -3.1706  0.4671
 7954TIP3   OH245352   1.748   3.954   2.342 -0.5181  0.4295  0.9401
 7954TIP3    H145353   1.696   3.917   2.413  0.0962 -2.2807  0.0980
 7954TIP3    H245354   1.699   3.933   2.263  0.8855 -0.4872  0.2761
 7955TIP3   OH245355   0.868   4.238   4.798  0.2119  0.3556 -0.2749
 7955TIP3    H145356   0.939   4.228   4.862  0.8553  1.9039 -0.7154
 7955TIP3    H245357   0.788   4.226   4.850  0.7649 -0.8210  0.3397
 7956TIP3   OH245358   1.610   0.828  10.881 -0.1062 -0.4202  0.2610
 7956TIP3    H145359   1.533   0.850  10.830 -0.3152  0.9623  1.1168
 7956TIP3    H245360   1.576   0.811  10.969  0.6323  1.0753  0.8588
 7957TIP3   OH245361   5.033   2.567  12.080  0.0383 -0.1851 -0.3260
 7957TIP3    H145362   5.004   2.612  12.001 -0.3888 -0.1756 -0.1664
 7957TIP3    H245363   5.000   2.478  12.071  0.8718 -0.4702 -0.6323
 7958TIP3   OH245364   6.184   0.048   4.623 -0.2358 -0.6051 -0.0184
 7958TIP3    H145365   6.277   0.050   4.600 -0.7425  1.5235 -2.1922
 7958TIP3    H245366   6.140   0.025   4.542 -1.7325  0.2857  0.5073
 7959TIP3   OH245367   0.094   1.167   0.302 -0.2568  0.3225  0.1466
 7959TIP3    H145368   0.063   1.225   0.372  1.4085  1.3609  0.0667
 7959TIP3    H245369   0.031   1.095   0.301 -1.0974  0.9913  1.7769
 7960TIP3   OH245370   1.569   6.628  14.720 -0.2242  0.1192 -0.3055
 7960TIP3    H145371   1.611   6.603  14.638 -2.2567 -3.6565 -0.4228
 7960TIP3    H245372   1.476   6.615  14.705 -1.1269  3.3781  1.4477
 7961TIP3   OH245373   6.331   5.005   6.241 -0.0006 -0.0578  0.0258
 7961TIP3    H145374   6.373   5.006   6.327  1.2473 -0.8573 -0.5468
 7961TIP3    H245375   6.295   5.093   6.230  2.7868  1.1603 -0.0444
 7962TIP3   OH245376   1.622   2.698  14.102  0.5812 -0.2503 -0.1512
 7962TIP3    H145377   1.652   2.631  14.041 -1.3539  0.0085 -1.4564
 7962TIP3    H245378   1.699   2.716  14.156  2.1462 -1.0643 -1.9678
 7963TIP3   OH245379   3.281   2.945  13.031 -0.2804  0.2664 -0.2756
 7963TIP3    H145380   3.221   3.011  13.066  0.3737  1.5920 -1.5291
 7963TIP3    H245381   3.223   2.875  12.999 -1.2015  1.4535 -1.3324
 7964TIP3   OH245382   4.799   2.214   4.097  0.5020  0.1540  0.2678
 7964TIP3    H145383   4.850   2.264   4.033  1.3598 -0.3105  0.5722
 7964TIP3    H245384   4.785   2.275   4.169 -2.4286  1.4624 -1.2123
 7965TIP3   OH245385   0.169   0.569  15.012 -0.1117 -0.3094  0.4929
 7965TIP3    H145386   0.139   0.652  14.974  1.2874 -0.4747 -1.1226
 7965TIP3    H245387   0.093   0.512  15.007 -0.1362 -0.1925 -1.8625
 7966TIP3   OH245388   0.482   5.571  13.517 -0.2224 -0.5963  0.2111
 7966TIP3    H145389   0.393   5.605  13.526  1.0337  2.9614  0.9268
 7966TIP3    H245390   0.491   5.548  13.425 -1.8146 -0.8366  0.1008
 7967TIP3   OH245391   1.116   5.423   0.017 -0.2775 -0.4382  0.2507
 7967TIP3    H145392   1.033   5.454  -0.018 -0.6908 -0.5729  1.0795
 7967TIP3    H245393   1.127   5.472   0.099  1.2584  0.7708 -0.6241
 7968TIP3   OH245394   1.419   0.112  12.052 -0.4603 -0.4320 -0.3794
 7968TIP3    H145395   1.466   0.182  12.008 -2.9536  2.6206  1.3946
 7968TIP3    H245396   1.458   0.107  12.139 -2.9192  1.9364  1.0092
 7969TIP3   OH245397   2.045   2.228  12.273  0.4775  0.1536 -0.0130
 7969TIP3    H145398   2.023   2.320  12.263 -0.8242 -0.1360 -0.0216
 7969TIP3    H245399   1.965   2.188  12.308  0.9830 -0.9854 -0.1135
 7970TIP3   OH245400   2.426   6.002  14.494  0.4781 -0.0500 -0.5686
 7970TIP3    H145401   2.337   6.031  14.514  0.7269  0.3667 -0.0372
 7970TIP3    H245402   2.477   6.026  14.572  0.4543 -3.1171  0.5272
 7971TIP3   OH245403   2.630   5.392  15.064 -0.3736 -0.3415 -0.1844
 7971TIP3    H145404   2.641   5.339  14.986  0.6493 -0.1699 -0.1693
 7971TIP3    H245405   2.626   5.482  15.032 -0.1361 -0.2849 -0.0590
 7972TIP3   OH245406   4.643   3.842   0.137  0.6048 -0.2483 -0.2399
 7972TIP3    H145407   4.592   3.776   0.091  0.1538 -0.5875  0.7199
 7972TIP3    H245408   4.598   3.924   0.118 -0.0734 -0.4912  0.2509
 7973TIP3   OH245409   6.480   4.530   4.950 -0.5857 -0.1378  0.3076
 7973TIP3    H145410   6.433   4.514   5.032  0.2181 -0.1782  0.7698
 7973TIP3    H245411   6.476   4.625   4.938 -2.2523 -0.2833 -0.5598
 7974TIP3   OH245412   3.137   4.200  11.399  0.6618 -0.0774 -0.0517
 7974TIP3    H145413   3.170   4.111  11.417 -0.2522 -0.0907  1.8699
 7974TIP3    H245414   3.056   4.205  11.450  0.0811  1.4712 -1.0916
 7975TIP3   OH245415   0.272   6.255   3.729 -0.1794  0.1422 -0.3241
 7975TIP3    H145416   0.272   6.166   3.764  0.0253 -0.2070 -1.1834
 7975TIP3    H245417   0.323   6.306   3.792 -1.0120 -0.1651  0.6131
 7976TIP3   OH245418   1.095   5.305  12.088 -0.5225  0.3653 -0.2018
 7976TIP3    H145419   1.144   5.365  12.031  1.6895  0.5180  1.7009
 7976TIP3    H245420   1.098   5.347  12.174 -1.2588 -1.2234  0.6233
 7977TIP3   OH245421   0.869   5.269   3.346  0.7967  0.1400 -0.1724
 7977TIP3    H145422   0.881   5.175   3.330  1.4947 -0.1163  1.5931
 7977TIP3    H245423   0.839   5.304   3.263 -3.1140 -2.2708 -0.0184
 7978TIP3   OH245424   4.468   6.186  15.348 -0.9148 -0.1300  0.2516
 7978TIP3    H145425   4.408   6.148  15.284 -2.8367 -0.6833  2.2629
 7978TIP3    H245426   4.454   6.281  15.340  1.5398  0.1435 -2.5388
 7979TIP3   OH245427   2.111   6.537  14.357 -0.3294  0.4132  0.0982
 7979TIP3    H145428   2.073   6.464  14.406  0.0305 -0.6257 -1.1055
 7979TIP3    H245429   2.074   6.529  14.269  0.6408  0.9547 -0.3758
 7980TIP3   OH245430   5.785   6.599  16.996 -0.9028  0.3441 -0.2610
 7980TIP3    H145431   5.813   6.690  17.000  0.9269 -0.2289  2.2683
 7980TIP3    H245432   5.747   6.589  16.908 -0.6059  3.3450 -0.8134
 7981TIP3   OH245433   6.716   6.151   5.299  0.6172 -0.5595  0.0536
 7981TIP3    H145434   6.735   6.239   5.331  0.4449  0.5201 -2.5619
 7981TIP3    H245435   6.680   6.164   5.211  1.9392 -3.3040 -1.0368
 7982TIP3   OH245436   0.937   5.802   4.846  0.0091 -0.2431 -0.0685
 7982TIP3    H145437   0.865   5.775   4.789  0.6451  0.2605 -1.1645
 7982TIP3    H245438   0.895   5.832   4.926 -0.9744 -0.3023 -0.5507
 7983TIP3   OH245439   1.079   5.195   1.349  0.0326  0.1653 -0.3514
 7983TIP3    H145440   1.075   5.259   1.278  0.3018  1.0835  0.4354
 7983TIP3    H245441   1.005   5.217   1.405  0.5117  0.2178  0.2759
 7984TIP3   OH245442   4.446   6.245   3.625 -0.6708 -0.0906  0.2400
 7984TIP3    H145443   4.418   6.279   3.541 -2.3463 -2.2392 -0.1823
 7984TIP3    H245444   4.499   6.168   3.604  2.4989  1.6816  1.1458
 7985TIP3   OH245445   0.796   6.696  15.415  0.1923  0.5130  0.9639
 7985TIP3    H145446   0.744   6.673  15.339  0.4327 -0.7561  1.1555
 7985TIP3    H245447   0.775   6.787  15.432 -2.1178  0.0145  1.1502
 7986TIP3   OH245448   1.409   6.220   0.061  0.1973 -0.1272  0.0130
 7986TIP3    H145449   1.422   6.305   0.018  0.1701 -0.3788 -0.4964
 7986TIP3    H245450   1.495   6.177   0.056  0.3459  0.0777  0.7314
 7987TIP3   OH245451   3.449   1.748  16.721 -0.2695  0.1142  0.4477
 7987TIP3    H145452   3.503   1.673  16.747 -0.8147 -0.9161 -1.2499
 7987TIP3    H245453   3.501   1.792  16.654 -0.8927 -0.0501 -0.1579
 7988TIP3   OH245454   3.851   1.144  12.640 -0.0377  0.0087 -0.3958
 7988TIP3    H145455   3.926   1.202  12.644  0.0993 -0.1824 -0.0975
 7988TIP3    H245456   3.832   1.133  12.547  1.9852 -2.0913 -0.6489
 7989TIP3   OH245457   3.651   0.667   3.338  0.0383  0.3384  0.0424
 7989TIP3    H145458   3.555   0.666   3.346 -0.0275  2.1567 -0.0659
 7989TIP3    H245459   3.670   0.606   3.267 -1.0444  0.0085  0.0138
 7990TIP3   OH245460   5.479   1.821  16.068  0.1405  0.0500  0.0753
 7990TIP3    H145461   5.400   1.860  16.028  0.3321 -0.9372 -1.3435
 7990TIP3    H245462   5.483   1.733  16.031  0.7827 -0.6551  1.7431
 7991TIP3   OH245463   4.803   4.024   3.474 -0.4760  0.3098  0.4368
 7991TIP3    H145464   4.766   3.972   3.545  0.0202 -1.0872 -0.2893
 7991TIP3    H245465   4.782   3.975   3.394  1.3068  0.4176 -0.1435
 7992TIP3   OH245466   6.163   6.811   0.651  0.6555 -0.1381  0.1100
 7992TIP3    H145467   6.175   6.885   0.591  0.7959 -1.8417 -2.1256
 7992TIP3    H245468   6.070   6.790   0.643  0.6105 -0.1891  0.7600
 7993TIP3   OH245469   6.391   3.171   6.122  0.5483 -0.1176  0.2310
 7993TIP3    H145470   6.454   3.239   6.098  1.0358 -0.6638 -0.0691
 7993TIP3    H245471   6.399   3.164   6.218  0.0432  0.6705  0.3416
 7994TIP3   OH245472   3.982   3.885   1.709 -0.0139 -0.3233  0.1625
 7994TIP3    H145473   3.977   3.948   1.637 -0.9806  0.8391  1.2127
 7994TIP3    H245474   4.075   3.882   1.732  0.1135  0.2799 -0.2719
 7995TIP3   OH245475   4.135   0.509   3.574 -0.0619  0.7504 -0.1149
 7995TIP3    H145476   4.098   0.523   3.487 -0.4976 -0.2928 -0.1132
 7995TIP3    H245477   4.074   0.552   3.634 -1.4151 -1.0669 -0.1000
 7996TIP3   OH245478   5.729   2.226   3.469 -0.2224  0.9511  0.0702
 7996TIP3    H145479   5.704   2.143   3.428  0.0798  0.7450  0.2884
 7996TIP3    H245480   5.811   2.205   3.515 -0.6098  1.1457  0.8589
 7997TIP3   OH245481   5.482   5.206  16.795 -0.0754  0.5648  0.2983
 7997TIP3    H145482   5.405   5.249  16.760 -0.8673 -0.8872  0.1731
 7997TIP3    H245483   5.482   5.229  16.888  0.3826  2.0269 -0.0357
 7998TIP3   OH245484   0.521   5.315   2.656 -0.9923  0.1535 -0.2623
 7998TIP3    H145485   0.478   5.300   2.741  0.3619  2.0108  0.8420
 7998TIP3    H245486   0.478   5.394   2.622  0.5450  1.2528  0.2364
 7999TIP3   OH245487   1.503   3.892  14.180 -0.1427 -0.2732  0.3656
 7999TIP3    H145488   1.461   3.925  14.100  1.0081 -1.4080 -0.7619
 7999TIP3    H245489   1.430   3.869  14.238 -1.0059  2.2141  0.4004
 8000TIP3   OH245490   2.478   1.433  17.148  0.1274  0.0571 -0.7311
 8000TIP3    H145491   2.523   1.518  17.140 -1.1128  0.6275 -2.1083
 8000TIP3    H245492   2.411   1.435  17.080 -0.0779 -1.9658 -0.6434
 8001TIP3   OH245493   4.910   0.660   5.234  0.3413 -0.4934 -0.1847
 8001TIP3    H145494   4.998   0.632   5.258 -0.1230 -1.7497  0.1901
 8001TIP3    H245495   4.920   0.706   5.151  1.7041  1.9755  1.2618
 8002TIP3   OH245496   1.931   1.998  15.813  0.3651 -0.3573 -0.3592
 8002TIP3    H145497   1.874   2.074  15.803  0.9585  0.2810  0.9666
 8002TIP3    H245498   1.924   1.975  15.905  0.1886 -1.9304 -0.7382
 8003TIP3   OH245499   2.891   1.767  12.499  0.5238 -0.2417  0.8879
 8003TIP3    H145500   2.898   1.837  12.434 -1.0908 -0.6688  0.1945
 8003TIP3    H245501   2.967   1.712  12.483  1.1649  0.6854  0.6375
 8004TIP3   OH245502   4.921   4.494  16.933  0.1208  0.2735  0.7651
 8004TIP3    H145503   4.866   4.572  16.945  1.8622  1.6528  0.2369
 8004TIP3    H245504   4.880   4.447  16.861  0.0562  1.7050 -0.1753
 8005TIP3   OH245505   0.183   5.903  14.780 -0.1436 -0.0516 -0.0591
 8005TIP3    H145506   0.155   5.917  14.690 -2.4332 -0.0040  0.6078
 8005TIP3    H245507   0.278   5.918  14.778 -0.5624  3.1337 -1.8360
 8006TIP3   OH245508   3.864   3.006   3.278 -0.5974 -0.4792  0.8072
 8006TIP3    H145509   3.817   3.066   3.335  0.3922  1.1793 -0.0455
 8006TIP3    H245510   3.957   3.024   3.295 -0.2523 -1.9518  0.6893
 8007TIP3   OH245511   1.480   1.502  14.418 -0.1429  0.4176  0.3626
 8007TIP3    H145512   1.400   1.451  14.432  0.9575 -0.9046  2.3050
 8007TIP3    H245513   1.494   1.549  14.500  0.5221  1.4942 -0.3381
 8008TIP3   OH245514   2.220   2.680   4.461  0.1739  0.0265  0.2149
 8008TIP3    H145515   2.148   2.619   4.476  0.6434  0.1417  3.5946
 8008TIP3    H245516   2.179   2.757   4.421 -1.3470 -0.4337  0.8198
 8009TIP3   OH245517   6.017   6.348  12.775 -0.0855 -0.2651 -0.5373
 8009TIP3    H145518   5.996   6.255  12.779  1.0243 -0.5790 -1.3871
 8009TIP3    H245519   5.983   6.377  12.690 -1.7330  0.4732  0.3408
 8010TIP3   OH245520   5.234   4.716   4.166  0.3158 -0.1006 -0.4412
 8010TIP3    H145521   5.208   4.696   4.077  3.2102 -0.0303 -1.4189
 8010TIP3    H245522   5.314   4.768   4.157  1.3687 -1.0732  2.1557
 8011TIP3   OH245523   3.867   2.195   6.039 -0.1554 -0.6603 -0.0436
 8011TIP3    H145524   3.928   2.251   6.087 -0.0269 -1.3486  0.6224
 8011TIP3    H245525   3.916   2.164   5.963  0.4554 -1.4669  0.6582
 8012TIP3   OH245526   4.887   3.928  14.693 -0.0376 -0.3013  0.4993
 8012TIP3    H145527   4.835   3.974  14.626  2.7979  1.0895 -0.9363
 8012TIP3    H245528   4.843   3.844  14.704 -1.6941  0.1652 -1.7491
 8013TIP3   OH245529   4.516   3.860   3.755  0.6544  0.4339 -0.4620
 8013TIP3    H145530   4.497   3.773   3.791 -0.7218  1.4259  1.3781
 8013TIP3    H245531   4.507   3.919   3.830 -0.3985  2.4217 -2.0700
 8014TIP3   OH245532   1.271   6.468  16.894  0.3999  0.1704  0.1924
 8014TIP3    H145533   1.256   6.468  16.800  2.1005  0.3716 -0.1137
 8014TIP3    H245534   1.184   6.463  16.933 -0.5224  2.7856 -1.3369
 8015TIP3   OH245535   3.632   0.072  11.329 -0.6311  0.1804  0.5455
 8015TIP3    H145536   3.675   0.132  11.391 -1.1563  0.7022  0.4152
 8015TIP3    H245537   3.697   0.003  11.314 -0.5962 -0.1109  1.8834
 8016TIP3   OH245538   6.738   4.874   1.299  0.2470  0.4547  0.0684
 8016TIP3    H145539   6.694   4.838   1.221 -0.8432  1.9533 -0.0599
 8016TIP3    H245540   6.758   4.964   1.275 -0.0328  0.9132  1.4980
 8017TIP3   OH245541   1.503   4.408  16.612  0.7080  0.5209 -0.0975
 8017TIP3    H145542   1.471   4.326  16.575 -0.0341  0.6748  0.2061
 8017TIP3    H245543   1.474   4.408  16.703  1.0738  0.9244  0.0266
 8018TIP3   OH245544   6.194   5.034   3.286  0.2681 -0.2704  0.0592
 8018TIP3    H145545   6.184   4.976   3.361  1.0977  0.0530  0.4366
 8018TIP3    H245546   6.289   5.039   3.272  0.1030 -2.6106 -2.8093
 8019TIP3   OH245547   4.137   5.256   2.841 -1.0073  0.1946  0.1707
 8019TIP3    H145548   4.137   5.211   2.757 -3.8857 -0.2980  0.3230
 8019TIP3    H245549   4.152   5.348   2.819  2.2991 -0.3557 -0.3826
 8020TIP3   OH245550   3.158   6.386   3.993  0.0525 -0.0355  0.2617
 8020TIP3    H145551   3.085   6.418   4.046 -1.0144  0.7253 -1.5550
 8020TIP3    H245552   3.216   6.342   4.055 -1.3271  0.4313  1.9550
 8021TIP3   OH245553   3.659   0.523   2.737 -0.3371 -0.4185 -0.0875
 8021TIP3    H145554   3.706   0.440   2.739 -1.6160 -1.1487  1.2412
 8021TIP3    H245555   3.581   0.508   2.790 -1.3849  1.1730 -1.0932
 8022TIP3   OH245556   3.145   0.851   5.343 -0.4210  0.3477  0.1760
 8022TIP3    H145557   3.196   0.924   5.308 -0.1185  0.1742  0.2508
 8022TIP3    H245558   3.210   0.785   5.366 -0.6910  0.0652  0.1386
 8023TIP3   OH245559   5.834   6.459   1.157 -0.1443  0.6673 -0.3272
 8023TIP3    H145560   5.804   6.494   1.241  0.5780 -1.6009  0.9875
 8023TIP3    H245561   5.929   6.454   1.166 -0.1538 -0.7908 -0.7301
 8024TIP3   OH245562   2.859   1.515   4.828 -0.4629 -0.0664  0.2511
 8024TIP3    H145563   2.935   1.482   4.876 -1.1919 -1.0087  0.7880
 8024TIP3    H245564   2.800   1.548   4.896 -0.8561 -0.0324 -0.1010
 8025TIP3   OH245565   0.822   4.202  15.240  0.0872 -0.1541 -0.3109
 8025TIP3    H145566   0.884   4.246  15.297 -0.8752  0.1366  0.5462
 8025TIP3    H245567   0.862   4.204  15.153  1.3453 -0.1582  0.2622
 8026TIP3   OH245568   1.976   0.292  11.458  0.9614 -0.6028 -0.3021
 8026TIP3    H145569   2.053   0.349  11.456 -0.0406  0.8141 -2.5479
 8026TIP3    H245570   1.944   0.292  11.368 -2.7690  0.4492  0.8359
 8027TIP3   OH245571   4.947   1.851  13.931  0.1890 -0.1106  0.0015
 8027TIP3    H145572   4.918   1.875  14.019  0.5185  1.7464 -0.3589
 8027TIP3    H245573   5.042   1.838  13.939  0.3351  0.7745 -0.2059
 8028TIP3   OH245574   0.591   4.047  14.180 -0.0451 -0.1235  0.2315
 8028TIP3    H145575   0.620   4.081  14.096 -0.8514 -0.3515 -0.1499
 8028TIP3    H245576   0.655   4.079  14.243 -1.3575  3.1033  0.1086
 8029TIP3   OH245577   0.319   2.795  12.607  0.1320  0.2422 -0.0372
 8029TIP3    H145578   0.397   2.850  12.615 -0.4505  1.9208 -3.7381
 8029TIP3    H245579   0.352   2.714  12.567  0.1805  0.3911 -0.3020
 8030TIP3   OH245580   2.106   5.109  15.219  0.4326 -0.0528  0.1842
 8030TIP3    H145581   2.062   5.069  15.144  0.3595  2.8380 -1.4590
 8030TIP3    H245582   2.038   5.159  15.263  0.7502 -0.7240  1.4728
 8031TIP3   OH245583   3.427   5.009  11.253 -0.2568 -0.1588 -0.2101
 8031TIP3    H145584   3.441   5.001  11.158 -0.0970  0.9518 -0.2866
 8031TIP3    H245585   3.377   5.090  11.263  1.0339  0.5563  0.7617
 8032TIP3   OH245586   5.955   5.642   5.789  0.1226  0.5578 -0.2424
 8032TIP3    H145587   5.964   5.706   5.860  0.0930 -0.6966  0.9441
 8032TIP3    H245588   5.945   5.558   5.834 -0.3846 -0.2218 -1.7447
 8033TIP3   OH245589   4.996   1.574  12.099 -0.3275 -0.0482  0.3663
 8033TIP3    H145590   4.984   1.487  12.061 -2.0877  0.2989  0.0465
 8033TIP3    H245591   5.085   1.599  12.075 -1.5094  0.5110 -4.3411
 8034TIP3   OH245592   2.759   6.013  17.062  0.2248 -0.0785 -0.1064
 8034TIP3    H145593   2.838   6.065  17.051  1.1744 -1.4487  0.0685
 8034TIP3    H245594   2.719   6.047  17.142  0.2072  1.1337 -0.6061
 8035TIP3   OH245595   1.232   4.557  13.436  0.0190 -0.7439 -0.3193
 8035TIP3    H145596   1.174   4.596  13.370 -0.6050 -1.8611 -0.4660
 8035TIP3    H245597   1.319   4.557  13.396 -0.4177 -1.7826 -1.3520
 8036TIP3   OH245598   4.806   1.313  15.010  0.6622 -0.7302  0.1498
 8036TIP3    H145599   4.875   1.370  15.044 -0.9326  0.6363  1.2452
 8036TIP3    H245600   4.748   1.372  14.962  0.5701 -1.9641 -1.3465
 8037TIP3   OH245601   2.173   4.907  15.686 -0.3366  0.3552 -0.0339
 8037TIP3    H145602   2.119   4.839  15.725  1.5629 -1.7836 -0.9188
 8037TIP3    H245603   2.246   4.918  15.748  0.3686  0.1811 -0.8202
 8038TIP3   OH245604   0.004   0.166   5.910 -0.1777 -0.0182 -0.2381
 8038TIP3    H145605   0.031   0.229   5.977 -1.1176 -0.2576  0.3701
 8038TIP3    H245606   0.083   0.113   5.895 -0.0900 -0.2890  1.0428
 8039TIP3   OH245607   5.059   0.968  14.610 -0.4055 -0.3013 -0.3383
 8039TIP3    H145608   4.963   0.962  14.615 -0.5626  1.2807 -0.9673
 8039TIP3    H245609   5.087   0.973  14.701 -0.9847  0.0982 -0.1758
 8040TIP3   OH245610   1.909   0.733  10.814 -0.1191  0.5283 -0.1627
 8040TIP3    H145611   1.898   0.816  10.860 -0.6273  0.2000  0.3242
 8040TIP3    H245612   1.848   0.737  10.741 -0.1846  0.5598 -0.1062
 8041TIP3   OH245613   4.388   6.208  15.964 -0.5166 -0.0643  1.2932
 8041TIP3    H145614   4.349   6.123  15.985  0.2514 -0.3552  1.5676
 8041TIP3    H245615   4.360   6.265  16.036  0.7062 -0.6335  2.2578
 8042TIP3   OH245616   4.304   1.423  12.594 -0.0542 -0.0714 -0.7141
 8042TIP3    H145617   4.381   1.421  12.651 -1.2958 -1.4353  1.0110
 8042TIP3    H245618   4.340   1.434  12.506  2.0188  0.5914  0.1535
 8043TIP3   OH245619   5.312   5.966   3.479  0.4710 -0.1353  0.0036
 8043TIP3    H145620   5.403   5.943   3.463 -0.1862 -0.3199 -4.6699
 8043TIP3    H245621   5.264   5.885   3.466 -0.5243  0.2957  0.8498
 8044TIP3   OH245622   1.095   6.724  13.514 -0.0499  0.3072  0.0945
 8044TIP3    H145623   1.107   6.761  13.602 -1.4178  1.3482 -0.1050
 8044TIP3    H245624   1.176   6.677  13.496  0.4368  0.4466  1.7356
 8045TIP3   OH245625   1.658   1.680  13.227 -0.3132 -0.4572 -0.6124
 8045TIP3    H145626   1.735   1.631  13.199  0.2651 -0.7989  1.4306
 8045TIP3    H245627   1.584   1.629  13.194  0.3032 -1.9789  0.2463
 8046TIP3   OH245628   5.728   0.437  14.464  0.1989  0.0743 -0.8081
 8046TIP3    H145629   5.695   0.466  14.378  0.8007 -0.1923 -1.1343
 8046TIP3    H245630   5.674   0.361  14.485 -2.0474  1.9086  0.4943
 8047TIP3   OH245631   3.801   3.222  15.272 -0.2802 -0.3444 -0.2623
 8047TIP3    H145632   3.746   3.193  15.344 -1.3662  1.1764 -0.4287
 8047TIP3    H245633   3.826   3.311  15.296  0.8910 -0.4905 -0.9011
 8048TIP3   OH245634   6.288   4.201   1.040 -0.1886 -0.1385 -0.2064
 8048TIP3    H145635   6.297   4.108   1.058  0.9209  0.1099  0.6582
 8048TIP3    H245636   6.240   4.236   1.114 -0.6303 -0.0240 -0.5438
 8049TIP3   OH245637   6.822   5.703   3.617  0.5086 -0.0892 -0.2917
 8049TIP3    H145638   6.768   5.743   3.686 -2.1241 -1.1426 -1.6135
 8049TIP3    H245639   6.853   5.621   3.656  1.4420  0.6511  0.5752
 8050TIP3   OH245640   1.742   0.968   2.992 -0.1277 -0.1317  0.5489
 8050TIP3    H145641   1.808   0.957   2.923  0.3750 -0.7135  1.1050
 8050TIP3    H245642   1.661   0.936   2.953  0.0458  0.0031  0.0686
 8051TIP3   OH245643   4.817   1.268  11.669 -0.2811  0.1780  0.2447
 8051TIP3    H145644   4.857   1.321  11.600 -0.6874  0.0275 -0.1140
 8051TIP3    H245645   4.872   1.190  11.674 -0.0607  0.3374  0.3199
 8052TIP3   OH245646   6.834   0.427   5.383  0.4325 -0.5268 -0.0087
 8052TIP3    H145647   6.912   0.386   5.345 -0.0274 -2.5456  1.0501
 8052TIP3    H245648   6.869   0.487   5.449  1.1245  0.2646 -1.0719
 8053TIP3   OH245649   2.694   1.540  14.443  0.3349 -0.2696 -1.0818
 8053TIP3    H145650   2.643   1.503  14.371  2.1704  0.8403 -3.0710
 8053TIP3    H245651   2.646   1.620  14.468 -2.4601 -2.5495  1.7836
 8054TIP3   OH245652   1.372   5.317   0.924 -0.0947  0.1910  0.0805
 8054TIP3    H145653   1.411   5.369   0.994  0.8003  0.1769 -0.3940
 8054TIP3    H245654   1.389   5.226   0.949 -2.8781 -0.0208  1.6306
 8055TIP3   OH245655   3.239   0.624  13.714 -0.2350 -0.0777 -1.0527
 8055TIP3    H145656   3.268   0.588  13.631  2.1293  0.0159 -0.3382
 8055TIP3    H245657   3.240   0.550  13.775  1.9435  0.5525 -0.2322
 8056TIP3   OH245658   4.962   6.622   6.015  0.2212 -0.3755  0.4964
 8056TIP3    H145659   5.005   6.550   6.061 -0.3291 -0.2091  1.3024
 8056TIP3    H245660   4.873   6.622   6.050 -0.6727 -1.1537 -1.6538
 8057TIP3   OH245661   3.638   3.635   3.218 -0.3628 -0.2817  0.5196
 8057TIP3    H145662   3.577   3.583   3.166  1.7714  0.2300 -2.7851
 8057TIP3    H245663   3.608   3.725   3.208  0.1316 -0.1675 -0.0034
 8058TIP3   OH245664   4.084   5.682   2.084 -0.0121 -0.3715 -0.3589
 8058TIP3    H145665   4.079   5.691   1.989  2.2110  1.9844 -0.3575
 8058TIP3    H245666   4.114   5.592   2.098 -0.3475 -0.7482 -1.8568
 8059TIP3   OH245667   0.544   3.181  14.009 -0.1388  0.2472 -0.4956
 8059TIP3    H145668   0.496   3.208  14.087 -0.8201  0.0914 -0.8546
 8059TIP3    H245669   0.545   3.085  14.013 -0.8852  0.2098 -1.0938
 8060TIP3   OH245670   2.333   0.042   2.399  0.3945  0.2562  0.1328
 8060TIP3    H145671   2.324   0.048   2.494  1.5748  0.3372  0.2481
 8060TIP3    H245672   2.322  -0.051   2.379  0.5002  0.1892  0.3848
 8061TIP3   OH245673   5.766   4.787  12.077 -0.4271 -0.4683  0.5930
 8061TIP3    H145674   5.814   4.796  12.159 -0.1526 -0.9356  0.4912
 8061TIP3    H245675   5.692   4.847  12.085 -0.5899 -0.7523  1.3192
 8062TIP3   OH245676   0.670   4.108  15.559  0.5626 -0.1847 -0.7391
 8062TIP3    H145677   0.703   4.191  15.524  0.7876  0.4943  0.9765
 8062TIP3    H245678   0.745   4.048  15.552  1.3230  0.5662  0.5560
 8063TIP3   OH245679   2.718   0.214   4.056  0.3792 -0.4754 -0.1632
 8063TIP3    H145680   2.722   0.257   3.970 -1.9448  0.7805  0.3053
 8063TIP3    H245681   2.626   0.191   4.068  0.8405 -1.6291  1.5554
 8064TIP3   OH245682   1.081   3.944  15.557 -0.2549 -0.0607  0.3664
 8064TIP3    H145683   0.992   3.920  15.534  0.1916 -2.2320  0.7018
 8064TIP3    H245684   1.107   3.880  15.623  2.0207 -0.3773 -0.7301
 8065TIP3   OH245685   3.137   1.291   1.562  0.2665 -0.1269  0.2251
 8065TIP3    H145686   3.091   1.375   1.567  0.9248  0.1883  1.4007
 8065TIP3    H245687   3.188   1.287   1.643 -0.3699 -2.0372  0.5680
 8066TIP3   OH245688   4.039   6.132   0.025 -0.3022 -0.0087  0.1892
 8066TIP3    H145689   4.007   6.217  -0.006 -1.1801 -0.7526 -1.0602
 8066TIP3    H245690   4.134   6.141   0.027 -0.3512  0.7932 -0.5577
 8067TIP3   OH245691   1.082   5.708  13.383 -0.5504 -0.3162 -0.0714
 8067TIP3    H145692   1.100   5.769  13.454 -1.1566  0.3358 -0.4673
 8067TIP3    H245693   0.992   5.727  13.356 -0.6611 -1.2074 -0.3780
 8068TIP3   OH245694   0.700   2.752   4.962 -0.2148  0.0474 -0.1214
 8068TIP3    H145695   0.748   2.673   4.985  0.6179  0.8835  1.1111
 8068TIP3    H245696   0.703   2.754   4.866  1.1386 -0.5682 -0.1187
 8069TIP3   OH245697   5.275   4.809   5.401  0.9088  0.1801 -0.0543
 8069TIP3    H145698   5.191   4.768   5.380  0.4075  0.7645  0.7668
 8069TIP3    H245699   5.312   4.755   5.471  1.0221  0.1823 -0.1109
 8070TIP3   OH245700   6.495   1.822  14.813  0.6434 -0.1049  0.5542
 8070TIP3    H145701   6.564   1.863  14.865 -0.8335 -0.1489  2.6856
 8070TIP3    H245702   6.417   1.826  14.869 -0.7716 -1.2517 -1.2149
 8071TIP3   OH245703   2.580   5.650   3.631 -0.2190  0.2976 -0.1960
 8071TIP3    H145704   2.622   5.719   3.580 -1.4894  1.2051 -0.0555
 8071TIP3    H245705   2.652   5.607   3.677  0.4603  2.7005  1.1605
 8072TIP3   OH245706   6.029   0.853   4.596  0.3162  0.2234 -0.4919
 8072TIP3    H145707   6.105   0.883   4.645 -0.0032 -0.3126  0.3767
 8072TIP3    H245708   5.954   0.889   4.644 -0.0776 -1.8705  0.5990
 8073TIP3   OH245709   0.486   4.995   4.771 -0.2162 -0.0619  0.5607
 8073TIP3    H145710   0.553   5.002   4.840 -1.1800  0.4462  1.4647
 8073TIP3    H245711   0.405   4.974   4.818 -1.5271  3.0657 -0.0491
 8074TIP3   OH245712   2.965   2.848   5.566  0.0562  0.3984 -0.0721
 8074TIP3    H145713   2.979   2.938   5.594 -0.1682  0.6803 -0.8377
 8074TIP3    H245714   2.869   2.838   5.564  0.0772  0.2523 -0.3362
 8075TIP3   OH245715   2.117   1.658  15.541 -0.2595 -0.3723  0.0437
 8075TIP3    H145716   2.194   1.707  15.512 -0.6038  0.1922  0.0794
 8075TIP3    H245717   2.152   1.573  15.567  0.7288  0.6443  2.2955
 8076TIP3   OH245718   3.837   1.413  12.210  0.4473  0.6383 -0.3074
 8076TIP3    H145719   3.869   1.392  12.122  1.3600 -0.9709  0.3742
 8076TIP3    H245720   3.774   1.344  12.230  0.7256  0.6281  0.5566
 8077TIP3   OH245721   5.413   5.709   1.794 -0.4520 -0.1498  0.4951
 8077TIP3    H145722   5.500   5.671   1.801  0.8512  2.6851  0.9939
 8077TIP3    H245723   5.379   5.708   1.884 -0.6142 -0.4673  0.4350
 8078TIP3   OH245724   4.002   5.347   5.269 -0.1007  0.3084 -0.3092
 8078TIP3    H145725   3.958   5.325   5.188  0.0482 -0.9368 -0.0783
 8078TIP3    H245726   4.045   5.266   5.296  2.7816  1.5473 -0.7968
 8079TIP3   OH245727   4.006   1.580   5.629  0.1874  0.1950  0.1946
 8079TIP3    H145728   4.078   1.642   5.623  0.2489  0.0928 -0.1644
 8079TIP3    H245729   3.927   1.634   5.622  0.2390  0.2516  0.0249
 8080TIP3   OH245730   1.270   1.653   1.972  0.3457 -0.3177  0.5831
 8080TIP3    H145731   1.203   1.673   1.908  0.0799  0.1206  0.9898
 8080TIP3    H245732   1.353   1.675   1.929  0.1382  0.4015  0.5534
 8081TIP3   OH245733   0.216   0.286   1.852  0.4748  0.1613  0.5185
 8081TIP3    H145734   0.204   0.331   1.935 -2.9004 -0.2555  0.4165
 8081TIP3    H245735   0.252   0.352   1.793  0.4556  1.2142  1.6484
 8082TIP3   OH245736   5.018   0.999  16.447 -0.3851  0.0150  0.1700
 8082TIP3    H145737   5.101   1.046  16.446 -0.3492 -0.0455  0.2707
 8082TIP3    H245738   4.984   1.009  16.358 -0.8487  1.0691  0.4444
 8083TIP3   OH245739   0.486   2.992   0.767 -0.0774  0.2595 -0.3683
 8083TIP3    H145740   0.414   3.050   0.740  0.7350  0.1949 -2.9761
 8083TIP3    H245741   0.455   2.951   0.848 -1.9992  1.9315 -0.1704
 8084TIP3   OH245742   2.775   1.578   3.825 -0.4898  0.3198  0.2934
 8084TIP3    H145743   2.787   1.488   3.856  1.1496  0.4478  0.1059
 8084TIP3    H245744   2.705   1.572   3.760 -0.7293 -0.7329  0.6350
 8085TIP3   OH245745   3.561   1.597  15.278  0.0268 -0.4298  0.2393
 8085TIP3    H145746   3.550   1.638  15.192 -2.4030 -0.7603  0.3217
 8085TIP3    H245747   3.546   1.668  15.340 -0.0825 -0.5781  0.3831
 8086TIP3   OH245748   5.118   6.582  16.850 -0.6607  0.5062 -0.1482
 8086TIP3    H145749   5.081   6.610  16.933 -2.0308  0.0458 -0.5743
 8086TIP3    H245750   5.104   6.487  16.848 -0.5071  0.4893 -0.8324
 8087TIP3   OH245751   4.236   5.912   1.126 -0.1238  0.1977  0.4342
 8087TIP3    H145752   4.261   5.999   1.156  2.0334 -0.2073 -0.0394
 8087TIP3    H245753   4.241   5.916   1.031  0.1746 -0.4984  0.4138
 8088TIP3   OH245754   6.433   4.475  11.273  0.5308 -0.0764  0.0044
 8088TIP3    H145755   6.443   4.472  11.177 -0.2760  1.6177 -0.1573
 8088TIP3    H245756   6.361   4.414  11.291 -0.3876  0.7860 -0.6558
 8089TIP3   OH245757   2.518   6.586  12.273 -0.6662  0.1408 -0.4066
 8089TIP3    H145758   2.453   6.609  12.339  0.5273 -0.5026  1.0753
 8089TIP3    H245759   2.532   6.666  12.223  0.5142  1.5692  2.0426
 8090TIP3   OH245760   3.416   2.714   1.666 -0.2448 -0.5064  0.3882
 8090TIP3    H145761   3.427   2.787   1.604 -1.7673 -0.1479  0.4987
 8090TIP3    H245762   3.374   2.646   1.614 -1.5206 -0.2085  0.9870
 8091TIP3   OH245763   5.446   1.560  15.081  0.0325 -0.1752 -1.0074
 8091TIP3    H145764   5.356   1.528  15.074 -0.3894  0.8055 -0.2829
 8091TIP3    H245765   5.491   1.523  15.005 -1.0839 -0.3605 -1.5920
 8092TIP3   OH245766   4.227   3.743   1.182 -0.1156 -0.1020 -0.3553
 8092TIP3    H145767   4.219   3.796   1.261  0.2618 -0.1674 -0.2717
 8092TIP3    H245768   4.171   3.788   1.118 -0.8226 -0.3392  0.0893
 8093TIP3   OH245769   3.011   4.735  13.054 -0.2454 -0.1148 -0.0596
 8093TIP3    H145770   3.097   4.776  13.058 -0.1589 -0.3512  1.2940
 8093TIP3    H245771   3.010   4.688  12.971  1.0392 -0.3152  0.0147
 8094TIP3   OH245772   0.651   2.814   1.241 -0.2299  0.3175  0.0562
 8094TIP3    H145773   0.558   2.807   1.223 -0.4488  0.5776  1.0046
 8094TIP3    H245774   0.692   2.747   1.187 -1.0249 -0.1670  0.0440
 8095TIP3   OH245775   1.803   2.015  12.690 -0.7460 -0.3166 -0.3131
 8095TIP3    H145776   1.722   1.968  12.710 -0.5973 -0.5189 -0.1761
 8095TIP3    H245777   1.807   2.085  12.755  1.0537 -2.5327  2.1995
 8096TIP3   OH245778   1.774   2.927   5.476  0.3870 -0.6322 -0.9117
 8096TIP3    H145779   1.859   2.922   5.520 -0.7900  1.1363  1.8502
 8096TIP3    H245780   1.770   3.015   5.441 -0.2995 -0.6848 -0.9781
 8097TIP3   OH245781   4.582   4.629   2.056  0.0317  0.6521  0.3846
 8097TIP3    H145782   4.611   4.697   1.995 -0.2746  1.0721  0.6988
 8097TIP3    H245783   4.490   4.614   2.033  1.2459 -3.3788 -3.1733
 8098TIP3   OH245784   1.148   1.727  14.343 -0.2323  0.3818  0.3616
 8098TIP3    H145785   1.098   1.739  14.263  1.0306 -1.2216 -0.7382
 8098TIP3    H245786   1.240   1.729  14.315  0.2176 -1.5042  1.5403
 8099TIP3   OH245787   3.972   4.307  12.751 -0.4242  0.2418 -0.3022
 8099TIP3    H145788   3.916   4.238  12.786  0.8026 -0.7321 -0.1959
 8099TIP3    H245789   4.008   4.350  12.828  0.7650 -0.6434 -0.3490
 8100TIP3   OH245790   1.778   0.946  12.150 -0.0052 -0.1144 -0.0641
 8100TIP3    H145791   1.829   0.900  12.082  1.7648 -0.4979  1.4348
 8100TIP3    H245792   1.778   0.886  12.224 -1.3624  0.5575  0.5026
 8101TIP3   OH245793   1.481   4.903  17.039 -0.3627  0.0400  0.3716
 8101TIP3    H145794   1.516   4.937  17.121 -0.3309  1.1486 -0.0802
 8101TIP3    H245795   1.391   4.935  17.035 -0.6382 -0.7073  0.3575
 8102TIP3   OH245796   5.612   0.133   5.387 -0.3544 -0.1790 -0.6072
 8102TIP3    H145797   5.614   0.119   5.292 -0.2648  0.0318 -0.6371
 8102TIP3    H245798   5.519   0.137   5.409 -0.3734  0.7984 -0.8383
 8103TIP3   OH245799   2.844   5.460   0.662  0.3197  0.3243  0.1551
 8103TIP3    H145800   2.758   5.497   0.643  0.6684  0.7332 -0.7043
 8103TIP3    H245801   2.835   5.367   0.640 -0.6527 -0.2358  2.6353
 8104TIP3   OH245802   5.744   0.257   5.049  0.3418  0.1936  0.3995
 8104TIP3    H145803   5.694   0.322   5.000  0.4190 -0.2287 -0.2403
 8104TIP3    H245804   5.820   0.305   5.083  0.2200  0.5148  0.2165
 8105TIP3   OH245805   2.992   3.462  16.665 -0.1805 -0.5355  0.2838
 8105TIP3    H145806   2.984   3.377  16.621 -1.1535 -0.8968  1.1450
 8105TIP3    H245807   3.030   3.441  16.750  0.9607  0.0781 -0.0548
 8106TIP3   OH245808   6.279   6.758   0.967  0.2790  0.0376  0.0392
 8106TIP3    H145809   6.195   6.721   0.939  0.2007  0.4937 -0.3398
 8106TIP3    H245810   6.344   6.695   0.935  0.1527  0.2706 -0.7041
 8107TIP3   OH245811   5.701   6.365   5.078 -0.4003 -0.4064 -0.1041
 8107TIP3    H145812   5.734   6.408   5.157 -0.4515 -0.1748 -0.2079
 8107TIP3    H245813   5.664   6.282   5.109 -1.1017  0.0211  0.2152
 8108TIP3   OH245814   1.351   4.086   6.061  0.1884  0.0821  0.1833
 8108TIP3    H145815   1.288   4.015   6.077 -0.3451  0.2490 -1.1110
 8108TIP3    H245816   1.426   4.043   6.020  0.2201  0.1351  0.1860
 8109TIP3   OH245817   1.175   5.726  10.798 -0.2927 -0.0867 -0.6117
 8109TIP3    H145818   1.239   5.705  10.730 -1.1763 -1.2525 -1.1176
 8109TIP3    H245819   1.186   5.657  10.863 -0.6722  0.0038 -0.4491
 8110TIP3   OH245820   5.689   5.877   3.509 -0.6793  0.3477 -0.2899
 8110TIP3    H145821   5.765   5.874   3.451 -0.4975 -0.4530 -0.0146
 8110TIP3    H245822   5.619   5.832   3.461 -0.6286 -0.0034 -0.0398
 8111TIP3   OH245823   3.163   2.381   5.646  0.1593  0.5138  0.1226
 8111TIP3    H145824   3.078   2.355   5.682  0.2082  1.2945  0.8143
 8111TIP3    H245825   3.156   2.361   5.552 -0.2731 -0.7297  0.3963
 8112TIP3   OH245826   3.459   0.079  13.708 -0.8310  0.3113 -0.1132
 8112TIP3    H145827   3.412   0.161  13.723  2.0855  2.2368 -0.4629
 8112TIP3    H245828   3.497   0.057  13.793 -1.6463 -0.7526 -0.0086
 8113TIP3   OH245829   1.331   2.761  13.766 -0.4459  0.6172 -0.4094
 8113TIP3    H145830   1.336   2.702  13.691  0.0655  1.6263 -1.1934
 8113TIP3    H245831   1.240   2.753  13.796 -0.4169 -0.4728 -0.5558
 8114TIP3   OH245832   3.539   4.651   0.633 -0.3434 -0.1915  0.2124
 8114TIP3    H145833   3.501   4.658   0.721 -1.1683  0.3778 -0.1813
 8114TIP3    H245834   3.546   4.741   0.603 -1.6379 -0.4441 -0.9609
 8115TIP3   OH245835   5.013   5.891   4.775 -0.9104 -0.5892  0.4279
 8115TIP3    H145836   5.005   5.912   4.868  0.6552  1.4433  0.1624
 8115TIP3    H245837   5.082   5.825   4.771 -0.0881  0.2507  0.6186
 8116TIP3   OH245838   0.703   6.029  11.239  0.1672 -0.5647 -0.1985
 8116TIP3    H145839   0.730   6.118  11.215  1.9333 -0.4645  1.8222
 8116TIP3    H245840   0.751   5.973  11.178 -0.6933 -0.1639 -1.2668
 8117TIP3   OH245841   4.154   6.105  13.815 -0.0883  0.3375  0.8441
 8117TIP3    H145842   4.065   6.088  13.784  0.1494  0.6786 -0.0625
 8117TIP3    H245843   4.210   6.087  13.739  0.6292  0.0091  1.4383
 8118TIP3   OH245844   4.248   6.825   3.736  0.1124 -0.4570  0.2629
 8118TIP3    H145845   4.164   6.814   3.690 -0.4400 -0.9043  1.3325
 8118TIP3    H245846   4.294   6.742   3.722 -0.0936 -0.6271  0.5765
 8119TIP3   OH245847   2.687   5.571  16.640  0.0932 -0.2825  0.1715
 8119TIP3    H145848   2.782   5.578  16.629  0.2784  0.7926  1.9592
 8119TIP3    H245849   2.662   5.656  16.679 -1.7383 -0.1926 -1.1024
 8120TIP3   OH245850   0.033   6.681  11.713 -0.2777 -0.1280 -0.6204
 8120TIP3    H145851   0.125   6.657  11.709 -0.4363 -0.9829  0.3593
 8120TIP3    H245852   0.000   6.666  11.624  0.5605  0.3722 -1.0236
 8121TIP3   OH245853   4.331   5.442  11.455 -0.3938 -0.8239  0.0933
 8121TIP3    H145854   4.281   5.523  11.460 -0.7026 -1.0145  0.1339
 8121TIP3    H245855   4.354   5.421  11.545  3.9600  1.8045 -0.0879
 8122TIP3   OH245856   6.251   0.788   5.661 -0.0185 -0.4928  0.1230
 8122TIP3    H145857   6.334   0.740   5.659 -0.4607 -1.2664 -1.5873
 8122TIP3    H245858   6.274   0.877   5.637  0.6574 -0.0191  2.2884
 8123TIP3   OH245859   4.702   5.388   3.962 -0.2554 -0.2486  0.2460
 8123TIP3    H145860   4.639   5.460   3.967 -1.2005 -0.8678 -1.7567
 8123TIP3    H245861   4.653   5.316   3.923  1.3156 -1.2257  0.0023
 8124TIP3   OH245862   6.580   6.395   1.568  0.0093  0.6004 -0.3376
 8124TIP3    H145863   6.534   6.344   1.502 -1.3068 -2.2943  2.5297
 8124TIP3    H245864   6.672   6.373   1.556 -0.2514 -0.1643 -0.9757
 8125TIP3   OH245865   1.748   6.136  12.525  0.3047  0.2728 -0.3838
 8125TIP3    H145866   1.831   6.091  12.508  1.5441  0.4786  4.0084
 8125TIP3    H245867   1.770   6.205  12.588 -2.7100  2.6858 -1.6781
 8126TIP3   OH245868   6.136   2.335   5.192  1.2018  0.9469 -0.0891
 8126TIP3    H145869   6.130   2.293   5.278  1.1207  1.0343 -0.0513
 8126TIP3    H245870   6.046   2.339   5.161  1.3342 -0.0229 -0.6369
 8127TIP3   OH245871   4.895   6.138   0.139 -0.0250 -0.0999 -0.3630
 8127TIP3    H145872   4.912   6.160   0.047 -1.3849 -0.5176 -0.7456
 8127TIP3    H245873   4.963   6.184   0.188  0.5975  0.3027 -1.5626
 8128TIP3   OH245874   4.722   2.768   0.335 -0.3034  0.1638 -0.0386
 8128TIP3    H145875   4.683   2.756   0.248  0.2118 -0.9153 -0.1375
 8128TIP3    H245876   4.681   2.700   0.389 -2.0075  1.9739  1.0795
 8129TIP3   OH245877   5.007   3.668   3.873  0.2371 -0.8221 -0.1930
 8129TIP3    H145878   4.990   3.759   3.896  0.8481 -0.9831  0.9833
 8129TIP3    H245879   4.921   3.628   3.864 -0.0890 -0.8177  2.2403
 8130TIP3   OH245880   3.535   3.908  11.114  0.0951  0.3358  0.3143
 8130TIP3    H145881   3.555   3.997  11.085  1.9328 -0.5593 -1.4044
 8130TIP3    H245882   3.480   3.872  11.045 -2.9208  0.8765  2.2524
 8131TIP3   OH245883   4.322   5.126  16.192  0.2117 -0.2461  0.3629
 8131TIP3    H145884   4.251   5.062  16.198  0.2323 -0.1275  3.2196
 8131TIP3    H245885   4.283   5.208  16.224  1.2804  0.1510  0.6889
 8132TIP3   OH245886   0.031   1.837  13.870 -0.0073 -0.1627  0.4381
 8132TIP3    H145887   0.021   1.851  13.964 -2.0816  0.1885  0.2073
 8132TIP3    H245888  -0.057   1.846  13.834  0.6867 -0.5504 -1.5232
 8133TIP3   OH245889   3.496   3.999  12.015  0.1456 -0.1485 -0.1546
 8133TIP3    H145890   3.557   3.986  11.943 -1.1512  0.0790 -1.3302
 8133TIP3    H245891   3.440   4.071  11.986  0.1275  0.5273  1.4473
 8134TIP3   OH245892   2.696   3.717   3.674  0.2687  0.2998 -0.1675
 8134TIP3    H145893   2.751   3.789   3.707  1.5419 -0.4175 -0.6399
 8134TIP3    H245894   2.712   3.715   3.580  0.9583 -1.1396 -0.0562
 8135TIP3   OH245895   2.958   4.962   1.796  0.4891 -0.3134  0.4865
 8135TIP3    H145896   2.896   5.035   1.792  0.7737  0.3158  3.8717
 8135TIP3    H245897   2.903   4.884   1.805  0.2015 -0.2605 -0.6936
 8136TIP3   OH245898   5.105   6.741   4.311  0.4273  0.0822  0.5988
 8136TIP3    H145899   5.172   6.807   4.295 -0.0385  0.3701 -0.1890
 8136TIP3    H245900   5.022   6.785   4.293  0.1226 -0.7724 -0.1423
 8137TIP3   OH245901   3.743   4.499   0.846  0.4853 -0.0996 -0.3964
 8137TIP3    H145902   3.767   4.428   0.787  0.8366 -0.6546  0.3951
 8137TIP3    H245903   3.788   4.576   0.811 -1.1222  0.1097 -2.1599
 8138TIP3   OH245904   0.641   4.571  10.517 -0.0481  0.0427 -0.3535
 8138TIP3    H145905   0.606   4.656  10.545  0.1831  0.1133 -0.2770
 8138TIP3    H245906   0.726   4.591  10.479  1.0430 -0.3961  1.7376
 8139TIP3   OH245907   2.117   5.807  16.033  0.3293  0.0684  0.2859
 8139TIP3    H145908   2.135   5.840  16.121 -1.9800  2.9709 -0.1647
 8139TIP3    H245909   2.166   5.865  15.975  0.3333 -0.6302 -0.4376
 8140TIP3   OH245910   4.205   4.780  16.413 -0.3080  0.7472 -0.1427
 8140TIP3    H145911   4.288   4.788  16.461 -1.5504  1.0866  2.0631
 8140TIP3    H245912   4.192   4.685  16.406  0.4673  0.6825 -0.9268
 8141TIP3   OH245913   6.330   6.084  15.654  0.7703  0.4319  0.0178
 8141TIP3    H145914   6.338   6.034  15.736  1.5457 -0.6093 -0.6554
 8141TIP3    H245915   6.367   6.170  15.675  1.2376  0.0828  0.6803
 8142TIP3   OH245916   1.345   1.393  11.962  0.5116 -0.0282  0.5088
 8142TIP3    H145917   1.427   1.344  11.968  1.2351  1.0031 -0.4464
 8142TIP3    H245918   1.344   1.447  12.042  1.2971  0.7006  0.0494
 8143TIP3   OH245919   1.707   0.576   5.310 -0.0810 -0.5952  0.1931
 8143TIP3    H145920   1.690   0.607   5.399  0.7380  0.5482 -0.0192
 8143TIP3    H245921   1.693   0.653   5.255  2.8526 -0.2873 -0.2703
 8144TIP3   OH245922   3.401   2.165  12.763 -0.0190 -0.0482  0.8433
 8144TIP3    H145923   3.318   2.137  12.801 -0.2746  1.3675  1.4036
 8144TIP3    H245924   3.458   2.182  12.838  0.9744 -1.5200  0.4533
 8145TIP3   OH245925   2.034   5.910   0.210  0.2603 -0.1602 -0.4944
 8145TIP3    H145926   2.122   5.872   0.214  0.1784 -0.6607 -2.5240
 8145TIP3    H245927   2.012   5.909   0.117 -1.6778  0.4728 -0.0739
 8146TIP3   OH245928   1.776   1.374  15.042 -0.3199  0.2180 -0.1964
 8146TIP3    H145929   1.750   1.381  14.950 -1.2942  2.2537  0.1784
 8146TIP3    H245930   1.862   1.416  15.046  1.3453 -2.8846 -0.7046
 8147TIP3   OH245931   0.521   2.613  16.983 -0.0471 -0.4788 -0.2417
 8147TIP3    H145932   0.566   2.649  16.906 -0.6258  0.9159  0.0372
 8147TIP3    H245933   0.550   2.669  17.055  0.7686 -1.9946  0.6555
 8148TIP3   OH245934   3.635   4.852  13.176  0.0868  0.5132  0.6574
 8148TIP3    H145935   3.614   4.770  13.222 -0.7083  0.2231 -0.1904
 8148TIP3    H245936   3.730   4.858  13.182  0.1517 -0.4234  0.8360
 8149TIP3   OH245937   1.105   1.597   3.349 -0.0425 -0.1903  0.2936
 8149TIP3    H145938   1.049   1.585   3.425 -1.3158  0.3214 -0.5440
 8149TIP3    H245939   1.184   1.639   3.384 -2.1912  3.8354  0.8112
 8150TIP3   OH245940   3.378   6.767  11.263  0.0228  0.4938 -0.2730
 8150TIP3    H145941   3.410   6.683  11.230 -0.7296 -0.6688  1.7791
 8150TIP3    H245942   3.453   6.826  11.256  0.7270 -0.4720 -1.2234
 8151TIP3   OH245943   0.417   6.554  11.435 -0.1755  0.3520 -0.5117
 8151TIP3    H145944   0.416   6.638  11.482  1.4955 -0.2183  0.6756
 8151TIP3    H245945   0.510   6.529  11.434 -0.6634 -1.6408 -0.5041
 8152TIP3   OH245946   4.557   0.896   5.769  0.0289  0.6777 -0.4190
 8152TIP3    H145947   4.492   0.952   5.812 -2.5066 -1.9644 -0.5218
 8152TIP3    H245948   4.602   0.955   5.708  0.0943  3.3406  1.9624
 8153TIP3   OH245949   3.960   6.463   6.259 -0.1240  0.2957  0.1877
 8153TIP3    H145950   3.950   6.552   6.225  0.4217  0.6906  0.9996
 8153TIP3    H245951   3.870   6.432   6.272 -0.3209  0.7424 -0.0818
 8154TIP3   OH245952   5.649   4.531  16.451 -0.0930  0.0970 -0.2122
 8154TIP3    H145953   5.606   4.447  16.435 -2.1487  1.2187 -0.9719
 8154TIP3    H245954   5.713   4.513  16.519 -0.1955 -2.1600 -0.6445
 8155TIP3   OH245955   2.712   1.695  11.868 -0.0522  0.3733  0.5093
 8155TIP3    H145956   2.802   1.723  11.849 -0.2305  1.1326  0.7568
 8155TIP3    H245957   2.697   1.725  11.958 -0.3857 -0.1876  0.6422
 8156TIP3   OH245958   0.790   3.022  16.338  0.6813  0.7214 -0.6992
 8156TIP3    H145959   0.786   3.116  16.324 -0.7042  0.8724  0.4199
 8156TIP3    H245960   0.868   3.008  16.391  0.3160  1.3842  0.0242
 8157TIP3   OH245961   0.848   6.785   6.329 -0.2447 -0.3080  0.1847
 8157TIP3    H145962   0.832   6.873   6.296 -1.7313 -0.3357  0.7419
 8157TIP3    H245963   0.760   6.747   6.339  0.3689 -2.0266 -0.4904
 8158TIP3   OH245964   3.130   0.688   3.667  0.1962  0.5597  0.1342
 8158TIP3    H145965   3.184   0.703   3.744 -0.5405 -0.0879  0.7964
 8158TIP3    H245966   3.191   0.688   3.594  1.2859 -1.3122  0.9822
 8159TIP3   OH245967   4.512   4.006   1.210 -0.2361 -0.4831  0.2131
 8159TIP3    H145968   4.561   4.074   1.165  1.9454 -1.4586  1.0075
 8159TIP3    H245969   4.464   4.053   1.279  2.1066  0.1935  1.4865
 8160TIP3   OH245970   2.530   2.773  14.636 -0.6660  0.1199  0.3049
 8160TIP3    H145971   2.625   2.768  14.643 -0.4950  2.3261  0.3973
 8160TIP3    H245972   2.514   2.840  14.570 -2.1562 -0.1373  0.3610
 8161TIP3   OH245973   3.702   1.514   1.001 -0.5747  0.2638  0.5236
 8161TIP3    H145974   3.731   1.571   1.073 -0.8726 -0.5692  1.3221
 8161TIP3    H245975   3.616   1.547   0.977  0.1070  1.4531 -0.4637
 8162TIP3   OH245976   0.095   6.767  15.706 -0.1570  0.6917 -0.6549
 8162TIP3    H145977   0.051   6.758  15.791  0.0138 -0.6660 -0.6866
 8162TIP3    H245978   0.065   6.691  15.656  0.9829  0.6147 -1.2457
 8163TIP3   OH245979   1.342   5.200  16.848 -0.0546 -0.3937  0.1122
 8163TIP3    H145980   1.267   5.259  16.858 -1.5426 -2.0381 -0.7439
 8163TIP3    H245981   1.408   5.235  16.908 -0.8246  2.1282 -0.3850
 8164TIP3   OH245982   1.530   3.518   2.970 -0.8683 -0.4494 -0.0685
 8164TIP3    H145983   1.557   3.510   2.878  0.8182  0.7386  0.2741
 8164TIP3    H245984   1.580   3.450   3.015  0.4200  0.7429  0.3466
 8165TIP3   OH245985   1.654   1.117  16.062 -0.5035 -0.2439 -0.1758
 8165TIP3    H145986   1.667   1.030  16.100  0.3883 -0.0203  0.0410
 8165TIP3    H245987   1.587   1.157  16.118 -0.5349 -0.5981  0.0448
 8166TIP3   OH245988   0.939   6.828   1.800  0.3246  0.1071 -0.6939
 8166TIP3    H145989   0.862   6.850   1.852 -0.4527 -0.9353 -1.3798
 8166TIP3    H245990   0.958   6.737   1.821  1.9813  0.6114  0.1962
 8167TIP3   OH245991   6.027   6.134  10.961  0.2316 -0.1119 -0.1412
 8167TIP3    H145992   5.952   6.183  10.928  0.4231  0.7337  0.6229
 8167TIP3    H245993   6.054   6.181  11.040  0.9575 -0.9674  0.1494
 8168TIP3   OH245994   5.154   6.436   3.563  0.0760 -0.3061 -0.7470
 8168TIP3    H145995   5.138   6.342   3.571 -1.4783 -0.0382 -0.5333
 8168TIP3    H245996   5.106   6.462   3.484  0.7732  0.2691 -1.0011
 8169TIP3   OH245997   4.703   4.163  16.994 -0.5495  0.0180  0.5561
 8169TIP3    H145998   4.688   4.237  17.053 -0.2401  2.1418 -1.8456
 8169TIP3    H245999   4.797   4.149  16.996 -0.4031  0.8275 -0.2236
 8170TIP3   OH246000   4.730   0.856   1.523  0.4805  0.0049  0.8004
 8170TIP3    H146001   4.793   0.868   1.594  1.3678 -0.6341  0.1328
 8170TIP3    H246002   4.724   0.761   1.511  0.9407  0.1192 -0.5024
 8171TIP3   OH246003   5.717   1.937  14.496  0.0478 -0.9728  0.4192
 8171TIP3    H146004   5.648   1.949  14.431  0.3552 -0.0058  0.2524
 8171TIP3    H246005   5.783   1.884  14.451  0.3505 -0.1429 -0.1496
 8172TIP3   OH246006   3.174   3.372   0.136  0.5524 -0.0623 -0.0456
 8172TIP3    H146007   3.222   3.383   0.054  2.4043  2.0758  1.2175
 8172TIP3    H246008   3.242   3.346   0.199 -0.4252  0.4475  1.2506
 8173TIP3   OH246009   3.852   2.449   6.291  0.2660  0.0748  0.2621
 8173TIP3    H146010   3.901   2.367   6.280 -3.0645 -2.0072 -0.5686
 8173TIP3    H246011   3.886   2.486   6.373  2.6254 -1.5384  0.1199
 8174TIP3   OH246012   6.570   4.447  15.069  0.0490  0.0736  0.0421
 8174TIP3    H146013   6.513   4.429  14.994 -0.0081  1.3631 -0.2430
 8174TIP3    H246014   6.659   4.434  15.035 -0.0236 -1.5973  0.3960
 8175TIP3   OH246015   3.191   5.659   5.019 -0.0602 -0.0353 -0.2663
 8175TIP3    H146016   3.121   5.720   4.996 -1.2235 -1.8541 -1.8883
 8175TIP3    H246017   3.207   5.609   4.939  2.2167 -0.5629  0.4314
 8176TIP3   OH246018   3.369   3.416  12.814  0.0248  0.1475  0.1645
 8176TIP3    H146019   3.278   3.440  12.794  0.1306  1.5070  1.1926
 8176TIP3    H246020   3.409   3.401  12.729 -0.8739  0.6182 -0.3610
 8177TIP3   OH246021   4.317   3.536  13.251  0.2022  0.2047 -0.6602
 8177TIP3    H146022   4.305   3.564  13.160  0.5217 -0.8888 -1.0608
 8177TIP3    H246023   4.341   3.444  13.244  0.5100  0.1813  0.5286
 8178TIP3   OH246024   4.998   0.731  13.868  0.6290 -0.2076  0.1489
 8178TIP3    H146025   5.022   0.700  13.781  2.1453 -2.3668  1.2514
 8178TIP3    H246026   4.904   0.716  13.873  0.5232 -0.0883 -1.0781
 8179TIP3   OH246027   3.852   1.560  11.336  0.0699  0.2201  0.1670
 8179TIP3    H146028   3.887   1.594  11.254 -1.4576 -0.6508 -0.9185
 8179TIP3    H246029   3.771   1.609  11.350  0.1552  0.1424  1.0065
 8180TIP3   OH246030   3.803   5.718  14.823 -0.2214  0.2330  0.0021
 8180TIP3    H146031   3.715   5.745  14.797 -0.4702 -0.0355  0.5521
 8180TIP3    H246032   3.861   5.762  14.760 -0.7996 -0.4161 -1.0267
 8181TIP3   OH246033   5.836   5.056  11.355 -0.0894 -0.0333  0.2878
 8181TIP3    H146034   5.767   5.064  11.421 -0.1479 -2.0663  0.5512
 8181TIP3    H246035   5.789   5.042  11.273  0.0042  1.2342 -0.0008
 8182TIP3   OH246036   3.779   2.805   3.112 -0.0198  0.2589 -0.2645
 8182TIP3    H146037   3.851   2.853   3.152  0.7017 -0.3801 -0.7595
 8182TIP3    H246038   3.770   2.844   3.024 -0.7506  0.8050  0.0435
 8183TIP3   OH246039   1.983   5.644  11.792  0.6164  0.5815  0.1717
 8183TIP3    H146040   2.008   5.705  11.861  1.4913 -1.5894  1.9052
 8183TIP3    H246041   2.018   5.682  11.711  0.3095  2.7726  1.0000
 8184TIP3   OH246042   1.154   1.963  15.927 -0.2565  0.4869 -0.0852
 8184TIP3    H146043   1.222   1.924  15.982 -0.5072  0.1635 -0.0025
 8184TIP3    H246044   1.200   2.030  15.876  0.2221 -0.0436 -0.3726
 8185TIP3   OH246045   0.804   5.425  12.918 -0.4163  0.4213 -0.8928
 8185TIP3    H146046   0.719   5.458  12.946 -0.7845 -1.1276 -0.0835
 8185TIP3    H246047   0.861   5.437  12.994 -0.8469 -1.7519 -0.1673
 8186TIP3   OH246048   1.000   3.055   1.181 -0.0355 -0.5297 -0.5374
 8186TIP3    H146049   0.933   3.091   1.122 -1.2475 -0.9874  0.5229
 8186TIP3    H246050   1.042   3.133   1.219 -0.9847 -0.2276 -0.0911
 8187TIP3   OH246051   3.189   1.229  11.032  0.3895  0.0978 -0.1451
 8187TIP3    H146052   3.104   1.214  10.992  0.7125  1.8986 -1.5886
 8187TIP3    H246053   3.201   1.153  11.090 -1.5392 -0.9127 -0.9701
 8188TIP3   OH246054   6.799   3.993   3.196 -0.7887 -0.4934 -0.0318
 8188TIP3    H146055   6.725   3.986   3.256 -0.4428 -1.3709  0.3068
 8188TIP3    H246056   6.761   3.983   3.109 -1.3109  0.8933  0.0042
 8189TIP3   OH246057   5.675   2.839  13.194 -0.2301  0.2565 -0.0835
 8189TIP3    H146058   5.641   2.752  13.214 -1.0506  0.8939  1.4421
 8189TIP3    H246059   5.597   2.893  13.182  0.2558  0.6261 -1.9290
 8190TIP3   OH246060   3.349   1.659   0.149 -0.3554  0.3403  0.2115
 8190TIP3    H146061   3.398   1.741   0.150 -0.0978  0.2063 -0.7389
 8190TIP3    H246062   3.366   1.621   0.063 -0.5720 -0.6547  0.5842
 8191TIP3   OH246063   4.512   6.375   3.854 -0.9145 -0.3893 -0.0030
 8191TIP3    H146064   4.452   6.342   3.788  1.8254  0.0653 -2.9541
 8191TIP3    H246065   4.547   6.456   3.817  0.9822 -0.2720  1.8208
 8192TIP3   OH246066   3.310   6.418  14.002 -0.2425  0.4312  0.0357
 8192TIP3    H146067   3.328   6.418  13.908  1.2529 -0.5883  0.2782
 8192TIP3    H246068   3.293   6.510  14.023 -0.7202  0.6580 -1.2455
 8193TIP3   OH246069   6.667   1.909   2.140 -0.6728 -0.1283  0.0532
 8193TIP3    H146070   6.757   1.940   2.151 -0.0741 -1.8518  0.3552
 8193TIP3    H246071   6.638   1.948   2.058  1.3250 -1.5831 -1.4555
 8194TIP3   OH246072   2.803   4.296  13.617  0.4900 -0.3677 -0.0349
 8194TIP3    H146073   2.714   4.265  13.628  0.3021  0.2106  0.1435
 8194TIP3    H246074   2.798   4.357  13.542  0.9150 -1.0180 -0.6069
 8195TIP3   OH246075   5.642   5.348  12.730  0.6006 -0.1917  0.2843
 8195TIP3    H146076   5.725   5.315  12.767  0.0320 -1.3178  0.5840
 8195TIP3    H246077   5.575   5.314  12.789 -0.2922 -1.4794 -1.4074
 8196TIP3   OH246078   3.198   3.101  10.805  0.6795 -0.2213  0.0541
 8196TIP3    H146079   3.252   3.179  10.790  1.6796 -0.9456 -0.1857
 8196TIP3    H246080   3.166   3.078  10.718  0.3360 -0.0540  0.1336
 8197TIP3   OH246081   5.290   6.172   3.656  0.2378  0.0400  0.0705
 8197TIP3    H146082   5.274   6.098   3.597 -0.0684  0.8981 -0.9592
 8197TIP3    H246083   5.350   6.228   3.607  1.3727 -0.0484  1.2955
 8198TIP3   OH246084   1.638   6.175   4.967  0.1136 -0.0052 -0.8867
 8198TIP3    H146085   1.704   6.125   4.920  1.3651 -1.4821  2.1229
 8198TIP3    H246086   1.556   6.127   4.951  0.4778 -0.3942 -1.6077
 8199TIP3   OH246087   1.696   2.515  14.426 -0.3389 -0.3334  0.1474
 8199TIP3    H146088   1.688   2.520  14.521  0.7762  2.5212  0.1967
 8199TIP3    H246089   1.626   2.572  14.394 -0.2037 -0.6476 -0.7189
 8200TIP3   OH246090   0.957   6.375   0.790 -0.1639  0.6409 -0.1540
 8200TIP3    H146091   0.880   6.432   0.800  0.1181  1.1282 -0.7191
 8200TIP3    H246092   0.939   6.300   0.847 -2.3516 -0.6436 -2.3286
 8201TIP3   OH246093   2.869   4.989  13.804 -0.4339  0.4623 -0.0778
 8201TIP3    H146094   2.841   4.939  13.881  1.8081 -0.1140  0.4230
 8201TIP3    H246095   2.954   5.025  13.829  0.5217 -0.0243 -2.3969
 8202TIP3   OH246096   4.792   6.181   1.318 -0.1281 -0.4017  0.0723
 8202TIP3    H146097   4.861   6.201   1.381 -1.4316  0.0999  1.4137
 8202TIP3    H246098   4.757   6.266   1.293 -0.0065 -0.6303 -0.8959
 8203TIP3   OH246099   3.807   4.255   0.755 -0.3605  0.4400 -0.3461
 8203TIP3    H146100   3.803   4.210   0.670  0.4541 -0.9995  0.3310
 8203TIP3    H246101   3.896   4.239   0.786 -0.9216  0.1323  1.1958
 8204TIP3   OH246102   6.758   0.921   3.428  0.0535 -0.2566 -0.3971
 8204TIP3    H146103   6.852   0.921   3.441  0.2781  0.1614 -1.9003
 8204TIP3    H246104   6.744   0.866   3.351 -0.5059  2.8605 -2.7073
 8205TIP3   OH246105   1.157   1.510   6.220  0.4814 -0.1638  0.3084
 8205TIP3    H146106   1.210   1.443   6.264  1.5081 -0.1036 -0.7985
 8205TIP3    H246107   1.215   1.585   6.213  0.6501 -0.4443 -1.8840
 8206TIP3   OH246108   2.898   3.241   1.369  0.5250  0.3223 -0.3739
 8206TIP3    H146109   2.862   3.243   1.280 -1.4299 -0.5963  0.3477
 8206TIP3    H246110   2.901   3.149   1.392 -1.2533  0.6291  1.3396
 8207TIP3   OH246111   5.716   2.503   3.142 -0.1142  0.5103 -1.0834
 8207TIP3    H146112   5.648   2.439   3.164  0.0021  0.5565 -0.5940
 8207TIP3    H246113   5.781   2.495   3.211  0.2599  0.6443 -1.4159
 8208TIP3   OH246114   1.914   4.787  16.992  0.4417 -0.2178  0.2432
 8208TIP3    H146115   1.925   4.699  17.027  0.1687 -0.1966  0.3898
 8208TIP3    H246116   1.855   4.776  16.918  0.6633 -0.2015  0.0623
 8209TIP3   OH246117   2.987   0.383   3.172  0.4775 -0.5391 -0.4444
 8209TIP3    H146118   2.947   0.445   3.110 -0.8102 -0.5536  0.3284
 8209TIP3    H246119   2.935   0.393   3.252  1.5026 -1.2179  0.3246
 8210TIP3   OH246120   1.635   0.441  16.878  0.5174 -0.1250  0.4378
 8210TIP3    H146121   1.672   0.501  16.813  0.5156  0.3607  0.8799
 8210TIP3    H246122   1.711   0.391  16.910  0.5210 -0.3532  0.0789
 8211TIP3   OH246123   6.828   0.093   3.352 -0.5079  0.5220 -0.1208
 8211TIP3    H146124   6.896   0.029   3.333 -0.9312  0.2030 -0.5732
 8211TIP3    H246125   6.787   0.062   3.433 -0.6368  0.2877 -0.2774
 8212TIP3   OH246126   5.504   2.259  17.192  0.0020 -0.6953 -0.2124
 8212TIP3    H146127   5.518   2.306  17.274  0.4680 -0.2343 -0.5477
 8212TIP3    H246128   5.410   2.267  17.176 -0.1693 -1.1902  0.5074
 8213TIP3   OH246129   1.785   3.767   4.696  0.6416  0.1788 -0.0591
 8213TIP3    H146130   1.841   3.823   4.641 -0.2947  0.5145 -0.6905
 8213TIP3    H246131   1.742   3.708   4.634 -1.0498  1.0957  0.1743
 8214TIP3   OH246132   0.373   4.622  16.481 -0.4023 -0.2251 -0.1917
 8214TIP3    H146133   0.419   4.659  16.556 -0.7961 -0.2123  0.0462
 8214TIP3    H246134   0.284   4.607  16.512 -1.1189  1.5721 -1.1847
 8215TIP3   OH246135   2.598   3.853   2.792  0.8466 -0.3608 -0.3687
 8215TIP3    H146136   2.672   3.911   2.775  0.3287 -0.5936 -4.4018
 8215TIP3    H246137   2.618   3.773   2.744 -1.4790 -0.8649 -0.6469
 8216TIP3   OH246138   3.662   0.973   3.968 -0.1046  0.1449  0.3579
 8216TIP3    H146139   3.587   0.964   4.026 -1.6211  1.8022 -1.2197
 8216TIP3    H246140   3.674   0.885   3.931 -0.3597 -0.4590  1.6709
 8217TIP3   OH246141   2.575   0.499   3.601 -0.3709 -0.2599  0.4077
 8217TIP3    H146142   2.541   0.587   3.589  0.6413  0.1858  0.6861
 8217TIP3    H246143   2.552   0.453   3.521 -1.4456  0.0654  0.5120
 8218TIP3   OH246144   0.128   1.403  12.970  0.0727 -0.4489 -0.8115
 8218TIP3    H146145   0.149   1.389  12.878  0.8223 -1.1500 -0.5471
 8218TIP3    H246146   0.208   1.439  13.008  0.0636 -0.9903 -0.2600
 8219TIP3   OH246147   3.239   1.996  11.128  0.2362 -0.6978  0.3430
 8219TIP3    H146148   3.248   1.977  11.035  0.4162 -2.9378  0.7700
 8219TIP3    H246149   3.247   1.911  11.171 -1.2544  0.0882  2.3174
 8220TIP3   OH246150   3.809   2.606  12.537 -0.0911 -0.3184 -0.7301
 8220TIP3    H146151   3.818   2.674  12.471  0.6662 -0.8060 -1.1407
 8220TIP3    H246152   3.714   2.590  12.542 -0.2175  0.2689 -1.1266
 8221TIP3   OH246153   2.320   4.500   6.534 -0.2619 -0.4536  0.4013
 8221TIP3    H146154   2.332   4.408   6.513 -0.0636 -0.3345 -0.0166
 8221TIP3    H246155   2.407   4.531   6.559  0.1499  0.1385 -1.5576
 8222TIP3   OH246156   2.814   4.381   2.940  0.6042 -0.1493  0.6504
 8222TIP3    H146157   2.857   4.387   3.026  2.5626 -2.0376 -0.1249
 8222TIP3    H246158   2.721   4.396   2.959  0.6322 -2.5632  3.4620
 8223TIP3   OH246159   3.703   0.261  13.504  0.1673 -0.2144 -0.6983
 8223TIP3    H146160   3.609   0.258  13.489  0.0101 -1.5856  0.3015
 8223TIP3    H246161   3.742   0.264  13.417 -0.7831  2.4319 -1.1353
 8224TIP3   OH246162   4.968   3.947   2.797  0.0050  0.0506  0.8871
 8224TIP3    H146163   4.924   4.030   2.814 -0.4966 -0.3963  1.8863
 8224TIP3    H246164   5.061   3.966   2.809 -0.1670  0.2967  1.9596
 8225TIP3   OH246165   2.555   3.958   1.067  0.3139  0.3014  0.5544
 8225TIP3    H146166   2.514   3.915   0.993 -1.0063  1.4210  0.5997
 8225TIP3    H246167   2.614   4.022   1.028  0.2783  0.2818  0.4678
 8226TIP3   OH246168   5.382   3.090   1.614 -0.1257 -0.7293  0.2014
 8226TIP3    H146169   5.306   3.069   1.559  1.6283  0.2039 -2.8059
 8226TIP3    H246170   5.389   3.185   1.610  1.0063 -0.7796  0.6939
 8227TIP3   OH246171   1.799   5.931   3.983 -0.2774 -0.2829  0.0556
 8227TIP3    H146172   1.708   5.910   4.003 -1.4644  2.6272 -1.6363
 8227TIP3    H246173   1.834   5.964   4.066 -1.2343 -0.0558  0.3853
 8228TIP3   OH246174   3.213   1.403   4.258  0.7538  1.0393 -0.2355
 8228TIP3    H146175   3.284   1.339   4.250  1.0968  1.3480  0.2707
 8228TIP3    H246176   3.134   1.350   4.267  1.1393  0.6525  1.1625
 8229TIP3   OH246177   2.597   2.879   1.024  0.2826  0.2545  0.2722
 8229TIP3    H146178   2.584   2.905   0.932  1.1454 -0.1060  0.0364
 8229TIP3    H246179   2.519   2.826   1.045 -0.4470  1.2328  0.0968
 8230TIP3   OH246180   2.902   6.362   0.188  0.6950 -0.5508 -0.5584
 8230TIP3    H146181   2.829   6.331   0.242  0.4336  1.0997  0.0994
 8230TIP3    H246182   2.887   6.321   0.103 -0.0752 -1.5287  0.0224
 8231TIP3   OH246183   0.494   0.551   0.410  0.0448  0.5933 -0.4251
 8231TIP3    H146184   0.539   0.501   0.479  0.7362  1.4772 -0.2138
 8231TIP3    H246185   0.542   0.530   0.330 -0.0879  0.4014 -0.4555
 8232TIP3   OH246186   1.601   0.159   4.300 -0.1535 -0.1226 -0.0263
 8232TIP3    H146187   1.687   0.118   4.305  0.7456  1.7885  1.2633
 8232TIP3    H246188   1.558   0.136   4.382  0.3278  1.3592  0.6718
 8233TIP3   OH246189   4.494   2.382  11.463  0.5770  0.0806  0.3689
 8233TIP3    H146190   4.522   2.301  11.506 -1.6355 -0.3574  1.1438
 8233TIP3    H246191   4.431   2.353  11.397 -0.6710  1.1728  1.0342
 8234TIP3   OH246192   4.951   4.717   0.030 -0.6392  0.2016 -0.1241
 8234TIP3    H146193   4.902   4.712   0.112  1.5656 -0.3506  1.2774
 8234TIP3    H246194   4.985   4.628   0.018  2.1166  1.0760  0.4565
 8235TIP3   OH246195   6.708   0.847   4.708  0.6440  0.0953  0.3798
 8235TIP3    H146196   6.708   0.781   4.777 -0.6729 -0.9350 -0.5559
 8235TIP3    H246197   6.800   0.855   4.682  1.0145 -0.2475  1.5304
 8236TIP3   OH246198   1.930   2.245   4.252  0.4103  0.6750 -0.3631
 8236TIP3    H146199   2.022   2.252   4.277  0.8590  0.0261 -1.7190
 8236TIP3    H246200   1.922   2.158   4.212 -0.8085  0.6992 -0.2352
 8237TIP3   OH246201   6.700   5.151   4.688  0.4371 -0.3412 -0.6320
 8237TIP3    H146202   6.683   5.211   4.761 -3.0340  0.1316 -1.6419
 8237TIP3    H246203   6.743   5.075   4.728  0.3134  0.6707  1.5437
 8238TIP3   OH246204   2.145   6.685   1.750  0.0375 -0.3700  0.0147
 8238TIP3    H146205   2.234   6.650   1.757  1.0350  2.0316  0.4260
 8238TIP3    H246206   2.158   6.777   1.723 -2.3243  0.0130  0.0115
 8239TIP3   OH246207   5.218   0.925   1.926  0.0732  0.3437  0.2257
 8239TIP3    H146208   5.261   0.956   2.006 -1.0041 -1.0971  1.4261
 8239TIP3    H246209   5.280   0.861   1.889  0.1675  0.3169  0.4267
 8240TIP3   OH246210   0.618   2.780   4.455 -0.3372 -0.2896  0.0535
 8240TIP3    H146211   0.703   2.816   4.482  0.3163 -2.4815  1.1502
 8240TIP3    H246212   0.553   2.839   4.494  0.6587 -0.9849  3.0117
 8241TIP3   OH246213   1.100   1.063  17.053  0.4942  0.1155 -0.4700
 8241TIP3    H146214   1.099   1.113  17.134  1.1778  1.1142 -1.0537
 8241TIP3    H246215   1.173   1.099  17.003 -0.4997  0.2031 -1.9415
 8242TIP3   OH246216   2.661   6.295   0.330 -0.5282  0.3401  0.1889
 8242TIP3    H146217   2.648   6.207   0.364 -1.9318  0.5792  0.3365
 8242TIP3    H246218   2.591   6.306   0.266 -0.5678  1.4715  0.4131
 8243TIP3   OH246219   0.855   1.664   0.547 -0.2091 -0.4699 -0.2166
 8243TIP3    H146220   0.881   1.734   0.486 -2.0506  2.0772  1.7018
 8243TIP3    H246221   0.814   1.598   0.491  0.5567  0.5046 -2.0207
 8244TIP3   OH246222   0.678   3.516  14.940 -0.0943 -0.0994  0.5576
 8244TIP3    H146223   0.713   3.430  14.918 -0.4701  0.1784 -1.3461
 8244TIP3    H246224   0.583   3.503  14.943 -0.1505  0.2446  0.2748
 8245TIP3   OH246225   5.676   0.150  11.265 -0.6536 -0.4569  0.1978
 8245TIP3    H146226   5.642   0.193  11.186  2.2214 -0.1731 -1.0239
 8245TIP3    H246227   5.685   0.058  11.239  1.9102 -0.0859 -0.5421
 8246TIP3   OH246228   6.326   4.198   6.706  0.3377  0.3048 -0.0392
 8246TIP3    H146229   6.359   4.111   6.727  1.0054  0.4429 -0.4453
 8246TIP3    H246230   6.404   4.254   6.709 -0.1154  0.9191  0.3914
 8247TIP3   OH246231   1.210   5.514   5.164 -0.0374  0.5666  0.2373
 8247TIP3    H146232   1.246   5.426   5.165 -1.9810 -0.3454 -1.4578
 8247TIP3    H246233   1.197   5.536   5.256  3.6773  0.5925  0.8983
 8248TIP3   OH246234   3.678   4.168  14.687  0.6491  0.5364 -0.0866
 8248TIP3    H146235   3.716   4.092  14.730  0.3448  1.4227  1.8740
 8248TIP3    H246236   3.725   4.243  14.724  0.0246  1.3817 -0.9546
 8249TIP3   OH246237   5.698   0.756   5.381 -0.4643 -0.4510 -0.1357
 8249TIP3    H146238   5.628   0.805   5.337 -0.6697 -2.4099 -2.1494
 8249TIP3    H246239   5.776   0.774   5.328 -0.1477 -0.8357  0.1959
 8250TIP3   OH246240   4.586   6.025  13.165  0.2846 -0.2388  0.0403
 8250TIP3    H146241   4.633   6.065  13.238 -0.1177 -0.2299  0.2980
 8250TIP3    H246242   4.516   6.088  13.144 -0.0789 -0.5973  0.1573
 8251TIP3   OH246243   5.142   2.723  14.491  0.0951 -0.5872  0.0317
 8251TIP3    H146244   5.182   2.800  14.450  0.2915 -0.8452 -0.2661
 8251TIP3    H246245   5.171   2.649  14.437 -2.5653 -0.5885 -1.5998
 8252TIP3   OH246246   1.706   6.593   2.930 -0.0522  0.0247  0.1721
 8252TIP3    H146247   1.699   6.590   2.835 -0.0395  0.6400  0.1448
 8252TIP3    H246248   1.647   6.663   2.956  1.1908  1.0027  0.4695
 8253TIP3   OH246249   1.439   4.784  13.672 -0.4072  0.3593  0.2715
 8253TIP3    H146250   1.351   4.793  13.708 -0.7782 -1.4162 -0.0904
 8253TIP3    H246251   1.480   4.869  13.688 -1.4675  0.5595  2.3686
 8254TIP3   OH246252   5.802   3.356  12.698  0.3670 -0.1508 -0.3545
 8254TIP3    H146253   5.848   3.433  12.665 -1.1403  1.2606  0.6198
 8254TIP3    H246254   5.854   3.326  12.773 -0.0233  1.1722  0.4819
 8255TIP3   OH246255   1.256   5.750  15.600  0.0810 -0.3554  0.3258
 8255TIP3    H146256   1.309   5.807  15.655 -1.1368 -0.0376  1.2106
 8255TIP3    H246257   1.314   5.677  15.577  0.9473  0.0756  1.0898
 8256TIP3   OH246258   1.264   5.570  12.861 -0.0121  0.2103 -0.6840
 8256TIP3    H146259   1.284   5.529  12.945  1.3513 -1.0125 -1.5615
 8256TIP3    H246260   1.278   5.663  12.876 -0.6691  0.1190  0.6716
 8257TIP3   OH246261   1.272   0.187  10.701 -0.6858 -0.3404  0.2871
 8257TIP3    H146262   1.236   0.101  10.683 -0.8597 -0.2078 -0.0034
 8257TIP3    H246263   1.202   0.233  10.747 -0.6089 -0.3408  0.4043
 8258TIP3   OH246264   4.947   5.208   0.754  0.1196  0.3596 -0.0509
 8258TIP3    H146265   5.028   5.235   0.797 -0.2372 -0.7719  1.4054
 8258TIP3    H246266   4.885   5.195   0.825 -1.2511  0.8373 -1.1222
 8259TIP3   OH246267   3.089   2.169  13.647  0.0859 -0.0251 -0.4007
 8259TIP3    H146268   3.141   2.249  13.655  0.2121 -0.1262 -0.2009
 8259TIP3    H246269   3.149   2.106  13.607 -0.4884  0.4279 -2.0710
 8260TIP3   OH246270   5.471   5.861  13.479  0.0793 -0.5157  0.3852
 8260TIP3    H146271   5.411   5.911  13.423 -0.2070 -0.9278  0.3198
 8260TIP3    H246272   5.416   5.793  13.518  0.3720 -0.5074  0.8210
 8261TIP3   OH246273   4.544   0.742  15.988 -0.0788  0.5854  0.2002
 8261TIP3    H146274   4.578   0.825  16.020 -1.7651  0.7576  1.7011
 8261TIP3    H246275   4.533   0.688  16.067 -0.2345 -0.5917 -0.5933
 8262TIP3   OH246276   6.677   2.204  11.826 -0.8201 -0.1117  0.5959
 8262TIP3    H146277   6.615   2.274  11.806 -1.4576 -0.8433 -0.0201
 8262TIP3    H246278   6.694   2.213  11.920 -2.8651 -0.7211  1.0543
 8263TIP3   OH246279   2.577   4.952   3.176  0.5030  0.8825  0.0199
 8263TIP3    H146280   2.518   5.009   3.226 -0.2731  0.3561 -0.2723
 8263TIP3    H246281   2.647   4.932   3.237  1.1326  2.6373 -0.0557
 8264TIP3   OH246282   4.740   0.447   3.748  0.1744  0.1705  0.3000
 8264TIP3    H146283   4.694   0.366   3.730  0.4390  0.5096 -2.1574
 8264TIP3    H246284   4.692   0.486   3.821  0.0571 -2.1422  1.5617
 8265TIP3   OH246285   3.551   5.634  12.201  0.0568  0.1652 -0.1486
 8265TIP3    H146286   3.508   5.700  12.256  0.8129 -0.2478  0.9745
 8265TIP3    H246287   3.489   5.561  12.198 -0.1389  0.3303 -0.1328
 8266TIP3   OH246288   3.742   1.643   2.753 -0.1583 -0.2318  0.4000
 8266TIP3    H146289   3.695   1.657   2.835 -2.6738 -2.8570 -0.3937
 8266TIP3    H246290   3.804   1.573   2.773  2.3664  2.0234  0.9944
 8267TIP3   OH246291   1.885   4.178   1.553 -0.2701 -0.0589 -0.0755
 8267TIP3    H146292   1.937   4.244   1.597  1.6249 -0.1709 -1.9905
 8267TIP3    H246293   1.918   4.094   1.586 -0.2954 -0.1091 -0.1763
 8268TIP3   OH246294   3.213   1.002   0.263 -0.5885 -0.5554  0.1644
 8268TIP3    H146295   3.160   1.059   0.208 -1.0431 -0.1251  1.0284
 8268TIP3    H246296   3.296   0.993   0.216 -0.6332  0.5446 -0.1482
 8269TIP3   OH246297   2.549   6.234   5.976  0.4303  0.4285  0.6888
 8269TIP3    H146298   2.557   6.245   6.071 -1.3722  2.5261  0.6858
 8269TIP3    H246299   2.573   6.320   5.940  0.7894 -0.2428 -0.7443
 8270TIP3   OH246300   6.744   1.781   3.582 -0.5246 -0.5489  0.2847
 8270TIP3    H146301   6.700   1.824   3.509 -0.4520  0.9870  1.0885
 8270TIP3    H246302   6.782   1.853   3.633 -0.7651 -1.5320  1.9512
 8271TIP3   OH246303   4.659   4.813   1.877  0.1123  0.0059 -0.6101
 8271TIP3    H146304   4.571   4.850   1.867  0.4542  0.4808 -2.1803
 8271TIP3    H246305   4.671   4.758   1.800  1.4137  0.4525 -0.7581
 8272TIP3   OH246306   1.701   4.508  15.005  0.3756 -0.1986  0.0879
 8272TIP3    H146307   1.718   4.521  15.099  0.9120  1.4170 -0.1977
 8272TIP3    H246308   1.780   4.466  14.972 -0.0066 -1.2120  0.4319
 8273TIP3   OH246309   0.092   3.298  13.826  0.2904 -0.1988  0.1281
 8273TIP3    H146310   0.149   3.245  13.882 -0.1044 -0.4522  0.2949
 8273TIP3    H246311   0.129   3.386  13.829  0.7318 -0.3853  0.1514
 8274TIP3   OH246312   4.921   4.356   0.354 -0.1300  0.0967  0.0052
 8274TIP3    H146313   4.906   4.424   0.420 -3.2039 -0.7801  0.3763
 8274TIP3    H246314   4.973   4.290   0.398 -0.9353  0.1894  1.1409
 8275TIP3   OH246315   5.935   5.105  15.212  0.5212 -0.2628 -0.2554
 8275TIP3    H146316   5.914   5.165  15.283 -1.0867 -1.3335  0.2298
 8275TIP3    H246317   5.905   5.149  15.132  0.1084 -0.0700  0.0030
 8276TIP3   OH246318   2.200   4.588   4.602 -0.3279 -0.9459 -0.4330
 8276TIP3    H146319   2.125   4.632   4.642  1.2634 -1.5852  3.6773
 8276TIP3    H246320   2.247   4.658   4.556 -0.8997  0.4636  1.0484
 8277TIP3   OH246321   0.152   1.533  14.941  0.1139  0.1575 -0.7382
 8277TIP3    H146322   0.219   1.572  14.998  0.0175  1.6556 -1.6047
 8277TIP3    H246323   0.076   1.522  14.998  0.5379  0.0545 -0.1731
 8278TIP3   OH246324   2.484   5.789   1.403  0.3060  0.2309  0.0185
 8278TIP3    H146325   2.438   5.705   1.409  0.4315  0.1913  0.4884
 8278TIP3    H246326   2.577   5.765   1.409  0.3421  0.4015  0.1375
 8279TIP3   OH246327   1.414   1.096  10.867 -0.1959  0.2465 -0.4430
 8279TIP3    H146328   1.416   1.071  10.775 -1.3816 -1.4292 -0.0703
 8279TIP3    H246329   1.330   1.141  10.877 -0.6675 -0.7181  0.0582
 8280TIP3   OH246330   2.836   3.211   4.726 -0.0733 -0.1143 -0.3405
 8280TIP3    H146331   2.862   3.128   4.766  0.7153  0.0608 -0.4810
 8280TIP3    H246332   2.860   3.277   4.789 -2.0751 -0.0583  0.4499
 8281TIP3   OH246333   2.021   6.835   0.091 -0.0403  0.2519  0.5162
 8281TIP3    H146334   2.011   6.836  -0.004 -0.3772  0.0819  0.5456
 8281TIP3    H246335   1.931   6.835   0.124  0.0766  0.4483  0.8360
 8282TIP3   OH246336   4.862   0.950   0.667  0.5121  0.1049 -0.5380
 8282TIP3    H146337   4.903   0.916   0.587 -0.4164 -1.1754 -0.4837
 8282TIP3    H246338   4.831   1.038   0.642  1.5066  0.3019 -1.1457
 8283TIP3   OH246339   4.940   6.532  14.616  0.0134  0.1792  0.6292
 8283TIP3    H146340   4.869   6.564  14.561  0.0453 -0.4528  0.2189
 8283TIP3    H246341   4.908   6.542  14.706 -0.3953  0.3515  0.4637
 8284TIP3   OH246342   2.206   6.009   3.713  0.3367 -0.0242  0.0446
 8284TIP3    H146343   2.276   6.017   3.648 -0.0208  0.7597 -0.2609
 8284TIP3    H246344   2.229   6.071   3.782 -0.1715  0.4230 -0.1760
 8285TIP3   OH246345   2.264   1.698   3.650  0.7086  0.2541 -0.2509
 8285TIP3    H146346   2.268   1.682   3.555  0.4065  1.5792 -0.5040
 8285TIP3    H246347   2.340   1.753   3.668  1.3390 -0.8259  0.4686
 8286TIP3   OH246348   0.289   4.906  15.088 -0.0038  0.1889  0.2912
 8286TIP3    H146349   0.298   4.832  15.027 -0.0875 -1.8761  2.6389
 8286TIP3    H246350   0.379   4.936  15.102  0.3688 -1.3436  1.4334
 8287TIP3   OH246351   0.426   0.680   6.047  0.4478  0.7444  0.2834
 8287TIP3    H146352   0.430   0.733   6.126  1.2052  0.9656  0.1043
 8287TIP3    H246353   0.340   0.699   6.010  0.4644  1.3671  0.5526
 8288TIP3   OH246354   4.066   5.136   0.570  0.8518 -0.1004  0.2263
 8288TIP3    H146355   4.063   5.042   0.587 -0.6033  0.1907  1.8954
 8288TIP3    H246356   3.980   5.156   0.534  1.3063  0.5370 -0.5281
 8289TIP3   OH246357   4.750   5.828   4.643  0.0456  0.1516 -0.1936
 8289TIP3    H146358   4.756   5.768   4.568 -0.0344 -0.0460 -0.0411
 8289TIP3    H246359   4.840   5.836   4.674  0.4017  1.6896 -1.4460
 8290TIP3   OH246360   4.820   5.903  15.511  0.0978  0.0708 -0.1945
 8290TIP3    H146361   4.908   5.877  15.539 -0.3675  0.6116  1.9591
 8290TIP3    H246362   4.761   5.847  15.562 -0.8493 -0.3770 -1.7000
 8291TIP3   OH246363   4.606   4.522   0.455  0.1767 -0.5057  0.3872
 8291TIP3    H146364   4.642   4.510   0.544  1.3365 -0.1850 -0.0171
 8291TIP3    H246365   4.564   4.608   0.458  1.1188 -0.0220  0.3653
 8292TIP3   OH246366   3.682   3.649  14.720 -0.6228  0.6018  0.1130
 8292TIP3    H146367   3.717   3.578  14.773 -0.8648  0.9433  0.7357
 8292TIP3    H246368   3.666   3.609  14.634  2.1700  0.6580 -0.5047
 8293TIP3   OH246369   0.696   6.000   5.393 -0.2354 -0.4838 -0.3961
 8293TIP3    H146370   0.684   6.047   5.476  1.3172 -1.7437  0.6070
 8293TIP3    H246371   0.685   5.908   5.416  0.5031 -0.8745 -1.5285
 8294TIP3   OH246372   6.035   4.673   2.149  0.1666 -0.4830 -0.3072
 8294TIP3    H146373   5.999   4.684   2.061 -3.4045  1.6607  1.2135
 8294TIP3    H246374   6.090   4.750   2.162  0.5584 -0.7128 -0.5938
 8295TIP3   OH246375   0.674   2.811  11.756  0.4528 -0.4603 -0.1970
 8295TIP3    H146376   0.601   2.870  11.742  0.5948 -0.1600  0.3082
 8295TIP3    H246377   0.726   2.818  11.676  0.6916  0.4208  0.0284
 8296TIP3   OH246378   3.294   5.872   3.384 -0.0616  0.4568 -0.2975
 8296TIP3    H146379   3.219   5.815   3.363 -0.8992  1.3985  0.0378
 8296TIP3    H246380   3.254   5.954   3.414  1.1155  1.0045 -0.1640
 8297TIP3   OH246381   1.009   3.990   0.967  0.3924 -0.1050 -0.2564
 8297TIP3    H146382   0.919   3.984   0.935  0.5588  1.5029 -1.1130
 8297TIP3    H246383   1.025   4.083   0.979  1.9974 -0.3389 -0.2755
 8298TIP3   OH246384   1.178   2.757  13.329 -0.2259  0.0190  0.3825
 8298TIP3    H146385   1.219   2.683  13.285 -1.0626 -0.7364  0.8241
 8298TIP3    H246386   1.115   2.717  13.389 -0.1601  1.0646  1.1880
 8299TIP3   OH246387   3.554   3.736  15.542 -0.5735 -0.0392 -0.3554
 8299TIP3    H146388   3.559   3.827  15.570 -0.1213 -0.1720  0.0101
 8299TIP3    H246389   3.611   3.731  15.465 -0.0436 -0.1525  0.0302
 8300TIP3   OH246390   0.222   1.553  13.610  0.1537 -0.0586  0.0788
 8300TIP3    H146391   0.173   1.471  13.609 -0.3348  0.1216  2.9574
 8300TIP3    H246392   0.166   1.615  13.564 -0.4568 -0.8103 -0.2167
 8301TIP3   OH246393   3.481   5.524  14.920 -0.1925  0.1055 -0.1781
 8301TIP3    H146394   3.510   5.497  14.833  0.5250  0.2262  0.0150
 8301TIP3    H246395   3.554   5.575  14.955  0.2472 -1.3637  1.1546
 8302TIP3   OH246396   0.673   3.586  10.243  0.1604  0.2118  0.0802
 8302TIP3    H146397   0.656   3.624  10.330 -1.6805  1.8996 -0.9157
 8302TIP3    H246398   0.602   3.523  10.231  0.4759 -0.0968 -0.1468
 8303TIP3   OH246399   3.652   5.235   5.921  0.0133  0.0678 -0.4779
 8303TIP3    H146400   3.736   5.260   5.958  0.1359  1.0309 -1.3748
 8303TIP3    H246401   3.637   5.146   5.953  0.5152  0.5359  1.1423
 8304TIP3   OH246402   0.383   2.048  14.122  0.1225  0.6053 -0.0279
 8304TIP3    H146403   0.472   2.015  14.109  0.3951  1.5122 -0.5247
 8304TIP3    H246404   0.371   2.114  14.054 -0.0114  2.3191  1.5690
 8305TIP3   OH246405   0.672   3.047   6.061  0.1568  0.2241 -0.2077
 8305TIP3    H146406   0.629   3.009   6.137  0.9016 -0.9301 -0.3371
 8305TIP3    H246407   0.757   3.076   6.094 -0.0530  0.9767 -0.3107
 8306TIP3   OH246408   3.098   0.308  10.359  0.3489 -0.1838 -0.3368
 8306TIP3    H146409   3.066   0.359  10.433 -1.3066  0.0125 -1.1249
 8306TIP3    H246410   3.110   0.373  10.289  2.6433 -0.2418 -0.0787
 8307TIP3   OH246411   0.520   2.838   2.741 -0.0050  0.6661 -0.2670
 8307TIP3    H146412   0.470   2.775   2.690 -0.6661  1.0285 -0.0732
 8307TIP3    H246413   0.468   2.851   2.821 -0.2391  1.9886 -0.6089
 8308TIP3   OH246414   2.543   0.057  14.691  0.6900 -0.4365 -1.0878
 8308TIP3    H146415   2.448   0.053  14.686  0.3442 -0.6535  2.6521
 8308TIP3    H246416   2.566   0.141  14.651 -1.0934 -0.2186 -1.7273
 8309TIP3   OH246417   6.334   6.634   2.185  0.2625 -0.2228  0.3921
 8309TIP3    H146418   6.332   6.593   2.099  0.6455 -0.4857  0.5067
 8309TIP3    H246419   6.382   6.715   2.171 -0.7348  0.3426  0.1074
 8310TIP3   OH246420   2.406   1.642   4.969  0.0168  0.1338 -0.4433
 8310TIP3    H146421   2.350   1.588   5.025 -0.6469  0.4819 -0.7542
 8310TIP3    H246422   2.363   1.640   4.884 -0.0471  1.1800 -0.4506
 8311TIP3   OH246423   1.060   6.278   3.785 -0.2067  0.0808 -0.2031
 8311TIP3    H146424   1.105   6.361   3.775  0.1135  0.1597  1.5398
 8311TIP3    H246425   1.023   6.281   3.874  0.0941 -1.7360  0.0328
 8312TIP3   OH246426   4.829   3.358   3.301  0.1770  0.4565  0.6171
 8312TIP3    H146427   4.890   3.420   3.259  0.4943  1.0051  1.8220
 8312TIP3    H246428   4.882   3.316   3.369 -0.5367  0.1976  1.0131
 8313TIP3   OH246429   4.466   0.092  13.950  0.4245  0.3434  0.3369
 8313TIP3    H146430   4.427   0.026  13.893  1.5872 -0.6861  0.6765
 8313TIP3    H246431   4.399   0.107  14.017  0.4696 -1.2134  0.7814
 8314TIP3   OH246432   0.931   2.160  14.964  0.5511 -0.0587  0.0575
 8314TIP3    H146433   0.976   2.104  14.900  0.3744  1.9199 -1.9102
 8314TIP3    H246434   0.968   2.247  14.951  0.3866  0.4763  2.6093
 8315TIP3   OH246435   2.095   0.997   5.717 -0.0531 -0.1145  0.0225
 8315TIP3    H146436   2.040   1.076   5.716 -0.9689 -0.7263 -1.5421
 8315TIP3    H246437   2.075   0.955   5.801 -1.3789  0.0969 -0.1624
 8316TIP3   OH246438   5.754   1.547  14.519 -0.5651 -0.1143  0.2527
 8316TIP3    H146439   5.789   1.462  14.493  1.4603 -0.1392  2.5930
 8316TIP3    H246440   5.665   1.529  14.549 -0.7973 -1.0604 -0.9516
 8317TIP3   OH246441   3.571   0.045  12.585  0.0440 -0.0226  0.1547
 8317TIP3    H146442   3.530   0.115  12.635 -0.1331  0.3755 -0.5389
 8317TIP3    H246443   3.644   0.016  12.640 -1.8834 -1.6506  2.0333
 8318TIP3   OH246444   5.594   6.758   3.183 -0.1943 -0.0259  0.3661
 8318TIP3    H146445   5.523   6.723   3.238  0.1839 -0.5204  0.5494
 8318TIP3    H246446   5.654   6.684   3.173  0.7789  0.6624  1.0013
 8319TIP3   OH246447   3.360   0.495   3.967  0.1982 -0.0004  0.2594
 8319TIP3    H146448   3.291   0.428   3.971  2.0226 -1.9830  0.9087
 8319TIP3    H246449   3.424   0.459   3.906  1.1274  1.3101  0.4227
 8320TIP3   OH246450   4.801   3.858   3.685 -0.4502 -0.0936 -0.0122
 8320TIP3    H146451   4.736   3.791   3.703  0.3294 -0.9635 -0.3419
 8320TIP3    H246452   4.867   3.814   3.630  1.0130  0.4060  1.2591
 8321TIP3   OH246453   4.036   0.410  14.578 -0.0091 -0.3651 -0.0260
 8321TIP3    H146454   4.040   0.349  14.504 -0.1555 -2.3594  1.5334
 8321TIP3    H246455   4.102   0.378  14.639 -1.6305 -0.3626  1.8308
 8322TIP3   OH246456   2.382   4.858  15.892  0.0449 -0.0362  0.0992
 8322TIP3    H146457   2.362   4.808  15.971 -2.1796  1.9590  0.9128
 8322TIP3    H246458   2.419   4.940  15.924 -3.6672  2.1018 -0.5828
 8323TIP3   OH246459   0.869   0.027  13.489 -0.1154 -0.1566  0.8011
 8323TIP3    H146460   0.815  -0.041  13.447 -0.8228 -0.3463  1.9542
 8323TIP3    H246461   0.958  -0.009  13.488 -0.2602 -0.5054  0.1847
 8324TIP3   OH246462   2.819   1.444  15.887  0.0328  0.5069 -0.2312
 8324TIP3    H146463   2.826   1.352  15.910 -0.0238 -0.1482 -2.5970
 8324TIP3    H246464   2.726   1.464  15.898  0.2195  0.6149  1.3249
 8325TIP3   OH246465   6.553   5.634   0.018  0.6185  0.0242  0.3424
 8325TIP3    H146466   6.638   5.657  -0.018  0.5561 -1.2544 -0.6910
 8325TIP3    H246467   6.509   5.719   0.031  1.3633  0.6232 -0.8406
 8326TIP3   OH246468   5.341   4.978  11.019 -0.5298 -0.3060  0.0151
 8326TIP3    H146469   5.434   4.975  10.994 -0.0259  1.0073  1.5129
 8326TIP3    H246470   5.307   4.891  10.998  0.9491 -0.6829 -0.9268
 8327TIP3   OH246471   3.366   0.682   5.353  0.1230  0.2986  0.0943
 8327TIP3    H146472   3.394   0.621   5.285 -1.6451 -0.0731 -0.3285
 8327TIP3    H246473   3.448   0.717   5.388  1.2208 -2.4978  0.5572
 8328TIP3   OH246474   2.213   2.144  11.299  0.0171  0.0715  0.2822
 8328TIP3    H146475   2.127   2.187  11.306  0.3951  0.6694  1.4069
 8328TIP3    H246476   2.276   2.214  11.317  0.7579 -0.3356 -0.6840
 8329TIP3   OH246477   3.624   2.373  13.826  0.6402 -0.4624 -0.1944
 8329TIP3    H146478   3.560   2.317  13.782  0.0774 -1.0781  1.3051
 8329TIP3    H246479   3.708   2.351  13.785  0.4675 -2.6013  0.4440
 8330TIP3   OH246480   1.696   5.516   4.588 -0.2684 -0.4825  0.5675
 8330TIP3    H146481   1.786   5.483   4.581  0.2990  1.1947 -0.5442
 8330TIP3    H246482   1.704   5.597   4.637 -0.9786  0.3301 -0.6156
 8331TIP3   OH246483   1.601   6.530  12.056 -0.0101 -0.2620  0.4610
 8331TIP3    H146484   1.589   6.503  12.147  2.2718 -1.0807  0.6043
 8331TIP3    H246485   1.581   6.623  12.055 -2.7416 -0.7439  1.1549
 8332TIP3   OH246486   5.345   4.089   0.909  0.5776  0.0709  0.1536
 8332TIP3    H146487   5.254   4.098   0.937  0.7032  3.2573 -0.1326
 8332TIP3    H246488   5.360   4.163   0.850  4.2219  1.6983  2.7424
 8333TIP3   OH246489   6.223   1.159   0.811  0.2774  0.3647  0.1710
 8333TIP3    H146490   6.187   1.096   0.748  0.0380  2.0042 -1.4288
 8333TIP3    H246491   6.154   1.170   0.877 -0.2749  0.0369 -0.3388
 8334TIP3   OH246492   1.553   1.979   0.404  0.4483  0.2221  0.4516
 8334TIP3    H146493   1.540   1.889   0.374  1.0399  0.0316  0.7525
 8334TIP3    H246494   1.618   1.972   0.474 -0.3795  0.7462  1.2885
 8335TIP3   OH246495   0.280   6.371   1.515 -0.2832 -0.0063  0.1754
 8335TIP3    H146496   0.286   6.305   1.584  1.2959 -2.0844 -1.8222
 8335TIP3    H246497   0.305   6.453   1.559  0.2105 -1.1402  2.1657
 8336TIP3   OH246498   3.608   0.099   0.406 -0.4099  0.2879 -0.1353
 8336TIP3    H146499   3.631   0.039   0.334 -1.6956  0.0499 -0.3713
 8336TIP3    H246500   3.667   0.074   0.478 -1.0284 -1.3828 -0.1714
 8337TIP3   OH246501   4.582   0.259   5.379 -0.3939 -0.0034 -0.3538
 8337TIP3    H146502   4.640   0.329   5.409  1.7444 -1.7723 -0.1406
 8337TIP3    H246503   4.611   0.181   5.426 -4.1436 -0.7365  1.1741
 8338TIP3   OH246504   0.319   2.396  12.959 -0.3982 -0.0142 -0.2899
 8338TIP3    H146505   0.378   2.323  12.977 -0.2121  0.4899  1.3673
 8338TIP3    H246506   0.349   2.465  13.018 -0.5413  1.4440 -1.8406
 8339TIP3   OH246507   5.255   5.241   0.779  0.2017  0.4872 -0.3961
 8339TIP3    H146508   5.349   5.226   0.792 -0.2569 -1.1464  1.4021
 8339TIP3    H246509   5.241   5.220   0.687  1.1537 -2.0149 -0.0370
 8340TIP3   OH246510   2.629   0.907   5.718 -0.9596  0.0631  0.1010
 8340TIP3    H146511   2.654   0.872   5.804  0.7744  1.0187  0.0405
 8340TIP3    H246512   2.556   0.853   5.690 -0.7159 -1.1147  1.6076
 8341TIP3   OH246513   4.589   5.502  15.703 -0.4287  0.2845 -0.1643
 8341TIP3    H146514   4.570   5.595  15.692 -1.7577 -0.0720 -0.9974
 8341TIP3    H246515   4.615   5.472  15.616  0.5432 -0.0205  0.2152
 8342TIP3   OH246516   3.031   4.477   1.518 -0.7342  0.2311 -0.7742
 8342TIP3    H146517   3.091   4.452   1.448  1.8029  0.5867  1.1209
 8342TIP3    H246518   3.039   4.406   1.582 -1.9664  0.5700 -0.2227
 8343TIP3   OH246519   5.417   6.404  13.929 -0.7325  0.3469 -0.0452
 8343TIP3    H146520   5.382   6.471  13.988  1.5833  0.2147  1.6279
 8343TIP3    H246521   5.440   6.451  13.849 -0.3104  1.3333  0.6337
 8344TIP3   OH246522   4.713   4.512   0.878 -0.6733  0.5329  0.3216
 8344TIP3    H146523   4.694   4.457   0.803  0.2937 -0.9207  1.0970
 8344TIP3    H246524   4.751   4.592   0.841 -1.7133  0.5299 -0.7900
 8345TIP3   OH246525   3.964   5.164   3.849 -0.0171 -0.8547  0.1378
 8345TIP3    H146526   3.902   5.093   3.830  0.6617 -1.4195  0.0166
 8345TIP3    H246527   3.968   5.214   3.768 -0.3592 -0.7803  0.1636
 8346TIP3   OH246528   4.072   1.458   5.964  0.1320 -0.0501  0.2923
 8346TIP3    H146529   4.145   1.463   6.025  1.0103 -1.6076 -0.5890
 8346TIP3    H246530   4.027   1.543   5.974  2.6655  1.4170  0.0791
 8347TIP3   OH246531   4.056   2.361   6.120  0.4798  0.0610 -0.0893
 8347TIP3    H146532   4.126   2.340   6.058 -0.6735  0.2748 -1.5347
 8347TIP3    H246533   4.055   2.457   6.124  2.8330  0.1040  3.0616
 8348TIP3   OH246534   5.465   6.058  16.888 -0.0352  0.2933 -0.0110
 8348TIP3    H146535   5.506   6.069  16.802 -1.1255 -1.9073 -0.8903
 8348TIP3    H246536   5.373   6.078  16.873  0.0053  1.4130  1.0575
 8349TIP3   OH246537   1.797   2.917  13.986 -0.0402 -0.1423  0.1720
 8349TIP3    H146538   1.714   2.877  14.013  0.2148 -1.0358 -0.3721
 8349TIP3    H246539   1.846   2.925  14.068 -0.2205 -0.6354  0.3333
 8350TIP3   OH246540   2.212   5.947   2.152  0.3686 -0.1135 -0.2596
 8350TIP3    H146541   2.270   6.008   2.197  0.8142  0.3410 -1.4138
 8350TIP3    H246542   2.193   5.990   2.068  0.4401 -1.4092 -0.9604
 8351TIP3   OH246543   1.662   3.152  16.084 -0.3165  0.3360  0.0499
 8351TIP3    H146544   1.735   3.132  16.142 -1.6805  0.7678  2.0517
 8351TIP3    H246545   1.639   3.068  16.044 -0.9119 -0.5706  2.1500
 8352TIP3   OH246546   4.618   2.161   0.135 -0.2694  0.1816 -0.1089
 8352TIP3    H146547   4.602   2.213   0.057 -0.5960 -2.1865 -1.7276
 8352TIP3    H246548   4.556   2.194   0.200  0.2692  2.4521 -0.6675
 8353TIP3   OH246549   0.547   1.829  13.845  0.3300  0.1325 -0.5567
 8353TIP3    H146550   0.464   1.782  13.853 -0.2901  1.2885  0.2029
 8353TIP3    H246551   0.556   1.847  13.752 -0.2210 -0.0902 -0.6548
 8354TIP3   OH246552   5.415   3.658  12.671 -0.3969 -0.1312 -0.1614
 8354TIP3    H146553   5.458   3.573  12.661 -1.0879 -0.7159  1.4766
 8354TIP3    H246554   5.322   3.638  12.664 -0.6243  0.2712  1.4620
 8355TIP3   OH246555   5.100   3.743   5.395 -0.2051 -0.7248  0.4772
 8355TIP3    H146556   5.097   3.647   5.398  1.6701 -0.8062  0.8332
 8355TIP3    H246557   5.133   3.763   5.307 -1.4103 -0.3553  0.0927
 8356TIP3   OH246558   6.502   5.141   5.399 -0.1529  0.2043 -0.5323
 8356TIP3    H146559   6.580   5.113   5.448 -0.9092  0.6489  1.0095
 8356TIP3    H246560   6.483   5.068   5.341  0.6954 -0.4419 -0.0236
 8357TIP3   OH246561   2.497   4.870  13.247  1.0245 -0.0558  0.1317
 8357TIP3    H146562   2.472   4.934  13.315  1.7537  1.3439 -0.8780
 8357TIP3    H246563   2.513   4.923  13.169  1.6867 -1.4921 -0.7410
 8358TIP3   OH246564   3.254   5.682   4.399 -0.2305 -0.1556 -0.1332
 8358TIP3    H146565   3.180   5.726   4.357  0.6244  1.0854 -0.4164
 8358TIP3    H246566   3.307   5.754   4.435  0.9599 -0.9969 -0.1494
 8359TIP3   OH246567   4.894   1.346   5.083 -0.0626  0.2165  0.3230
 8359TIP3    H146568   4.814   1.355   5.031 -0.3123  0.0451  0.6765
 8359TIP3    H246569   4.945   1.424   5.062  0.0656 -0.0851 -0.5662
 8360TIP3   OH246570   4.367   3.502  11.478  0.7000  0.1529  0.6715
 8360TIP3    H146571   4.415   3.502  11.561 -1.4616  0.0717  1.9886
 8360TIP3    H246572   4.395   3.422  11.434  2.7505  0.7716  0.7366
 8361TIP3   OH246573   5.657   0.926   4.976 -0.0889  0.2927 -0.7243
 8361TIP3    H146574   5.575   0.891   4.942 -0.1061 -0.1439 -0.2313
 8361TIP3    H246575   5.704   0.851   5.011  2.5127 -0.3020 -4.8547
 8362TIP3   OH246576   5.291   1.777   5.330 -0.5700  0.0326  0.2166
 8362TIP3    H146577   5.286   1.713   5.400  1.0015  1.4049  1.6757
 8362TIP3    H246578   5.344   1.735   5.263 -1.3564 -0.9604  0.1842
 8363TIP3   OH246579   3.061   0.104  12.794 -0.3579  0.4643 -0.5091
 8363TIP3    H146580   2.971   0.136  12.801 -1.8912 -3.2779 -1.0168
 8363TIP3    H246581   3.091   0.097  12.885 -0.6022  1.5103 -0.3272
 8364TIP3   OH246582   4.197   5.080   3.048  0.3106 -0.4107  0.3326
 8364TIP3    H146583   4.242   5.135   3.112  0.7799 -0.0299 -0.3126
 8364TIP3    H246584   4.177   5.139   2.975 -1.9622 -0.3682  0.9107
 8365TIP3   OH246585   4.045   4.075   0.422  0.1173  0.9811  0.0962
 8365TIP3    H146586   4.060   4.043   0.333 -1.5491 -2.2724  0.8190
 8365TIP3    H246587   3.956   4.108   0.421 -0.0090  0.6632  0.6090
 8366TIP3   OH246588   2.646   6.066  15.281 -0.0090  0.1558  0.1483
 8366TIP3    H146589   2.700   6.027  15.350 -0.2387  0.1327  0.3172
 8366TIP3    H246590   2.697   6.141  15.249 -0.6845  1.3127  1.6296
 8367TIP3   OH246591   5.788   6.819  16.641 -0.8400 -0.1558  0.1005
 8367TIP3    H146592   5.738   6.838  16.721 -0.8418 -0.5351  0.1893
 8367TIP3    H246593   5.856   6.886  16.639 -0.1160 -0.8449  1.0374
 8368TIP3   OH246594   2.960   0.010  16.365 -0.2349 -0.3277  0.0263
 8368TIP3    H146595   2.876  -0.024  16.334 -1.0728  2.1885 -0.7207
 8368TIP3    H246596   3.006   0.037  16.286  1.7421 -2.4267  0.3370
 8369TIP3   OH246597   0.051   4.990   3.305  0.3300  0.4156 -0.0634
 8369TIP3    H146598   0.106   5.058   3.344 -0.7426  0.7044  1.0267
 8369TIP3    H246599   0.027   5.025   3.219  0.2007  1.2009  0.2845
 8370TIP3   OH246600   6.773   6.157  15.302  0.0566 -0.7441 -0.1205
 8370TIP3    H146601   6.722   6.198  15.371  0.0724  1.4040 -1.2951
 8370TIP3    H246602   6.834   6.100  15.348 -0.7278 -0.2924  1.5494
 8371TIP3   OH246603   0.351   0.578   3.348 -0.2893  0.3467 -0.1816
 8371TIP3    H146604   0.256   0.589   3.355 -0.3030  0.6714 -0.7815
 8371TIP3    H246605   0.368   0.491   3.384 -0.7585  0.4755  0.3623
 8372TIP3   OH246606   0.660   6.363   4.367 -0.1915 -0.3615  0.2502
 8372TIP3    H146607   0.655   6.459   4.360  1.0263 -0.1701  1.6368
 8372TIP3    H246608   0.711   6.337   4.290 -0.4615  0.0890 -0.0933
 8373TIP3   OH246609   1.058   0.920   3.831  0.0866  0.2136  0.2312
 8373TIP3    H146610   1.084   0.967   3.911  0.7140  1.0971 -0.4675
 8373TIP3    H246611   1.048   0.989   3.766  1.8919 -0.6675 -1.0725
 8374TIP3   OH246612   0.651   1.960   4.152  0.2800  0.0440 -0.3803
 8374TIP3    H146613   0.701   1.916   4.222 -1.1409 -0.7916  0.1502
 8374TIP3    H246614   0.684   1.922   4.071  0.8126 -0.1784 -0.0621
 8375TIP3   OH246615   6.651   6.656   5.344  0.4781 -0.2990  0.6149
 8375TIP3    H146616   6.582   6.621   5.401 -1.9910  1.9511 -0.7376
 8375TIP3    H246617   6.605   6.680   5.263  3.2151 -0.2391 -1.0368
 8376TIP3   OH246618   1.021   0.191  13.859  0.8227 -0.1137  0.2983
 8376TIP3    H146619   0.981   0.276  13.839  1.0476 -0.4221 -1.7849
 8376TIP3    H246620   1.102   0.190  13.808  1.1829 -1.2931  0.8584
 8377TIP3   OH246621   3.438   6.823  14.731  0.4238 -0.2729 -0.1248
 8377TIP3    H146622   3.503   6.756  14.709  0.0418 -0.9873  0.8339
 8377TIP3    H246623   3.356   6.774  14.742  0.0733  0.3968  0.2856
 8378TIP3   OH246624   4.627   4.016   1.817 -0.5685  0.1734  0.0539
 8378TIP3    H146625   4.721   4.002   1.816 -0.3727  1.0611  1.8820
 8378TIP3    H246626   4.617   4.111   1.817 -1.5221  0.1009 -1.3173
 8379TIP3   OH246627   3.765   5.175  12.468 -0.4851  0.0612  0.0944
 8379TIP3    H146628   3.858   5.156  12.453 -0.5625  0.7505 -1.5203
 8379TIP3    H246629   3.754   5.171  12.563  1.0348 -0.7472  0.2647
 8380TIP3   OH246630   5.257   2.771   3.444 -0.0625 -0.2301  0.0494
 8380TIP3    H146631   5.209   2.694   3.472  0.6276 -0.5285  0.4531
 8380TIP3    H246632   5.257   2.766   3.349 -0.4354 -0.4739  0.0624
 8381TIP3   OH246633   6.147   0.709   3.397  0.2478  0.1023  0.1913
 8381TIP3    H146634   6.205   0.649   3.445  1.6307 -0.9467 -2.5747
 8381TIP3    H246635   6.072   0.656   3.374  0.0973  0.2880  0.2524
 8382TIP3   OH246636   2.371   6.715   6.513  0.2083 -0.1212 -0.0262
 8382TIP3    H146637   2.332   6.665   6.442 -1.5177 -1.7522  1.9582
 8382TIP3    H246638   2.463   6.688   6.514  0.3350  0.1605 -1.7716
 8383TIP3   OH246639   3.315   1.842   3.473  0.2420  0.6272 -0.2503
 8383TIP3    H146640   3.390   1.826   3.530  0.9831  0.5959 -1.2097
 8383TIP3    H246641   3.276   1.755   3.460 -0.3694  0.7267  0.7603
 8384TIP3   OH246642   5.125   1.249  10.766 -0.2562  0.1171 -0.3856
 8384TIP3    H146643   5.219   1.240  10.750 -0.4015 -0.4330 -1.0079
 8384TIP3    H246644   5.118   1.317  10.833  0.5756  0.2536 -0.4243
 8385TIP3   OH246645   4.720   1.286  16.563 -0.4287 -0.1624  0.1762
 8385TIP3    H146646   4.735   1.195  16.538 -1.2259 -0.0626 -0.7567
 8385TIP3    H246647   4.783   1.304  16.632 -1.3183 -1.8959  1.5024
 8386TIP3   OH246648   6.615   5.385  16.125  0.1469 -0.2087  0.1477
 8386TIP3    H146649   6.611   5.291  16.143 -0.4753 -0.1185  0.5128
 8386TIP3    H246650   6.704   5.399  16.093 -0.5339 -1.3799 -2.5209
 8387TIP3   OH246651   1.265   4.960   4.448  0.3697  0.0521 -0.6178
 8387TIP3    H146652   1.279   4.870   4.477  0.1767  0.4867  0.9339
 8387TIP3    H246653   1.229   4.952   4.360 -0.1985 -1.4035 -0.2759
 8388TIP3   OH246654   5.690   6.542  16.738  0.7209  0.2898 -0.0993
 8388TIP3    H146655   5.608   6.513  16.700  0.6906  0.0388  0.1536
 8388TIP3    H246656   5.758   6.502  16.684  0.6913  1.5159 -1.0891
 8389TIP3   OH246657   3.978   2.679  10.983  0.1848 -0.1314 -0.1700
 8389TIP3    H146658   4.026   2.686  10.900 -0.7342 -0.5358 -0.7530
 8389TIP3    H246659   3.892   2.645  10.958 -0.3692  0.4708  0.8693
 8390TIP3   OH246660   2.902   3.175  16.901  0.6699  0.6890 -0.4274
 8390TIP3    H146661   2.980   3.204  16.853 -0.1556  0.6904 -1.8308
 8390TIP3    H246662   2.829   3.217  16.855 -0.4039 -1.8092 -1.1476
 8391TIP3   OH246663   6.794   1.812   5.669  0.1216 -0.4838 -0.1804
 8391TIP3    H146664   6.845   1.779   5.743  0.1828  0.9353  0.4404
 8391TIP3    H246665   6.763   1.898   5.697 -2.0445 -0.9847 -0.8002
 8392TIP3   OH246666   0.973   1.758  16.000  0.0561 -0.1880 -0.2357
 8392TIP3    H146667   0.885   1.793  15.999 -0.1778 -0.7285  0.4370
 8392TIP3    H246668   1.027   1.825  15.957 -0.4526  0.7576  0.5700
 8393TIP3   OH246669   6.065   5.119  16.635  0.6715  0.2269 -0.5847
 8393TIP3    H146670   5.984   5.153  16.674 -0.3203  1.1000 -3.1967
 8393TIP3    H246671   6.045   5.028  16.614  0.4355  0.3695 -0.9924
 8394TIP3   OH246672   3.631   5.924  14.088  0.0758 -0.0333  0.9717
 8394TIP3    H146673   3.717   5.941  14.050 -0.6617  1.2268 -0.2155
 8394TIP3    H246674   3.629   5.976  14.169  0.5554 -0.3759  1.2099
 8395TIP3   OH246675   1.454   0.052   2.071  0.0488  0.1663 -0.3574
 8395TIP3    H146676   1.491   0.136   2.099 -0.9979  0.3021  0.6938
 8395TIP3    H246677   1.466   0.052   1.976 -0.4810  1.7826 -0.4605
 8396TIP3   OH246678   3.031   0.879  13.021  0.1154 -0.7348  0.4581
 8396TIP3    H146679   3.106   0.831  12.987 -0.2137 -0.6549 -0.4349
 8396TIP3    H246680   3.031   0.862  13.115  0.4726 -1.8116  0.2762
 8397TIP3   OH246681   5.645   2.540   1.768 -0.1371  0.6970 -0.2096
 8397TIP3    H146682   5.621   2.611   1.827 -0.8493  0.9371 -0.7715
 8397TIP3    H246683   5.568   2.529   1.712 -0.5116 -1.3096  0.6246
 8398TIP3   OH246684   2.075   5.749  13.854 -0.3013  0.0038 -0.4576
 8398TIP3    H146685   2.148   5.780  13.907 -0.3978 -0.5665  0.0142
 8398TIP3    H246686   2.000   5.800  13.886 -0.1848  0.3254 -0.6902
 8399TIP3   OH246687   2.208   1.386  12.695  0.1057 -0.0671  0.1094
 8399TIP3    H146688   2.300   1.406  12.715  0.1730  1.1207 -1.2370
 8399TIP3    H246689   2.193   1.424  12.609 -0.8151 -2.9402 -1.1267
 8400TIP3   OH246690   1.591   0.138  15.288  0.1488 -0.0782 -0.1254
 8400TIP3    H146691   1.663   0.189  15.325  0.5336 -0.7564  0.0881
 8400TIP3    H246692   1.533   0.202  15.248 -0.7225  0.7852  2.3747
 8401TIP3   OH246693   1.529   2.001   1.828 -0.2016 -0.6594  1.1158
 8401TIP3    H146694   1.614   2.027   1.792  0.2483 -2.9143  0.3891
 8401TIP3    H246695   1.470   2.071   1.803  1.0777  0.0859  0.0272
 8402TIP3   OH246696   1.388   1.050  13.951  0.2798 -0.2882  0.4720
 8402TIP3    H146697   1.392   1.139  13.915  0.9854 -0.5538 -0.1127
 8402TIP3    H246698   1.470   1.009  13.925 -0.3191 -1.3395  0.1677
 8403TIP3   OH246699   0.461   4.282  13.985  0.2531  0.7320 -0.0609
 8403TIP3    H146700   0.477   4.271  13.891  1.3014 -0.7827  0.2578
 8403TIP3    H246701   0.395   4.216  14.006  0.5171  0.6035  0.3832
 8404TIP3   OH246702   0.990   1.604  11.282  0.1141  0.1578  0.2986
 8404TIP3    H146703   1.068   1.582  11.332  0.4351 -1.3584 -0.7987
 8404TIP3    H246704   1.015   1.591  11.191 -1.6081 -1.0820 -0.0477
 8405TIP3   OH246705   0.034   3.699  13.582 -0.2824 -0.2563  0.1313
 8405TIP3    H146706   0.067   3.666  13.498  1.8795 -0.1993  0.8770
 8405TIP3    H246707  -0.039   3.642  13.603 -0.4912 -0.6528 -1.4963
 8406TIP3   OH246708   4.825   2.708   3.540 -0.3201 -0.2518 -0.6231
 8406TIP3    H146709   4.759   2.698   3.472 -1.4213  0.6813  0.2646
 8406TIP3    H246710   4.841   2.803   3.544  2.0212 -0.5201 -1.6660
 8407TIP3   OH246711   6.119   1.813  11.220 -0.0408 -0.1459  0.2134
 8407TIP3    H146712   6.195   1.800  11.276  0.0300 -1.1902 -0.0982
 8407TIP3    H246713   6.154   1.855  11.142 -0.3046  2.2897  1.3287
 8408TIP3   OH246714   2.497   4.300  16.047  0.0989  0.0154 -0.1959
 8408TIP3    H146715   2.528   4.211  16.034 -3.2724 -1.2239 -0.8842
 8408TIP3    H246716   2.407   4.299  16.014  0.3521  4.0649 -1.5843
 8409TIP3   OH246717   0.942   3.496  15.032  0.2393  0.2850 -0.0890
 8409TIP3    H146718   0.938   3.531  15.121 -0.1516  0.0445 -0.0114
 8409TIP3    H246719   0.854   3.509  14.997 -0.1666 -1.3653  0.2234
 8410TIP3   OH246720   4.861   3.484   1.463 -0.1073 -0.0870  0.4835
 8410TIP3    H146721   4.767   3.466   1.466 -0.2402  0.5984  0.6624
 8410TIP3    H246722   4.869   3.572   1.499  0.5325  0.1176 -0.1336
 8411TIP3   OH246723   0.750   3.160  14.420 -0.6555 -0.2937 -0.5535
 8411TIP3    H146724   0.791   3.074  14.418 -1.8425 -0.8848 -0.1167
 8411TIP3    H246725   0.762   3.194  14.331 -0.9406 -1.2815 -0.9849
 8412TIP3   OH246726   0.894   5.148  16.001  0.3601  0.4702 -0.1039
 8412TIP3    H146727   0.981   5.181  15.979  1.6084 -1.6051  1.3950
 8412TIP3    H246728   0.870   5.092  15.927  1.3250 -0.7191  0.4518
 8413TIP3   OH246729   6.323   6.439  11.847 -0.1316 -0.4672 -0.4817
 8413TIP3    H146730   6.384   6.366  11.851 -0.5757 -0.8219  2.5648
 8413TIP3    H246731   6.242   6.401  11.813  0.2646 -0.8634 -0.9884
 8414TIP3   OH246732   6.252   6.556   2.769 -0.0421 -0.0023 -0.2949
 8414TIP3    H146733   6.249   6.628   2.706 -1.0714  1.4902  1.3391
 8414TIP3    H246734   6.315   6.494   2.733 -0.8086  0.6272 -2.9033
 8415TIP3   OH246735   2.598   6.608  13.977 -0.4395  0.3630 -0.4362
 8415TIP3    H146736   2.505   6.586  13.979 -0.1790 -0.8157 -0.2152
 8415TIP3    H246737   2.636   6.555  14.048  0.6619 -0.5531 -1.6654
 8416TIP3   OH246738   2.361   5.825  15.086  0.4762  0.6803 -0.1295
 8416TIP3    H146739   2.401   5.810  15.172  0.3459 -2.5915 -0.5058
 8416TIP3    H246740   2.267   5.827  15.103  0.5006  1.4680 -0.0546
 8417TIP3   OH246741   4.319   2.858  17.065 -0.2084 -0.0182 -0.2146
 8417TIP3    H146742   4.406   2.843  17.029  0.7764  0.9395  1.5735
 8417TIP3    H246743   4.273   2.908  16.997  1.0514  0.4784 -0.7386
 8418TIP3   OH246744   3.973   2.639  15.244  0.1564  0.0697  0.3944
 8418TIP3    H146745   4.029   2.580  15.296 -0.8260 -1.5584 -0.3163
 8418TIP3    H246746   4.035   2.701  15.205  1.3906 -1.1265  0.3461
 8419TIP3   OH246747   3.493   6.704   2.424  0.0416 -0.3250  0.4044
 8419TIP3    H146748   3.466   6.614   2.407 -1.6399  0.0108  1.0431
 8419TIP3    H246749   3.462   6.753   2.348  0.2820 -0.1694  0.4056
 8420TIP3   OH246750   3.330   1.313  12.534  0.4921  0.0160 -0.3234
 8420TIP3    H146751   3.325   1.247  12.465  0.6714  1.3060 -1.6380
 8420TIP3    H246752   3.243   1.316  12.572  0.0644  0.0786 -1.2888
 8421TIP3   OH246753   1.000   0.667  12.724 -0.3402 -0.0832  0.1350
 8421TIP3    H146754   0.910   0.642  12.704 -0.3206 -0.3440  0.3643
 8421TIP3    H246755   1.052   0.590  12.701  0.1333  0.9101 -2.3671
 8422TIP3   OH246756   2.018   3.437   2.831  0.4095  0.6595 -0.6508
 8422TIP3    H146757   1.978   3.424   2.917  1.6694 -1.1376 -0.2956
 8422TIP3    H246758   2.108   3.463   2.850  0.7563  0.0585 -1.4129
 8423TIP3   OH246759   3.664   0.435  12.189 -0.2944 -0.1102  0.7684
 8423TIP3    H146760   3.603   0.363  12.179 -0.6259  0.3092 -0.4189
 8423TIP3    H246761   3.750   0.396  12.174 -0.4689 -0.2827  0.1822
 8424TIP3   OH246762   1.799   2.845   1.154  0.5870 -0.4474 -0.0567
 8424TIP3    H146763   1.805   2.911   1.223 -0.6731 -0.4084  0.0341
 8424TIP3    H246764   1.815   2.893   1.073  3.3420 -0.7013  0.2203
 8425TIP3   OH246765   0.403   2.884  16.000  0.2267 -0.5290 -0.8120
 8425TIP3    H146766   0.433   2.796  16.022  1.4238 -0.9078 -3.5600
 8425TIP3    H246767   0.467   2.942  16.043 -0.6682 -0.9109  1.1557
 8426TIP3   OH246768   3.146   5.037  12.454 -0.0263 -0.4834  0.2808
 8426TIP3    H146769   3.162   5.123  12.414  0.3977 -0.7601 -0.1450
 8426TIP3    H246770   3.222   4.985  12.431 -0.2263 -0.9433  0.6440
 8427TIP3   OH246771   6.357   6.168  12.146  0.7202 -0.1629  0.3464
 8427TIP3    H146772   6.289   6.234  12.134  1.3530  0.6161  0.8919
 8427TIP3    H246773   6.310   6.085  12.148  0.0199  0.1458 -1.4918
 8428TIP3   OH246774   3.279   2.043   1.375 -0.3077 -0.0687 -0.2322
 8428TIP3    H146775   3.275   2.139   1.373  0.9586  0.0302  0.5609
 8428TIP3    H246776   3.372   2.023   1.384 -0.6513 -1.3356  0.8990
 8429TIP3   OH246777   5.086   6.538  14.286  0.3187 -0.1655 -0.6263
 8429TIP3    H146778   5.011   6.576  14.331  0.9647 -0.9644  1.2026
 8429TIP3    H246779   5.134   6.613  14.251  0.9930  0.7338  1.9891
 8430TIP3   OH246780   0.232   0.540   5.816 -0.0491  0.0893 -0.4898
 8430TIP3    H146781   0.147   0.548   5.859 -0.9273 -1.7826 -1.7590
 8430TIP3    H246782   0.244   0.624   5.771 -2.5184 -0.4781 -2.4607
 8431TIP3   OH246783   5.015   5.257  17.152  0.0268 -0.1000  0.3183
 8431TIP3    H146784   5.028   5.264  17.058 -0.7533  0.0967  0.2191
 8431TIP3    H246785   4.983   5.168  17.165  1.1642 -0.4927  0.5331
 8432TIP3   OH246786   0.065   6.445   3.213  0.1236  0.0383 -0.2544
 8432TIP3    H146787   0.028   6.375   3.159 -0.1724  1.9286 -2.6965
 8432TIP3    H246788   0.076   6.406   3.300 -1.2264 -2.6012 -1.1717
 8433TIP3   OH246789   6.057   0.383  16.311  0.3148  0.1840 -0.3635
 8433TIP3    H146790   6.077   0.412  16.400  0.3408 -0.8399 -0.0169
 8433TIP3    H246791   6.097   0.296  16.305  1.0687  0.5997 -1.6764
 8434TIP3   OH246792   5.488   1.631  11.760 -0.2755  0.0003 -0.5455
 8434TIP3    H146793   5.583   1.626  11.751 -0.0046 -0.3188  1.8339
 8434TIP3    H246794   5.474   1.691  11.833 -1.9906  0.9318 -1.5631
 8435TIP3   OH246795   4.682   0.520  16.143  0.2032 -0.1394  0.1907
 8435TIP3    H146796   4.749   0.522  16.075  0.8645 -2.8569  0.6496
 8435TIP3    H246797   4.728   0.549  16.222  0.4608 -0.6070  0.2156
 8436TIP3   OH246798   4.704   0.929  11.264  0.2297 -0.2105 -0.8149
 8436TIP3    H146799   4.781   0.871  11.268  0.7333  0.4588 -0.6013
 8436TIP3    H246800   4.685   0.949  11.356 -0.2154 -0.3824 -0.8671
 8437TIP3   OH246801   1.020   4.383   1.741 -0.2530  0.1361 -0.0846
 8437TIP3    H146802   0.949   4.345   1.689 -1.4126  1.3240  0.5795
 8437TIP3    H246803   1.010   4.477   1.731  1.8990  0.3539 -0.7990
 8438TIP3   OH246804   1.392   6.110   1.133 -0.1828  0.8709 -0.3314
 8438TIP3    H146805   1.486   6.124   1.128 -0.1150  0.7426  0.4098
 8438TIP3    H246806   1.355   6.166   1.065  0.5214 -0.1736 -1.5999
 8439TIP3   OH246807   6.051   4.154   2.678  0.8125  0.2982  0.4325
 8439TIP3    H146808   6.002   4.223   2.634 -0.6285 -0.3689  0.9160
 8439TIP3    H246809   5.993   4.078   2.673  2.6933 -1.1585 -0.8555
 8440TIP3   OH246810   1.938   4.531   6.195 -0.3636 -0.6699 -0.6812
 8440TIP3    H146811   1.950   4.539   6.100 -3.2134  0.9817 -1.0059
 8440TIP3    H246812   1.852   4.568   6.212 -0.2503 -1.5594  2.5146
 8441TIP3   OH246813   6.357   1.179   5.245  0.2240  0.1695 -0.4973
 8441TIP3    H146814   6.308   1.237   5.304 -0.0469 -1.6059  1.1024
 8441TIP3    H246815   6.289   1.134   5.194  0.1857 -1.4299  0.8954
 8442TIP3   OH246816   1.798   4.414  13.117 -0.2055  0.2532  0.4169
 8442TIP3    H146817   1.888   4.432  13.090 -0.4942  1.7452  0.3605
 8442TIP3    H246818   1.779   4.328  13.080  0.8511  0.3765 -0.4696
 8443TIP3   OH246819   0.636   2.266  13.333 -0.0586  0.1981 -0.4244
 8443TIP3    H146820   0.598   2.307  13.255 -3.0232  3.9361  2.5605
 8443TIP3    H246821   0.562   2.252  13.391  2.1338 -1.1403  2.2793
 8444TIP3   OH246822   3.822   1.588  13.396  0.7413 -0.2549 -0.1945
 8444TIP3    H146823   3.864   1.546  13.320  2.4041 -0.0244  0.5659
 8444TIP3    H246824   3.868   1.552  13.472  0.4809  1.0573  0.6086
 8445TIP3   OH246825   6.609   0.220  16.913  0.1940  0.5102  0.0148
 8445TIP3    H146826   6.677   0.177  16.965  0.8124  1.0445 -0.3483
 8445TIP3    H246827   6.656   0.281  16.857 -0.5672  0.7206 -0.4071
 8446TIP3   OH246828   5.652   6.097   3.678  0.0496  0.1493 -0.1726
 8446TIP3    H146829   5.651   6.037   3.604 -0.6362 -0.3640  0.2395
 8446TIP3    H246830   5.701   6.051   3.746  0.9891  0.7644 -0.4123
 8447TIP3   OH246831   1.108   0.790   3.213 -0.7555 -0.0630  0.1822
 8447TIP3    H146832   1.079   0.701   3.236 -0.3115 -0.6021 -1.2606
 8447TIP3    H246833   1.053   0.847   3.267 -0.6545 -1.2165  1.5690
 8448TIP3   OH246834   5.001   2.829   6.584 -0.1937 -0.1764 -0.3874
 8448TIP3    H146835   4.947   2.907   6.570  0.4747 -0.1619 -3.7731
 8448TIP3    H246836   5.055   2.823   6.506  2.6821 -1.8370  1.5363
 8449TIP3   OH246837   1.640   1.826   4.762 -0.0370  0.2295 -0.5437
 8449TIP3    H146838   1.668   1.842   4.672 -0.2309 -0.1023 -0.6675
 8449TIP3    H246839   1.560   1.877   4.772  0.1677  0.5354 -0.4487
 8450TIP3   OH246840   6.265   6.715   3.003 -0.1748 -0.1666  0.0857
 8450TIP3    H146841   6.242   6.676   2.919  0.4674  0.6849 -0.5010
 8450TIP3    H246842   6.219   6.799   3.005  0.7454  0.3526  0.0510
 8451TIP3   OH246843   1.704   6.620   2.075  0.3183  0.6504 -0.4123
 8451TIP3    H146844   1.628   6.591   2.023 -0.8382  2.3747  0.2140
 8451TIP3    H246845   1.732   6.542   2.122 -2.1257  0.2598  0.5769
 8452TIP3   OH246846   2.052   3.516  15.020  0.7465  0.2985 -0.3631
 8452TIP3    H146847   1.972   3.494  14.973 -0.9034 -1.2807  2.8365
 8452TIP3    H246848   2.116   3.452  14.989  0.0665  0.0383 -1.2729
 8453TIP3   OH246849   3.142   6.134   1.619  0.2190 -0.4633  0.6489
 8453TIP3    H146850   3.089   6.071   1.666 -0.5183 -1.3277 -1.2611
 8453TIP3    H246851   3.199   6.081   1.562 -1.1456  0.5021 -1.7855
 8454TIP3   OH246852   3.201   3.989  14.740  0.7172  0.3492 -0.1421
 8454TIP3    H146853   3.196   4.059  14.805  2.0521  0.4253 -0.0875
 8454TIP3    H246854   3.206   4.034  14.656  2.7375  0.4051 -0.0397
 8455TIP3   OH246855   2.357   3.782   5.943 -0.3520 -0.1828  0.0296
 8455TIP3    H146856   2.432   3.727   5.922  1.0351  1.5454  0.2952
 8455TIP3    H246857   2.364   3.857   5.884 -0.8281  0.8813  1.2744
 8456TIP3   OH246858   0.446   1.964  13.420  0.1563 -0.0612  0.3146
 8456TIP3    H146859   0.476   1.875  13.403  0.6753  0.4673 -1.9422
 8456TIP3    H246860   0.525   2.012  13.444 -0.1082 -0.1559  1.4336
 8457TIP3   OH246861   5.929   4.510  10.720 -0.6922 -0.0299 -0.0323
 8457TIP3    H146862   5.839   4.515  10.688  0.1322  0.3819 -2.5143
 8457TIP3    H246863   5.951   4.600  10.744 -0.2479  0.3253 -1.6498
 8458TIP3   OH246864   5.278   0.004  13.777 -0.3593  0.2567 -0.3049
 8458TIP3    H146865   5.220  -0.072  13.767  0.4584 -0.2846 -1.0900
 8458TIP3    H246866   5.366  -0.033  13.771  0.1232  0.9031  1.9195
 8459TIP3   OH246867   6.787   3.986  12.994  0.3080 -0.3047 -0.6118
 8459TIP3    H146868   6.762   3.993  12.901  1.7118 -1.8571 -1.1703
 8459TIP3    H246869   6.870   3.937  12.992  0.5116 -0.1085  1.4584
 8460TIP3   OH246870   6.430   5.789   0.829 -0.3778 -0.3216 -0.0844
 8460TIP3    H146871   6.512   5.779   0.878 -1.0039 -1.6790  0.7515
 8460TIP3    H246872   6.450   5.758   0.741  0.4347  0.9599 -0.3696
 8461TIP3   OH246873   2.969   5.920   2.623 -0.2312  0.2672 -0.0322
 8461TIP3    H146874   2.911   5.972   2.567 -1.0749 -0.7041 -0.0905
 8461TIP3    H246875   2.987   5.841   2.572  0.7067  0.3123  0.2187
 8462TIP3   OH246876   3.613   3.328   1.350 -0.4188 -0.7616  0.5848
 8462TIP3    H146877   3.622   3.413   1.394  1.0357 -0.7040  0.2314
 8462TIP3    H246878   3.552   3.344   1.279 -0.4836 -0.1193  0.7818
 8463TIP3   OH246879   0.747   2.515  11.801  0.0731  0.4532 -0.1948
 8463TIP3    H146880   0.752   2.493  11.894  1.6900  1.7000  0.0628
 8463TIP3    H246881   0.732   2.610  11.800 -1.4454  0.2365 -1.2316
 8464TIP3   OH246882   4.068   1.554   4.585  0.0371 -0.0611 -0.0435
 8464TIP3    H146883   4.066   1.609   4.664 -3.5297  0.6827 -0.4859
 8464TIP3    H246884   4.032   1.470   4.614 -1.1565  0.1688 -0.8305
 8465TIP3   OH246885   0.581   5.931   1.776  0.1789 -0.7469 -0.0453
 8465TIP3    H146886   0.563   5.896   1.863  0.8759 -0.2423  0.3079
 8465TIP3    H246887   0.653   5.876   1.743 -0.4288 -1.2703 -0.5159
 8466TIP3   OH246888   4.745   2.668   1.927 -0.4584  0.4460 -0.3274
 8466TIP3    H146889   4.702   2.611   1.990 -1.1310  0.4571 -0.7684
 8466TIP3    H246890   4.673   2.708   1.877  0.0855 -0.3716 -1.8245
 8467TIP3   OH246891   3.572   4.974   6.010 -0.1233 -0.3566 -0.8649
 8467TIP3    H146892   3.599   4.920   6.085  0.3377 -2.2245 -2.3049
 8467TIP3    H246893   3.477   4.963   6.006 -0.2003  0.0508 -0.3661
 8468TIP3   OH246894   0.848   4.339  14.804  0.4595  0.1564  0.1105
 8468TIP3    H146895   0.921   4.384  14.763  1.2807 -1.0786  0.1501
 8468TIP3    H246896   0.771   4.393  14.783  1.3391  1.3725 -0.0896
 8469TIP3   OH246897   3.984   5.662  16.305  0.4260  0.4915  0.4081
 8469TIP3    H146898   4.045   5.678  16.376  0.1816  1.0542  0.4920
 8469TIP3    H246899   3.916   5.606  16.343  0.7982  0.0010  0.3599
 8470TIP3   OH246900   4.393   4.920   1.840 -0.0425  0.1019 -0.4663
 8470TIP3    H146901   4.306   4.899   1.874  0.3059 -0.3207  0.1893
 8470TIP3    H246902   4.377   4.949   1.750 -0.8718  0.1675 -0.3080
 8471TIP3   OH246903   6.040   0.571   5.247 -0.2994  0.1439 -0.2567
 8471TIP3    H146904   6.009   0.518   5.174  0.1671 -1.3912  0.6244
 8471TIP3    H246905   6.013   0.660   5.224  2.1191  0.2164 -3.6041
 8472TIP3   OH246906   2.435   2.453  11.779 -0.1255 -0.1010  0.6874
 8472TIP3    H146907   2.400   2.364  11.787 -1.6631  0.5100  1.2811
 8472TIP3    H246908   2.529   2.442  11.770 -0.5420 -1.9228 -2.5912
 8473TIP3   OH246909   0.990   6.413   4.077 -0.7441  0.2774 -0.1348
 8473TIP3    H146910   1.049   6.344   4.105 -0.4287  0.6398  0.1103
 8473TIP3    H246911   1.047   6.479   4.036 -1.2149 -0.3451 -1.8837
 8474TIP3   OH246912   5.150   2.726  15.479 -0.0021 -0.0752 -0.0401
 8474TIP3    H146913   5.097   2.648  15.497  0.1498 -0.3022 -0.5563
 8474TIP3    H246914   5.240   2.695  15.481  0.0406 -0.0011 -0.6571
 8475TIP3   OH246915   6.469   5.391  14.389  0.4186  0.2215  0.1151
 8475TIP3    H146916   6.446   5.307  14.348 -1.4003 -0.3136  2.0618
 8475TIP3    H246917   6.495   5.447  14.316  1.6061 -1.9797 -1.2573
 8476TIP3   OH246918   1.194   5.932   3.125 -0.2923 -0.1801  0.0875
 8476TIP3    H146919   1.226   5.899   3.041 -0.4453  0.9668 -0.4303
 8476TIP3    H246920   1.273   5.953   3.174 -0.2079 -0.5755  0.1238
 8477TIP3   OH246921   0.661   3.775   7.144  0.7838  0.1140  0.1144
 8477TIP3    H146922   0.656   3.692   7.096 -0.9659  0.2905 -0.0618
 8477TIP3    H246923   0.630   3.841   7.082  1.7972  0.8743  0.3814
 8478TIP3   OH246924   5.791   0.313  15.650 -0.1264 -0.1938 -0.3060
 8478TIP3    H146925   5.857   0.245  15.637  0.2192  0.4995 -2.5809
 8478TIP3    H246926   5.708   0.266  15.644  0.0480 -1.0148  2.2540
 8479TIP3   OH246927   1.893   3.891   2.032  0.8133 -0.2323 -0.6296
 8479TIP3    H146928   1.969   3.950   2.031  0.0016  0.8647  0.0124
 8479TIP3    H246929   1.931   3.804   2.045  1.9380  0.3525  0.2686
 8480TIP3   OH246930   2.680   1.707  12.910  0.2397 -0.1891  0.1505
 8480TIP3    H146931   2.702   1.786  12.958 -1.2753  0.5913 -0.3904
 8480TIP3    H246932   2.701   1.726  12.819 -1.5280  0.1989 -0.2227
 8481TIP3   OH246933   3.509   5.183  12.348  0.3257 -0.0756 -0.0172
 8481TIP3    H146934   3.573   5.199  12.418 -1.0403 -0.4146  1.3715
 8481TIP3    H246935   3.481   5.092  12.362  0.6561 -0.4456 -1.5780
 8482TIP3   OH246936   0.998   3.942  13.224  0.4858 -0.0048 -0.0700
 8482TIP3    H146937   1.081   3.935  13.178  0.8922  1.1684  0.4400
 8482TIP3    H246938   1.016   3.908  13.312  0.3037 -0.1529 -0.0882
 8483TIP3   OH246939   6.589   4.962   5.648  0.0556 -0.3993 -0.3883
 8483TIP3    H146940   6.500   4.973   5.617  0.6874 -0.3991 -2.3142
 8483TIP3    H246941   6.598   4.867   5.662  0.1946 -0.6097 -1.7319
 8484TIP3   OH246942   0.942   0.472  16.107  0.3182  0.9001  0.1135
 8484TIP3    H146943   0.892   0.443  16.184  1.7093 -2.7633 -0.1551
 8484TIP3    H246944   0.895   0.549  16.075 -2.2714  0.5248  2.6485
 8485TIP3   OH246945   2.056   2.259  14.237  0.4352 -0.1255 -0.8536
 8485TIP3    H146946   2.100   2.283  14.319 -0.4892  0.1509 -0.4189
 8485TIP3    H246947   2.009   2.339  14.212 -1.4525 -0.9706 -0.2128
 8486TIP3   OH246948   5.229   0.790  14.256  0.0651 -0.1735  0.0147
 8486TIP3    H146949   5.175   0.847  14.202  0.2374  0.6334  0.6557
 8486TIP3    H246950   5.216   0.702  14.220 -1.1054  0.1022 -0.2840
 8487TIP3   OH246951   4.188   2.283  17.109  0.5273 -0.0009 -0.2522
 8487TIP3    H146952   4.110   2.322  17.149  0.8269  0.3970 -0.0452
 8487TIP3    H246953   4.233   2.357  17.068 -0.2456 -0.5260 -2.1507
 8488TIP3   OH246954   4.241   4.248  12.680  0.3161 -0.1617  0.2351
 8488TIP3    H146955   4.257   4.197  12.759 -1.2074 -0.7383  0.2033
 8488TIP3    H246956   4.156   4.217  12.649  1.2042 -0.5149 -2.0533
 8489TIP3   OH246957   0.853   0.063   2.483 -0.5856  0.0771  0.2599
 8489TIP3    H146958   0.886  -0.008   2.428 -1.9197  1.5019 -2.6026
 8489TIP3    H246959   0.915   0.135   2.470 -2.0950  1.1746 -1.3195
 8490TIP3   OH246960   3.935   1.651  15.623 -0.6036  0.6837  0.4130
 8490TIP3    H146961   3.851   1.696  15.625 -0.2425  1.3676  0.5831
 8490TIP3    H246962   3.933   1.593  15.699 -1.1853  0.1885  0.0330
 8491TIP3   OH246963   1.461   2.693   2.792 -1.0416 -0.5602  0.5813
 8491TIP3    H146964   1.552   2.672   2.815 -0.7215 -0.5279 -0.5762
 8491TIP3    H246965   1.432   2.754   2.859  0.0986  0.1297  0.4728
 8492TIP3   OH246966   5.469   1.593   1.417 -0.1216  0.2819 -0.0419
 8492TIP3    H146967   5.508   1.635   1.494 -0.7165 -1.3956  1.2391
 8492TIP3    H246968   5.425   1.664   1.370  1.0481  1.4998  0.6413
 8493TIP3   OH246969   2.431   3.503  12.208  0.2827  0.0379  0.1061
 8493TIP3    H146970   2.348   3.457  12.195  0.5419 -0.6061  0.7054
 8493TIP3    H246971   2.435   3.564  12.134 -1.2937  0.9389  0.7049
 8494TIP3   OH246972   6.403   6.068   0.880  0.3601  0.0857  0.3543
 8494TIP3    H146973   6.399   5.993   0.822 -2.4099  0.7377 -0.4416
 8494TIP3    H246974   6.448   6.036   0.958 -0.3935 -2.2897 -0.1166
 8495TIP3   OH246975   4.385   3.393   4.055  0.3554  0.0289 -0.0875
 8495TIP3    H146976   4.400   3.310   4.100  2.5417 -0.6459 -1.8701
 8495TIP3    H246977   4.366   3.368   3.965  1.6550  1.4320 -0.8100
 8496TIP3   OH246978   1.024   1.778  10.428 -0.3487  0.2694  0.0307
 8496TIP3    H146979   1.062   1.778  10.340 -0.5704 -0.1171 -0.0668
 8496TIP3    H246980   0.934   1.808  10.416 -0.4566 -0.0299  0.0925
 8497TIP3   OH246981   3.401   3.123   2.988 -0.1680 -0.1894 -0.2915
 8497TIP3    H146982   3.343   3.167   3.050 -0.3811  1.2207 -1.4241
 8497TIP3    H246983   3.485   3.116   3.034 -0.5062  0.2269  0.3970
 8498TIP3   OH246984   3.621   6.353   1.778  0.2812 -0.0735  0.4377
 8498TIP3    H146985   3.584   6.415   1.715  2.3144 -0.6079 -1.3972
 8498TIP3    H246986   3.561   6.357   1.853 -0.4071  3.1104 -0.1141
 8499TIP3   OH246987   3.766   4.838  14.882 -0.0682  0.2311 -0.0709
 8499TIP3    H146988   3.847   4.788  14.870 -0.6038 -0.5194 -0.6550
 8499TIP3    H246989   3.713   4.783  14.940 -1.1073 -0.4598 -1.5912
 8500TIP3   OH246990   0.332   2.280   1.909  0.3895 -0.2714 -0.2985
 8500TIP3    H146991   0.414   2.263   1.955 -0.2027 -0.0333  0.8765
 8500TIP3    H246992   0.289   2.194   1.905  1.2592 -0.6704 -2.1088
 8501TIP3   OH246993   3.998   0.286   5.878 -0.0661 -0.1035 -0.6270
 8501TIP3    H146994   3.982   0.192   5.889  0.1732 -0.2258 -1.2794
 8501TIP3    H246995   4.014   0.317   5.967 -2.3354 -0.2461 -0.1254
 8502TIP3   OH246996   2.745   5.521   5.848 -0.3548 -0.3944  0.4759
 8502TIP3    H146997   2.689   5.454   5.888 -1.8612  0.0231 -0.8475
 8502TIP3    H246998   2.752   5.589   5.915 -0.3682 -1.0255  1.1287
 8503TIP3   OH246999   3.875   0.650   5.900  0.0370 -0.3873  0.2803
 8503TIP3    H147000   3.816   0.721   5.923  0.3887 -0.0004 -0.0010
 8503TIP3    H247001   3.954   0.693   5.867 -0.0221 -0.9188 -0.5869
 8504TIP3   OH247002   1.211   4.651   3.879 -0.8061  0.5283  0.1638
 8504TIP3    H147003   1.262   4.730   3.863  1.8510 -0.6372  1.9658
 8504TIP3    H247004   1.257   4.607   3.951 -1.1298 -3.4702 -1.7557
 8505TIP3   OH247005   6.718   4.257   2.289  0.6102  0.1459 -0.3977
 8505TIP3    H147006   6.671   4.208   2.221 -0.2915 -0.0613  0.3667
 8505TIP3    H247007   6.794   4.293   2.243  0.3691 -0.5364 -1.3689
 8506TIP3   OH247008   1.388   4.006  13.974  0.1835  0.3684  0.5957
 8506TIP3    H147009   1.422   4.068  13.910  1.2334  0.5156  1.2710
 8506TIP3    H247010   1.330   3.949  13.924 -0.3138  1.4993 -0.1527
 8507TIP3   OH247011   2.325   4.691  12.989 -0.3503  0.9674 -0.7015
 8507TIP3    H147012   2.340   4.762  12.927  0.1179  0.1086 -1.6133
 8507TIP3    H247013   2.315   4.613  12.934  2.7464 -0.3308  0.3294
 8508TIP3   OH247014   2.044   4.974  10.685 -0.3101 -0.5888 -0.7725
 8508TIP3    H147015   1.952   4.967  10.659 -0.4004 -0.0097 -0.6076
 8508TIP3    H247016   2.086   5.018  10.612 -0.6423  1.4270  0.1758
 8509TIP3   OH247017   0.689   3.217  14.883  0.4917 -0.5635 -0.1506
 8509TIP3    H147018   0.664   3.239  14.793 -0.5336  0.8836  0.4523
 8509TIP3    H247019   0.740   3.136  14.875  0.7045 -0.2757 -2.0546
 8510TIP3   OH247020   5.190   5.363   2.289  0.2815 -0.4091 -0.1510
 8510TIP3    H147021   5.123   5.401   2.232  0.3707 -0.3072 -0.1890
 8510TIP3    H247022   5.203   5.428   2.358  1.3977  0.2595 -0.9493
 8511TIP3   OH247023   5.520   2.423  16.604  0.6495 -0.2762 -0.4677
 8511TIP3    H147024   5.586   2.371  16.557  1.3729  0.1924  0.0034
 8511TIP3    H247025   5.524   2.509  16.562  1.5136  0.2374  0.6180
 8512TIP3   OH247026   2.038   5.583   1.993  0.1111 -0.3928 -0.5124
 8512TIP3    H147027   1.978   5.561   1.923  1.0480 -0.4350 -1.3226
 8512TIP3    H247028   2.121   5.602   1.949  0.3721  0.8914  0.4666
 8513TIP3   OH247029   0.424   4.352  14.278 -0.4475  0.1434  0.4096
 8513TIP3    H147030   0.422   4.344  14.183 -1.2817 -0.4652  0.4670
 8513TIP3    H247031   0.408   4.445  14.295 -3.0003 -0.1734  0.0093
 8514TIP3   OH247032   5.165   6.390  16.435 -0.1158 -0.9301  0.5424
 8514TIP3    H147033   5.116   6.335  16.497 -0.5937  0.2045  1.1903
 8514TIP3    H247034   5.139   6.357  16.349 -2.7411  0.1738  0.8257
 8515TIP3   OH247035   4.913   4.982  17.208 -0.0049 -0.1461  0.4327
 8515TIP3    H147036   4.903   4.888  17.222 -1.3333  0.0766  1.1850
 8515TIP3    H247037   4.908   4.992  17.113 -0.2170 -0.8065  0.3643
 8516TIP3   OH247038   0.956   0.642  14.132 -0.5871 -0.1090  0.3117
 8516TIP3    H147039   1.013   0.695  14.076  0.4801  1.2041  2.4830
 8516TIP3    H247040   0.874   0.691  14.136 -0.3093  0.3408  0.6736
 8517TIP3   OH247041   1.059   5.395  16.223 -0.0429  0.1148  0.0377
 8517TIP3    H147042   1.034   5.484  16.197 -2.4586  0.0408  1.7298
 8517TIP3    H247043   1.153   5.391  16.208 -0.4232  1.6271 -3.6829
 8518TIP3   OH247044   1.112   0.577   5.402 -0.3134 -0.3753 -0.1037
 8518TIP3    H147045   1.175   0.539   5.463 -0.4919  0.4138  0.5855
 8518TIP3    H247046   1.165   0.607   5.329  0.2590  1.1339  0.8831
 8519TIP3   OH247047   3.702   0.428   3.641  0.5406  0.0862  0.0966
 8519TIP3    H147048   3.763   0.440   3.714  1.5955 -0.2302 -0.6997
 8519TIP3    H247049   3.624   0.478   3.666  0.9614  0.1502  1.3372
 8520TIP3   OH247050   4.758   2.406  15.689  0.1572 -0.5613  0.0354
 8520TIP3    H147051   4.767   2.327  15.742 -0.1588 -1.4117 -1.1310
 8520TIP3    H247052   4.663   2.416  15.676 -0.0231  1.4680  2.2423
 8521TIP3   OH247053   6.787   0.813   1.093  0.4307 -0.1065 -0.2089
 8521TIP3    H147054   6.733   0.845   1.166  1.1713  1.3805 -0.2625
 8521TIP3    H247055   6.804   0.722   1.114  0.8506  0.3487  1.6530
 8522TIP3   OH247056   2.225   3.319   0.707 -0.0787 -0.3478  0.0889
 8522TIP3    H147057   2.310   3.318   0.750 -0.0875 -0.1723  0.1125
 8522TIP3    H247058   2.172   3.256   0.755  0.3196 -1.1536 -0.5058
 8523TIP3   OH247059   3.756   5.758  11.116  0.3661  0.5364 -0.2865
 8523TIP3    H147060   3.686   5.799  11.065 -0.2556 -0.3095 -0.1350
 8523TIP3    H247061   3.734   5.665  11.116  0.4460  0.4896  1.3802
 8524TIP3   OH247062   2.757   0.730  17.079 -0.4413  0.5036 -0.0003
 8524TIP3    H147063   2.681   0.677  17.055 -3.2853  2.9132  2.7983
 8524TIP3    H247064   2.762   0.797  17.012 -0.2663 -0.0993 -0.6055
 8525TIP3   OH247065   3.198   5.160  15.554 -0.1105  0.6543 -0.1653
 8525TIP3    H147066   3.264   5.155  15.484 -0.2833  1.5804 -0.4114
 8525TIP3    H247067   3.246   5.138  15.634  0.9841  3.0635 -0.0647
 8526TIP3   OH247068   2.021   3.683  15.502  0.8057 -0.7879  0.3520
 8526TIP3    H147069   2.026   3.762  15.448  1.4985  0.1168  1.6682
 8526TIP3    H247070   1.969   3.709  15.578 -0.0392 -1.9941  0.2146
 8527TIP3   OH247071   2.679   1.248  15.707 -0.2207  0.1873  0.0032
 8527TIP3    H147072   2.596   1.280  15.673 -0.7289 -1.0913 -0.0248
 8527TIP3    H247073   2.654   1.180  15.771  0.6888  2.3329  2.8469
 8528TIP3   OH247074   0.619   0.152  17.116  0.5872 -0.0315 -0.0203
 8528TIP3    H147075   0.701   0.202  17.119  1.1697 -1.0146  0.9460
 8528TIP3    H247076   0.647   0.061  17.107 -0.3665 -0.4516  1.1244
 8529TIP3   OH247077   2.213   6.408   2.167  0.5475  0.4936  0.2791
 8529TIP3    H147078   2.169   6.453   2.239  0.9008  1.8823 -0.3325
 8529TIP3    H247079   2.262   6.337   2.209  0.9770  1.4520  1.4526
 8530TIP3   OH247080   0.656   0.073   1.142 -0.3995 -0.3213  0.2335
 8530TIP3    H147081   0.622   0.111   1.223 -0.7710  0.1826 -0.1461
 8530TIP3    H247082   0.707  -0.003   1.170 -0.7135 -0.2880  0.9207
 8531TIP3   OH247083   5.005   4.352  15.307 -0.4718 -0.2879  0.5059
 8531TIP3    H147084   4.923   4.371  15.261  1.0814  1.8309 -1.7006
 8531TIP3    H247085   5.011   4.421  15.373 -0.4847 -0.4438  0.6681
 8532TIP3   OH247086   4.718   6.053   2.949  0.1072 -0.0991 -0.0234
 8532TIP3    H147087   4.802   6.015   2.975 -0.4481 -1.8598 -0.7257
 8532TIP3    H247088   4.653   5.989   2.977 -1.0545  1.2984  0.6279
 8533TIP3   OH247089   4.251   4.665  17.005  0.0348  0.0168 -0.5593
 8533TIP3    H147090   4.210   4.606  16.942  0.6812 -0.6487 -0.3596
 8533TIP3    H247091   4.181   4.685  17.067  0.2626 -1.9968  0.4192
 8534TIP3   OH247092   0.450   0.308  16.419  0.3867 -0.0347  0.2272
 8534TIP3    H147093   0.492   0.393  16.406 -0.0692  0.0280 -0.8936
 8534TIP3    H247094   0.446   0.299  16.515 -0.2773  1.5761  0.3941
 8535TIP3   OH247095   1.151   3.729  14.085  0.2199 -0.0387  0.4178
 8535TIP3    H147096   1.137   3.644  14.044 -2.3908  0.3458  0.2919
 8535TIP3    H247097   1.168   3.710  14.177  1.6625 -0.7420  0.0215
 8536TIP3   OH247098   3.394   2.266   1.736  0.0048  0.5092 -0.1775
 8536TIP3    H147099   3.483   2.297   1.752  0.6287 -0.7439 -1.0152
 8536TIP3    H247100   3.365   2.314   1.659  0.1809  0.5209 -0.2371
 8537TIP3   OH247101   0.382   5.098   2.548 -0.2289  0.2124 -0.2533
 8537TIP3    H147102   0.399   5.073   2.457  0.2665  1.0844 -0.4164
 8537TIP3    H247103   0.440   5.172   2.563 -1.2994  0.9498  0.3489
 8538TIP3   OH247104   6.108   6.703  14.229 -0.1713  0.1078 -0.3276
 8538TIP3    H147105   6.102   6.611  14.205 -1.3445  0.1898 -0.4130
 8538TIP3    H247106   6.117   6.749  14.145  0.3756  0.0821 -0.2877
 8539TIP3   OH247107   2.679   0.736   5.382 -0.2608  0.1349 -0.0099
 8539TIP3    H147108   2.774   0.730   5.385 -0.1796  1.3477  0.3916
 8539TIP3    H247109   2.650   0.703   5.467 -0.3340 -1.7481 -0.7037
 8540TIP3   OH247110   6.575   1.689  11.807  0.7760  0.6131  0.2825
 8540TIP3    H147111   6.575   1.763  11.747  0.0568  1.9797  1.8943
 8540TIP3    H247112   6.590   1.727  11.893 -0.3933 -1.0016  1.2678
 8541TIP3   OH247113   6.344   3.890   1.568 -0.1693  0.1091  0.1139
 8541TIP3    H147114   6.429   3.897   1.524  0.7046 -2.0474  1.3222
 8541TIP3    H247115   6.332   3.797   1.583 -1.9614  0.5088  1.5623
 8542TIP3   OH247116   5.331   5.659  12.074  0.3691  0.4579  0.4800
 8542TIP3    H147117   5.355   5.604  12.150  3.2848  0.2816 -0.4641
 8542TIP3    H247118   5.348   5.748  12.103 -2.8135  0.8958  1.4429
 8543TIP3   OH247119   0.755   5.733   1.705 -0.3065  0.1266  0.0203
 8543TIP3    H147120   0.839   5.778   1.699  0.6517 -1.5976 -0.2996
 8543TIP3    H247121   0.767   5.655   1.651 -2.4349  0.2802 -0.7454
 8544TIP3   OH247122   3.493   4.562   0.032 -0.3249  0.2685  0.2320
 8544TIP3    H147123   3.544   4.496  -0.014  0.8296  1.3623 -0.1354
 8544TIP3    H247124   3.443   4.606  -0.036 -1.2825 -0.3702  0.5061
 8545TIP3   OH247125   5.744   0.718  11.761  0.4092  0.4632 -0.2807
 8545TIP3    H147126   5.741   0.625  11.785  2.0619  0.5952  0.5857
 8545TIP3    H247127   5.656   0.738  11.730  0.5251 -1.9218 -2.4791
 8546TIP3   OH247128   3.141   2.767   3.287  0.9330  0.3071 -0.3936
 8546TIP3    H147129   3.228   2.751   3.323  1.6228 -1.6496 -2.6571
 8546TIP3    H247130   3.157   2.826   3.213  0.5566 -0.8907 -1.4716
 8547TIP3   OH247131   0.482   5.977  14.719  0.2344  0.0079  0.4799
 8547TIP3    H147132   0.527   5.956  14.638 -0.7349 -1.9571  0.3807
 8547TIP3    H247133   0.484   6.073  14.725 -0.2338  0.2408 -2.1721
 8548TIP3   OH247134   2.246   3.172  15.802  0.3732  0.3808  0.1573
 8548TIP3    H147135   2.280   3.177  15.713  0.3336  1.3309  0.1875
 8548TIP3    H247136   2.295   3.238  15.851  1.2288 -0.9210  1.1377
 8549TIP3   OH247137   5.631   2.534  14.374 -0.4897 -0.6224  0.2515
 8549TIP3    H147138   5.719   2.500  14.393  0.6479  2.5815  1.4113
 8549TIP3    H247139   5.595   2.471  14.312  3.0898 -1.4846 -1.2538
 8550TIP3   OH247140   4.678   1.755   1.727 -0.4729  0.7586  0.0023
 8550TIP3    H147141   4.715   1.692   1.665 -0.9444 -0.2674  0.7355
 8550TIP3    H247142   4.631   1.818   1.672 -0.5823  0.0679 -0.7151
 8551TIP3   OH247143   5.072   6.816   5.465  0.3894 -0.2131  0.6643
 8551TIP3    H147144   5.023   6.861   5.534  0.3000 -0.9886  1.1178
 8551TIP3    H247145   5.005   6.773   5.412  0.4718  0.2113  0.2109
 8552TIP3   OH247146   5.401   0.327  14.792 -0.0558  0.4247 -0.3171
 8552TIP3    H147147   5.428   0.415  14.817  3.5423 -0.0964 -1.7156
 8552TIP3    H247148   5.318   0.339  14.746  1.0263  3.3124 -1.7485
 8553TIP3   OH247149   5.039   1.155   4.973  0.0582 -0.0096 -0.0289
 8553TIP3    H147150   5.017   1.236   5.019 -1.8143 -1.8796  2.7053
 8553TIP3    H247151   4.955   1.114   4.953  0.8879 -0.4270 -3.2213
 8554TIP3   OH247152   6.058   0.819   5.881 -0.6379  1.0606 -0.0213
 8554TIP3    H147153   5.991   0.814   5.813 -2.2667  0.5256  1.5402
 8554TIP3    H247154   6.139   0.790   5.838 -2.0704 -1.5704 -1.1562
 8555TIP3   OH247155   2.511   5.721   6.205 -0.3030  0.2688 -0.0499
 8555TIP3    H147156   2.546   5.796   6.157 -1.8184  0.0440 -1.6049
 8555TIP3    H247157   2.582   5.658   6.207  0.5099  1.1582 -0.0106
 8556TIP3   OH247158   5.441   2.665  12.372  0.7459 -0.2093  0.2427
 8556TIP3    H147159   5.436   2.754  12.408 -1.8613 -0.7502  1.4768
 8556TIP3    H247160   5.366   2.658  12.314  1.4888 -1.3229 -0.6304
 8557TIP3   OH247161   5.827   6.344   3.733  0.5664 -0.4903 -0.8157
 8557TIP3    H147162   5.814   6.411   3.666 -0.5187  0.3278  0.1751
 8557TIP3    H247163   5.753   6.286   3.724  1.2404 -1.2876 -1.3352
 8558TIP3   OH247164   5.953   4.775   2.410 -0.0508 -0.4407 -0.7106
 8558TIP3    H147165   5.939   4.704   2.347 -0.9343 -0.5494 -0.4119
 8558TIP3    H247166   5.868   4.784   2.454  0.4092 -0.0343  0.1115
 8559TIP3   OH247167   6.093   5.124  13.246 -0.4019 -0.0326 -0.3931
 8559TIP3    H147168   6.067   5.214  13.227 -1.2846 -0.0766  0.4921
 8559TIP3    H247169   6.171   5.132  13.300 -0.4254  0.1913 -0.3921
 8560TIP3   OH247170   3.190   5.897  14.245  0.1648 -0.4520  0.2284
 8560TIP3    H147171   3.152   5.933  14.165  1.1838  0.0724 -0.0303
 8560TIP3    H247172   3.251   5.830  14.215  1.7424  0.8244  0.4382
 8561TIP3   OH247173   4.156   6.175   5.445 -0.3232 -0.1159 -0.3221
 8561TIP3    H147174   4.214   6.250   5.458 -0.1815 -0.1206 -0.9176
 8561TIP3    H247175   4.103   6.198   5.369 -1.2444 -0.0289  0.3288
 8562TIP3   OH247176   2.807   5.704   4.508  0.2442 -0.1506  0.2988
 8562TIP3    H147177   2.741   5.751   4.559 -0.7934 -2.0607  0.8323
 8562TIP3    H247178   2.802   5.742   4.420  0.1306  1.3349  0.9102
 8563TIP3   OH247179   2.875   4.889  10.359 -0.0765 -0.0254 -0.0033
 8563TIP3    H147180   2.949   4.951  10.356  0.7495 -0.8685  1.8037
 8563TIP3    H247181   2.914   4.806  10.383 -1.5712 -0.6001  0.5474
 8564TIP3   OH247182   3.225   1.181   3.907 -0.0179 -0.1530  0.7901
 8564TIP3    H147183   3.283   1.120   3.953  0.5210  0.4158  0.8694
 8564TIP3    H247184   3.151   1.127   3.879  0.1861 -0.7319  1.3469
 8565TIP3   OH247185   1.082   3.463  12.209 -0.0885 -0.1427 -0.2226
 8565TIP3    H147186   1.074   3.510  12.292 -1.1140 -1.5856  0.5239
 8565TIP3    H247187   1.118   3.378  12.233  2.0984  0.3019 -1.6065
 8566TIP3   OH247188   5.523   5.904  14.516 -0.1827  0.0912  0.1173
 8566TIP3    H147189   5.582   5.922  14.443 -0.5026  1.9327  0.2718
 8566TIP3    H247190   5.568   5.836  14.567 -0.0151 -1.3300 -1.8108
 8567TIP3   OH247191   1.873   1.563  16.444  0.1063 -0.0398  0.4567
 8567TIP3    H147192   1.943   1.500  16.462 -1.0307 -1.8619 -1.1517
 8567TIP3    H247193   1.826   1.571  16.527 -0.0699 -1.7955  0.5500
 8568TIP3   OH247194   3.860   2.217   1.350  0.6480  0.3507 -0.3743
 8568TIP3    H147195   3.864   2.124   1.375  1.2199  0.0349 -1.5637
 8568TIP3    H247196   3.875   2.217   1.256 -1.1924  1.5054 -0.7241
 8569TIP3   OH247197   4.966   2.188  12.508 -0.4602  0.2717  0.0411
 8569TIP3    H147198   4.934   2.277  12.517 -0.9807  0.1252 -0.2861
 8569TIP3    H247199   5.061   2.195  12.513 -0.5536  0.6246  1.8311
 8570TIP3   OH247200   3.264   5.319   0.430 -0.2813  0.5479 -0.1188
 8570TIP3    H147201   3.213   5.390   0.470 -1.0030 -0.4188  0.7426
 8570TIP3    H247202   3.292   5.265   0.504  1.1321  0.4750 -0.6744
 8571TIP3   OH247203   0.051   4.869   5.405  0.2569  0.6320  0.1226
 8571TIP3    H147204  -0.042   4.849   5.411 -0.4493  3.1416 -1.0626
 8571TIP3    H247205   0.083   4.863   5.495 -0.1339 -3.5955  0.2005
 8572TIP3   OH247206   1.327   6.386  13.230 -0.4099  0.1631 -0.2073
 8572TIP3    H147207   1.360   6.297  13.245 -0.2035  0.1124 -0.9388
 8572TIP3    H247208   1.311   6.390  13.136 -0.6676  0.8214 -0.1398
 8573TIP3   OH247209   0.679   2.360  14.867  0.6747  0.3767 -0.1023
 8573TIP3    H147210   0.651   2.281  14.821 -0.3191  1.3310 -1.2060
 8573TIP3    H247211   0.697   2.331  14.957 -0.5367 -0.9316 -0.2545
 8574TIP3   OH247212   3.957   1.006   3.090 -0.1601 -0.0911  0.0818
 8574TIP3    H147213   3.906   0.931   3.120  1.6336 -1.4174 -0.0325
 8574TIP3    H247214   4.023   0.969   3.031 -0.5863  1.8577 -1.7600
 8575TIP3   OH247215   4.666   4.111  14.567 -0.1179  0.4603  0.2775
 8575TIP3    H147216   4.620   4.169  14.627  0.3535 -0.6728  1.7942
 8575TIP3    H247217   4.596   4.070  14.515 -0.7206 -0.0458  1.4531
 8576TIP3   OH247218   1.262   5.070  11.262 -0.0750  0.0652  0.6532
 8576TIP3    H147219   1.223   5.153  11.234 -0.7081 -1.0618 -2.1907
 8576TIP3    H247220   1.192   5.005  11.250  1.3623 -1.3599 -0.5347
 8577TIP3   OH247221   3.704   1.164  15.481  0.3891 -0.1084 -0.2968
 8577TIP3    H147222   3.638   1.204  15.538  0.2373 -1.5799  0.6166
 8577TIP3    H247223   3.668   1.174  15.393 -0.0551  0.9371 -0.0218
 8578TIP3   OH247224   1.190   2.037   4.869 -0.2920  0.1511  0.0053
 8578TIP3    H147225   1.100   2.068   4.858 -0.7099 -1.4162 -1.3814
 8578TIP3    H247226   1.208   2.050   4.962 -0.1866  4.9089 -0.4380
 8579TIP3   OH247227   0.644   6.568   2.273  0.2383  0.1203  0.1352
 8579TIP3    H147228   0.575   6.528   2.326  0.0982 -1.2415 -1.0086
 8579TIP3    H247229   0.602   6.585   2.189  1.1655 -0.3613 -0.4433
 8580TIP3   OH247230   1.518   2.046   3.704  1.1336  0.3566 -0.0585
 8580TIP3    H147231   1.453   1.993   3.658 -0.5356  0.5661  1.8972
 8580TIP3    H247232   1.570   2.086   3.634 -1.3545  0.8265 -1.7970
 8581TIP3   OH247233   6.490   3.715   1.775  0.6933  0.6236  0.2455
 8581TIP3    H147234   6.530   3.656   1.839  0.6787  0.1596 -0.1674
 8581TIP3    H247235   6.529   3.690   1.691  1.3460  1.7851  0.1853
 8582TIP3   OH247236   3.306   1.841  14.810 -0.3666  0.1869  0.3979
 8582TIP3    H147237   3.284   1.874  14.723 -1.3791  0.8884  0.9019
 8582TIP3    H247238   3.389   1.884  14.832  0.7697 -1.2652 -0.8766
 8583TIP3   OH247239   5.472   5.327  12.969  0.1841  0.1659 -0.6492
 8583TIP3    H147240   5.407   5.378  13.017  1.3395 -0.1589  1.3748
 8583TIP3    H247241   5.468   5.240  13.009  1.9298  0.1761 -0.3802
 8584TIP3   OH247242   1.348   0.330   4.433  0.3239  0.5081  0.0193
 8584TIP3    H147243   1.418   0.391   4.455  0.8767 -0.1928  0.2359
 8584TIP3    H247244   1.381   0.244   4.462 -0.6164  0.1708  0.1240
 8585TIP3   OH247245   4.162   6.811  14.004  0.3132  0.6135 -0.0430
 8585TIP3    H147246   4.198   6.857  14.080 -3.0715 -0.0491  2.1563
 8585TIP3    H247247   4.180   6.719  14.021  1.1157  0.5730 -1.0241
 8586TIP3   OH247248   4.434   6.812   2.715 -0.3900 -0.4310 -0.8700
 8586TIP3    H147249   4.342   6.839   2.718 -0.2107  0.2510 -1.2308
 8586TIP3    H247250   4.474   6.857   2.790 -0.0846  0.3488 -1.4839
 8587TIP3   OH247251   3.315   6.070  14.718 -0.0746 -0.1564  0.1620
 8587TIP3    H147252   3.338   6.161  14.733  0.7497 -0.1035 -1.1913
 8587TIP3    H247253   3.331   6.056  14.624 -1.6587 -1.2792  0.0054
 8588TIP3   OH247254   5.400   5.553  11.583  0.3928  0.2045  0.1145
 8588TIP3    H147255   5.402   5.550  11.487  2.3965 -1.1875  0.1232
 8588TIP3    H247256   5.451   5.631  11.605 -1.7195  1.6739  0.1078
 8589TIP3   OH247257   4.088   1.850  13.410  0.0807  0.4902 -0.0903
 8589TIP3    H147258   4.180   1.875  13.404 -0.4232  2.2923 -0.8450
 8589TIP3    H247259   4.082   1.767  13.363  1.0607  1.1049 -1.3381
 8590TIP3   OH247260   5.125   2.400   4.673  0.2560 -0.3764  0.2585
 8590TIP3    H147261   5.068   2.323   4.680 -1.7030  0.8575 -1.0951
 8590TIP3    H247262   5.092   2.460   4.740  1.7418 -0.6356  1.2723
 8591TIP3   OH247263   2.174   5.063   2.067  0.2388 -0.0938  0.1426
 8591TIP3    H147264   2.246   5.018   2.022 -0.0872 -1.0655  0.5614
 8591TIP3    H247265   2.210   5.087   2.152  0.3625  0.2960 -0.0185
 8592TIP3   OH247266   3.881   2.951   1.421 -0.2875  0.0686 -0.3774
 8592TIP3    H147267   3.901   2.962   1.514  2.2895  0.8695 -0.9490
 8592TIP3    H247268   3.844   2.863   1.415  0.5912 -0.4703  1.2631
 8593TIP3   OH247269   2.883   3.122  14.002  0.2315  0.6357  0.6116
 8593TIP3    H147270   2.975   3.145  13.988 -0.1003  1.3314 -0.5723
 8593TIP3    H247271   2.866   3.149  14.093  1.6838 -1.2880  1.5230
 8594TIP3   OH247272   4.772   1.705   5.807 -0.5710  0.0018 -0.4792
 8594TIP3    H147273   4.821   1.731   5.885 -0.8983 -1.2436  0.1744
 8594TIP3    H247274   4.707   1.773   5.796 -0.8281 -0.0352  0.6332
 8595TIP3   OH247275   4.832   1.041   3.146 -0.2470  0.7686  0.0992
 8595TIP3    H147276   4.905   1.102   3.137 -0.6017  1.0817 -0.7204
 8595TIP3    H247277   4.804   1.023   3.056 -0.0980 -0.6675  0.3108
 8596TIP3   OH247278   3.202   1.145  16.611 -0.9522 -0.3943  0.1262
 8596TIP3    H147279   3.164   1.194  16.685 -0.2764 -1.0248  0.9083
 8596TIP3    H247280   3.155   1.178  16.535 -1.0362  0.9378  0.7209
 8597TIP3   OH247281   3.470   4.887  12.674 -0.6044 -0.3563  0.7610
 8597TIP3    H147282   3.523   4.867  12.751  0.4005  0.5726  0.3453
 8597TIP3    H247283   3.455   4.981  12.679  0.0638 -0.1653 -0.5264
 8598TIP3   OH247284   1.560   5.006  13.743  0.6139 -0.0164 -0.4552
 8598TIP3    H147285   1.650   5.008  13.778 -0.1106 -0.0743  1.5396
 8598TIP3    H247286   1.530   5.097  13.748 -0.2018 -0.3359  1.1251
 8599TIP3   OH247287   1.593   4.276  16.355  1.1450 -0.4835 -0.1326
 8599TIP3    H147288   1.611   4.286  16.449 -1.5840  2.6730  0.2211
 8599TIP3    H247289   1.666   4.320  16.312  0.3885  1.8090  0.7681
 8600TIP3   OH247290   4.683   6.710   3.136 -0.1651 -0.2982  0.4927
 8600TIP3    H147291   4.617   6.641   3.134 -0.4142 -0.0838  1.0438
 8600TIP3    H247292   4.727   6.698   3.220  0.3562 -0.3055  0.2219
 8601TIP3   OH247293   0.863   6.737  10.453 -0.0564 -0.7183  0.5475
 8601TIP3    H147294   0.794   6.690  10.499  1.3957 -1.5746  1.9895
 8601TIP3    H247295   0.884   6.681  10.378  0.2333 -1.3575  1.0866
 8602TIP3   OH247296   6.006   4.003  15.540  0.2195 -0.1341  0.5951
 8602TIP3    H147297   6.093   4.019  15.505  0.3733 -1.0687  0.5086
 8602TIP3    H247298   6.021   3.973  15.629 -0.0955  0.9192  1.0177
 8603TIP3   OH247299   5.760   2.481   5.547  0.1218  0.3120 -0.0354
 8603TIP3    H147300   5.807   2.398   5.554  1.2800  0.9695  0.2188
 8603TIP3    H247301   5.690   2.464   5.484  1.1315 -0.5057 -0.9670
 8604TIP3   OH247302   2.505   6.258   3.546 -0.1959  0.0318  0.1582
 8604TIP3    H147303   2.430   6.297   3.592  1.3243  0.9547  2.0116
 8604TIP3    H247304   2.524   6.179   3.596 -0.4227 -0.6561 -0.8209
 8605TIP3   OH247305   1.961   0.869   3.528  0.0019 -0.4040 -0.6933
 8605TIP3    H147306   2.011   0.946   3.501  1.0895 -0.9106 -0.1814
 8605TIP3    H247307   1.908   0.900   3.602 -0.2970  0.0813 -1.1024
 8606TIP3   OH247308   6.376   5.604  12.759  0.0982 -0.1941  0.5242
 8606TIP3    H147309   6.330   5.687  12.766  0.2365 -0.0643 -0.0207
 8606TIP3    H247310   6.438   5.604  12.832 -1.1445 -0.6301  1.6221
 8607TIP3   OH247311   5.132   0.013   0.659  0.6781  0.2176  0.4252
 8607TIP3    H147312   5.090  -0.044   0.723  3.5262 -0.8984  1.4453
 8607TIP3    H247313   5.154  -0.045   0.586 -0.1746  0.9427 -0.4345
 8608TIP3   OH247314   4.868   5.140  12.345  0.2693  0.0573 -0.3997
 8608TIP3    H147315   4.877   5.098  12.431  0.2032  1.6515  0.4185
 8608TIP3    H247316   4.783   5.182  12.348  0.8331  1.2608 -0.7097
 8609TIP3   OH247317   4.473   0.675  14.727 -0.5552  0.4640  1.1868
 8609TIP3    H147318   4.563   0.704  14.738 -0.2704 -0.4728  1.4058
 8609TIP3    H247319   4.456   0.618  14.802 -0.3553 -1.6912 -0.3191
 8610TIP3   OH247320   5.001   0.549   0.385 -0.4787  0.6410 -0.6079
 8610TIP3    H147321   5.046   0.478   0.429 -1.5357 -0.9470 -1.9626
 8610TIP3    H247322   5.063   0.581   0.320 -0.4846 -0.0000 -0.9315
 8611TIP3   OH247323   1.041   3.924   4.990  0.0253  0.4448  0.3158
 8611TIP3    H147324   1.045   3.829   5.000 -3.1736 -0.0607 -1.5923
 8611TIP3    H247325   1.122   3.956   5.029  0.5165 -2.9051  2.4441
 8612TIP3   OH247326   2.888   0.602   3.581  0.2657  0.0036  0.3912
 8612TIP3    H147327   2.975   0.641   3.593 -0.0733  1.5545 -1.6647
 8612TIP3    H247328   2.832   0.652   3.640  0.4654  0.1701  0.4444
 8613TIP3   OH247329   6.365   4.085  13.774 -0.0008  0.5778 -0.1230
 8613TIP3    H147330   6.452   4.097  13.734  0.0874  0.4745  0.0393
 8613TIP3    H247331   6.382   4.034  13.853 -0.2948 -0.0172 -0.4381
 8614TIP3   OH247332   0.291   5.449   5.524  0.0664  0.1795 -0.0829
 8614TIP3    H147333   0.294   5.467   5.618 -1.2989  0.7652 -0.1249
 8614TIP3    H247334   0.316   5.531   5.483  0.6741 -0.0799 -0.2403
 8615TIP3   OH247335   2.893   4.723   0.325 -0.7465  0.2615 -0.3063
 8615TIP3    H147336   2.965   4.729   0.387 -1.5982 -0.1243  0.7377
 8615TIP3    H247337   2.918   4.783   0.254 -0.1365  1.3249  0.7732
 8616TIP3   OH247338   5.728   2.203  14.968  0.4274  0.1735  0.2748
 8616TIP3    H147339   5.662   2.272  14.963 -1.5614 -1.7404 -1.8651
 8616TIP3    H247340   5.811   2.249  14.958 -0.7787  2.2999 -0.6589
 8617TIP3   OH247341   6.003   1.560   3.067 -0.0003 -0.9366 -0.4612
 8617TIP3    H147342   6.009   1.653   3.091  3.3001 -1.1325  0.0290
 8617TIP3    H247343   5.959   1.519   3.142  2.8563 -0.3461  1.7143
 8618TIP3   OH247344   6.803   3.251   5.700 -0.1606 -0.2712 -0.1624
 8618TIP3    H147345   6.760   3.321   5.749  0.5702  0.8779 -1.1210
 8618TIP3    H247346   6.776   3.265   5.609  0.6245 -0.7513 -0.4773
 8619TIP3   OH247347   3.291   4.137   4.923  0.2576 -0.5490 -0.4794
 8619TIP3    H147348   3.324   4.161   4.836  0.9894 -0.3513 -0.1532
 8619TIP3    H247349   3.251   4.051   4.910  2.1095 -1.4481 -0.6311
 8620TIP3   OH247350   6.627   0.806  12.838  0.3148  0.5343 -0.5990
 8620TIP3    H147351   6.615   0.796  12.744  0.0226  0.3730 -0.5473
 8620TIP3    H247352   6.702   0.864  12.847 -0.0462  1.0564 -0.9341
 8621TIP3   OH247353   4.910   1.307   4.350 -0.2129  0.2171  0.1626
 8621TIP3    H147354   4.990   1.359   4.361  0.7608 -0.6604 -2.0888
 8621TIP3    H247355   4.905   1.255   4.430  2.2333 -0.5919 -0.0990
 8622TIP3   OH247356   0.702   4.555   1.575  0.3314 -0.4324 -0.2126
 8622TIP3    H147357   0.723   4.491   1.642  0.9925  1.2432  1.2667
 8622TIP3    H247358   0.638   4.613   1.616  1.1054  0.9195 -0.8337
 8623TIP3   OH247359   5.648   0.634   4.699 -0.0789  0.1324 -1.0195
 8623TIP3    H147360   5.656   0.722   4.662  0.5718 -0.3400 -2.0488
 8623TIP3    H247361   5.565   0.635   4.746 -0.1853  1.2294 -1.2061
 8624TIP3   OH247362   1.785   6.364  11.943 -0.2306 -0.1180 -0.0028
 8624TIP3    H147363   1.723   6.431  11.972  0.2618  0.8517 -1.0891
 8624TIP3    H247364   1.730   6.289  11.920 -1.0017  0.6481 -0.7325
 8625TIP3   OH247365   5.370   0.693  12.425  0.6238  0.1463  0.2803
 8625TIP3    H147366   5.414   0.618  12.386  1.6324  0.6395  0.4443
 8625TIP3    H247367   5.350   0.666  12.514 -1.0429 -0.7239 -0.3157
 8626TIP3   OH247368   4.799   5.464   0.944  0.4444 -0.4994 -0.2667
 8626TIP3    H147369   4.848   5.392   0.985  0.7093 -0.8840 -1.2219
 8626TIP3    H247370   4.839   5.543   0.980  0.2472 -0.8172  0.6914
 8627TIP3   OH247371   6.479   4.113   3.551  0.2195  0.0136 -0.0314
 8627TIP3    H147372   6.560   4.155   3.580  1.9922 -2.6591 -0.7354
 8627TIP3    H247373   6.466   4.144   3.462  0.7129  0.0916 -0.0778
 8628TIP3   OH247374   2.172   6.397  15.756  0.3274 -0.2765  0.3631
 8628TIP3    H147375   2.224   6.459  15.806  1.4237  0.1091 -1.1795
 8628TIP3    H247376   2.217   6.313  15.768  0.0900 -0.3545  0.7130
 8629TIP3   OH247377   0.412   0.064   1.022 -0.0644  0.0984 -0.0315
 8629TIP3    H147378   0.349   0.039   1.089 -1.0980  0.5357 -0.8114
 8629TIP3    H247379   0.487   0.098   1.071 -0.4500 -0.3630  0.9120
 8630TIP3   OH247380   0.491   1.250   0.353 -0.0762 -0.5955 -0.5730
 8630TIP3    H147381   0.512   1.279   0.264  2.2955 -0.8252 -0.1435
 8630TIP3    H247382   0.431   1.177   0.341 -2.2610  1.2529 -1.8358
 8631TIP3   OH247383   0.339   2.497  12.701  0.2257 -0.3729 -0.1193
 8631TIP3    H147384   0.430   2.526  12.693  0.0551  0.2889  0.2787
 8631TIP3    H247385   0.329   2.478  12.794 -0.2601  0.3092 -0.0255
 8632TIP3   OH247386   2.278   0.065   0.065  0.2364  0.1460 -0.1834
 8632TIP3    H147387   2.198   0.027   0.101  1.5834 -1.3718  1.3981
 8632TIP3    H247388   2.344  -0.004   0.076  1.9226  1.5946 -0.7860
 8633TIP3   OH247389   6.214   0.879  13.635 -0.5029 -0.5639 -0.0284
 8633TIP3    H147390   6.274   0.811  13.665  4.1450  2.3560 -1.5781
 8633TIP3    H247391   6.211   0.869  13.540  2.6963  2.7346 -0.7031
 8634TIP3   OH247392   5.988   3.542   0.683  0.1218 -0.5187  0.2506
 8634TIP3    H147393   6.021   3.463   0.727  0.2900  0.1055  1.2950
 8634TIP3    H247394   5.933   3.509   0.612  1.4767 -1.5859 -0.3606
 8635TIP3   OH247395   4.390   3.077  16.652 -0.9191  0.0112 -0.2569
 8635TIP3    H147396   4.317   3.026  16.687 -1.0371 -0.1435 -0.7251
 8635TIP3    H247397   4.386   3.063  16.557 -1.3236  1.3593 -0.4589
 8636TIP3   OH247398   6.215   2.053  13.237  1.0601 -0.1403  0.8107
 8636TIP3    H147399   6.197   1.986  13.171  1.3146 -0.1406  0.7408
 8636TIP3    H247400   6.175   2.019  13.317  1.1000 -0.3280  0.7519
 8637TIP3   OH247401   5.312   4.264   4.216  0.7314  0.1357 -0.1375
 8637TIP3    H147402   5.393   4.219   4.240  1.2459 -1.5204 -4.1764
 8637TIP3    H247403   5.246   4.195   4.211 -0.3509  1.0760  0.7037
 8638TIP3   OH247404   5.963   4.220   1.635  0.4703 -0.1165  0.4982
 8638TIP3    H147405   5.897   4.153   1.651 -1.3427  1.4714  0.0426
 8638TIP3    H247406   6.046   4.178   1.656 -0.6977 -2.1063  1.3676
 8639TIP3   OH247407   3.595   0.317  17.019  0.4235 -0.1679 -0.0925
 8639TIP3    H147408   3.639   0.249  17.070  1.6741  0.3996 -0.3638
 8639TIP3    H247409   3.597   0.285  16.929 -0.0438 -0.2973 -0.0598
 8640TIP3   OH247410   2.174   3.790  14.832 -0.0643 -0.0097 -0.3740
 8640TIP3    H147411   2.165   3.706  14.788 -0.8444  1.1038 -2.4892
 8640TIP3    H247412   2.268   3.804  14.839  0.0741 -1.1041  0.1441
 8641TIP3   OH247413   4.138   5.715   4.445  0.1818  0.0681 -0.4729
 8641TIP3    H147414   4.109   5.667   4.523 -0.1640  0.4517 -0.3625
 8641TIP3    H247415   4.181   5.648   4.391 -1.1136 -0.5761 -0.7443
 8642TIP3   OH247416   4.594   6.469  16.023  0.0142  0.2726 -0.2187
 8642TIP3    H147417   4.551   6.475  16.109 -0.9190  0.4295 -0.6780
 8642TIP3    H247418   4.650   6.392  16.029  1.8268  1.6290  1.3246
 8643TIP3   OH247419   2.954   3.025   3.156 -0.6020 -0.2139 -0.2173
 8643TIP3    H147420   2.977   3.041   3.248 -0.1115 -2.2277  0.0652
 8643TIP3    H247421   2.966   3.109   3.113  0.9135  0.3543  1.2172
 8644TIP3   OH247422   4.594   5.909  15.041  0.5669 -0.1927  0.5890
 8644TIP3    H147423   4.621   6.000  15.055 -1.1314  0.2622  1.0969
 8644TIP3    H247424   4.670   5.868  15.001  1.0861  1.6536 -0.4356
 8645TIP3   OH247425   6.685   3.144  12.123  0.0766  0.5902 -0.5956
 8645TIP3    H147426   6.674   3.229  12.080  0.5504  0.9325 -0.0544
 8645TIP3    H247427   6.750   3.160  12.192 -0.7344  0.0838  0.3195
 8646TIP3   OH247428   5.999   0.353   2.333 -0.1456  0.5633 -0.0889
 8646TIP3    H147429   6.041   0.279   2.290 -0.6312  1.2095 -1.7914
 8646TIP3    H247430   6.072   0.407   2.365  0.2206 -0.2050  0.3963
 8647TIP3   OH247431   2.089   1.225   0.823  0.0095  0.5610 -1.2412
 8647TIP3    H147432   2.097   1.310   0.865 -0.8981 -0.1683  0.5413
 8647TIP3    H247433   2.013   1.234   0.765  1.2859  1.5919 -2.8103
 8648TIP3   OH247434   0.471   5.254   6.913  0.1890 -0.3715  0.8774
 8648TIP3    H147435   0.429   5.177   6.873 -0.8336  0.2887  0.6229
 8648TIP3    H247436   0.553   5.263   6.865 -1.2776  0.7603 -1.6189
 8649TIP3   OH247437   4.475   5.736  15.399 -0.0415 -0.5027 -0.1961
 8649TIP3    H147438   4.396   5.683  15.388  0.6355 -1.3611 -1.0426
 8649TIP3    H247439   4.451   5.799  15.467 -1.1417 -1.3647  0.2620
 8650TIP3   OH247440   5.040   2.830  15.112 -0.2025 -0.6028  0.4682
 8650TIP3    H147441   5.072   2.877  15.035 -0.1900 -1.2706  0.0536
 8650TIP3    H247442   4.980   2.764  15.077  0.3858 -1.4199  0.9382
 8651TIP3   OH247443   1.358   2.836   0.386  0.2600  1.2099 -0.3869
 8651TIP3    H147444   1.376   2.890   0.310 -2.0178  2.8134  0.1084
 8651TIP3    H247445   1.322   2.897   0.451 -1.9594 -0.7561  0.3865
 8652TIP3   OH247446   5.042   5.624   4.166 -0.4338  0.0034 -0.2729
 8652TIP3    H147447   4.953   5.632   4.201 -0.3134 -0.8759  0.2608
 8652TIP3    H247448   5.083   5.708   4.186 -1.0651  0.3197 -0.2888
 8653TIP3   OH247449   3.913   1.746   3.832 -0.3159  0.4184  0.4119
 8653TIP3    H147450   3.896   1.796   3.911  0.4793 -2.2504  2.4535
 8653TIP3    H247451   4.005   1.718   3.840 -0.1341  0.2332 -1.5959
 8654TIP3   OH247452   1.110   3.214   4.692  0.6255  0.7449 -0.1745
 8654TIP3    H147453   1.182   3.193   4.631  1.0145 -0.2571  0.5994
 8654TIP3    H247454   1.148   3.200   4.779 -0.6812 -0.4008  0.2340
 8655TIP3   OH247455   4.120   5.581  14.790  0.0756 -0.5433  0.1249
 8655TIP3    H147456   4.199   5.630  14.811 -0.1469 -0.4271  0.6959
 8655TIP3    H247457   4.050   5.625  14.838  0.0931 -2.2532  1.8685
 8656TIP3   OH247458   1.521   6.433   3.175 -0.6648  0.3523 -0.1664
 8656TIP3    H147459   1.541   6.527   3.174  3.3087 -0.3188  0.0042
 8656TIP3    H247460   1.525   6.407   3.083 -1.3562  0.2757 -0.1756
 8657TIP3   OH247461   1.743   2.884   5.139 -0.1541 -0.6174 -0.1650
 8657TIP3    H147462   1.692   2.859   5.217  1.4384 -1.3808  0.6841
 8657TIP3    H247463   1.817   2.933   5.175  0.4928 -0.8024 -1.2301
 8658TIP3   OH247464   4.723   1.897  15.154  0.2850 -0.4258 -0.1844
 8658TIP3    H147465   4.789   1.882  15.085  0.4249 -0.7305  0.0136
 8658TIP3    H247466   4.679   1.813  15.163 -1.5549  0.2898 -1.7663
 8659TIP3   OH247467   5.042   5.988  17.135  0.6074  0.2843  0.0323
 8659TIP3    H147468   5.075   5.913  17.184  0.6465 -0.5747 -1.2493
 8659TIP3    H247469   4.947   5.977  17.136  0.6675 -0.9781 -1.8569
 8660TIP3   OH247470   3.006   0.430  12.451  0.3400  0.0615 -0.0282
 8660TIP3    H147471   3.059   0.460  12.525 -0.8042 -0.5078  1.0657
 8660TIP3    H247472   2.920   0.468  12.466  0.3703  0.8997 -1.7356
 8661TIP3   OH247473   4.263   4.299   1.210  0.2804 -0.5085  0.0905
 8661TIP3    H147474   4.209   4.320   1.134  1.3906 -0.6642 -0.7726
 8661TIP3    H247475   4.349   4.335   1.189  0.3872  0.3025  1.7078
 8662TIP3   OH247476   1.661   3.335   5.220  0.2643  0.1952 -0.1691
 8662TIP3    H147477   1.732   3.396   5.203 -0.3137  1.7278  2.3715
 8662TIP3    H247478   1.581   3.388   5.213 -0.3200 -0.4526  1.1662
 8663TIP3   OH247479   5.572   1.769  14.173 -0.3159 -0.1494  0.3069
 8663TIP3    H147480   5.520   1.734  14.246 -0.4469  1.9283  1.2750
 8663TIP3    H247481   5.639   1.702  14.158 -0.0327 -0.4723  2.6135
 8664TIP3   OH247482   5.332   0.637  17.146  0.0316  0.4286  0.6627
 8664TIP3    H147483   5.330   0.584  17.066 -1.1099  1.1464  0.1899
 8664TIP3    H247484   5.371   0.720  17.118  1.7126 -0.0773  1.3721
 8665TIP3   OH247485   4.148   4.280   3.471  0.2278  0.1903 -0.4989
 8665TIP3    H147486   4.202   4.319   3.541  0.3117  1.7599 -1.3834
 8665TIP3    H247487   4.076   4.238   3.517  0.9102  0.1682  0.5929
 8666TIP3   OH247488   1.000   4.391   3.042  0.2830  0.1621 -0.2572
 8666TIP3    H147489   0.934   4.444   3.086  0.0848  1.3947 -1.9534
 8666TIP3    H247490   1.056   4.454   2.997 -0.5178 -1.0355 -3.1373
 8667TIP3   OH247491   2.210   6.725  12.683 -0.3512  0.2592 -0.3416
 8667TIP3    H147492   2.303   6.719  12.704 -0.2807 -1.0949 -0.9230
 8667TIP3    H247493   2.192   6.818  12.676  0.8493  0.5490  0.2547
 8668TIP3   OH247494   3.489   4.126  14.185  0.3804  0.5061  0.4398
 8668TIP3    H147495   3.540   4.112  14.265  0.9417 -1.1291 -0.1663
 8668TIP3    H247496   3.551   4.167  14.124  1.0350 -1.4658 -0.2906
 8669TIP3   OH247497   1.081   4.324  16.504  0.0796 -0.1579 -0.1010
 8669TIP3    H147498   1.084   4.396  16.567 -0.6911  0.8419 -1.1651
 8669TIP3    H247499   1.168   4.325  16.463  0.7745 -1.1657  1.2957
 8670TIP3   OH247500   5.836   3.743   2.029  0.2178  0.6309  0.3679
 8670TIP3    H147501   5.844   3.712   2.120 -0.0693  0.5462  0.3666
 8670TIP3    H247502   5.747   3.777   2.024 -0.0852 -0.1887 -0.1279
 8671TIP3   OH247503   1.015   5.820   2.916 -0.6003 -0.3708  0.6156
 8671TIP3    H147504   0.941   5.760   2.902 -0.4168  0.0225 -3.2744
 8671TIP3    H247505   1.089   5.762   2.934 -0.8419 -1.2430 -0.9630
 8672TIP3   OH247506   4.803   4.033   4.448  0.0954  0.4652  0.3145
 8672TIP3    H147507   4.800   4.110   4.391 -1.9296  0.8885  0.9238
 8672TIP3    H247508   4.777   3.960   4.392 -3.6801  1.1283  0.9017
 8673TIP3   OH247509   5.038   1.172  13.024  0.3340  0.3166  0.4025
 8673TIP3    H147510   4.965   1.233  13.025 -0.0363 -0.1227  2.0411
 8673TIP3    H247511   5.002   1.090  13.055  0.7212 -0.9298 -2.1704
 8674TIP3   OH247512   1.357   3.976  15.122  0.1665  0.0757  0.3180
 8674TIP3    H147513   1.332   4.024  15.201 -2.0840 -1.5093  0.6370
 8674TIP3    H247514   1.452   3.964  15.131  0.3146  1.8537  1.6489
 8675TIP3   OH247515   0.044   3.340  11.464 -0.2864 -0.0822 -0.2065
 8675TIP3    H147516   0.130   3.381  11.453 -0.3555  0.1081 -0.0342
 8675TIP3    H247517   0.015   3.319  11.375 -0.4048  0.5515 -0.3192
 8676TIP3   OH247518   4.636   4.615  13.802  0.4203 -0.0660  0.5635
 8676TIP3    H147519   4.620   4.644  13.891 -1.2277  1.4126 -0.1647
 8676TIP3    H247520   4.642   4.696  13.751 -1.1207 -0.8989 -1.0339
 8677TIP3   OH247521   0.823   6.508  10.337 -0.1253 -0.0472  0.7245
 8677TIP3    H147522   0.733   6.510  10.304 -0.0796  0.7849  0.6186
 8677TIP3    H247523   0.827   6.429  10.390 -1.1213  0.2246  1.2471
 8678TIP3   OH247524   2.368   3.118  10.843 -0.2108  0.0817  0.3013
 8678TIP3    H147525   2.324   3.180  10.786  0.5459 -0.9350 -1.4584
 8678TIP3    H247526   2.462   3.132  10.827  0.0201 -0.2837  1.2364
 8679TIP3   OH247527   4.452   0.465  13.273  0.0020  0.3479  1.0140
 8679TIP3    H147528   4.543   0.477  13.300  1.3620 -1.7318 -2.0535
 8679TIP3    H247529   4.423   0.552  13.247  1.8803  0.7439  0.0962
 8680TIP3   OH247530   6.198   0.800  17.071 -0.0562 -0.2119 -0.1794
 8680TIP3    H147531   6.225   0.775  16.983  0.0157  1.2351 -0.5815
 8680TIP3    H247532   6.277   0.789  17.124  0.0868 -0.3982 -0.4316
 8681TIP3   OH247533   3.161   4.436   4.714 -0.2740 -0.5808 -0.2056
 8681TIP3    H147534   3.186   4.464   4.626 -0.2307  1.6766  0.4511
 8681TIP3    H247535   3.194   4.347   4.721  1.2986 -0.1964 -1.8652
 8682TIP3   OH247536   1.173   3.932  13.533 -0.2167 -0.2114  0.0880
 8682TIP3    H147537   1.252   3.938  13.480 -0.0394 -1.8267  0.0982
 8682TIP3    H247538   1.205   3.922  13.623 -0.3906 -1.4169  0.0330
 8683TIP3   OH247539   6.319   2.819   5.353 -0.0770  0.0362  0.0087
 8683TIP3    H147540   6.250   2.784   5.297  0.9921 -1.3599 -0.4861
 8683TIP3    H247541   6.309   2.914   5.348 -0.3506 -0.0667 -2.1334
 8684TIP3   OH247542   5.199   2.231   0.025  0.6512 -0.7238  0.1371
 8684TIP3    H147543   5.140   2.200  -0.044  1.4796  2.2151 -2.0306
 8684TIP3    H247544   5.140   2.266   0.092 -0.1587  0.7975 -1.3165
 8685TIP3   OH247545   4.250   5.943   5.350 -0.0808 -0.3353  0.1063
 8685TIP3    H147546   4.204   6.011   5.400 -2.4590 -0.3383 -1.8560
 8685TIP3    H247547   4.280   5.881   5.416  0.6720  1.7356  1.8201
 8686TIP3   OH247548   0.110   3.979  15.025  0.0591  0.5202  0.4582
 8686TIP3    H147549   0.120   3.886  15.045  0.0030  0.7164  1.4660
 8686TIP3    H247550   0.197   4.007  14.996  0.5536  0.5411  1.8959
 8687TIP3   OH247551   1.820   1.794  13.706  0.2088 -0.0552  0.6202
 8687TIP3    H147552   1.783   1.814  13.620 -1.2762  1.1967  1.4999
 8687TIP3    H247553   1.785   1.708  13.728  1.5876 -0.9587 -0.5043
 8688TIP3   OH247554   4.417   3.689  13.781 -0.4096 -0.3471  0.1735
 8688TIP3    H147555   4.338   3.743  13.785 -0.7183 -0.8570  1.2067
 8688TIP3    H247556   4.413   3.634  13.859  0.8015 -0.6185  0.0670
 8689TIP3   OH247557   5.747   4.310   3.154  0.0971 -0.9074 -0.2661
 8689TIP3    H147558   5.658   4.292   3.184  0.8981 -1.4057  2.0202
 8689TIP3    H247559   5.795   4.228   3.169  1.3873 -0.0640  0.3936
 8690TIP3   OH247560   0.499   1.967   3.773  0.0105  0.1169  0.1080
 8690TIP3    H147561   0.469   2.012   3.852  0.3618 -1.6905  1.3295
 8690TIP3    H247562   0.439   1.997   3.704 -0.9488  0.9500  1.2627
 8691TIP3   OH247563   0.765   3.799  13.289  0.0240 -0.6533 -0.4032
 8691TIP3    H147564   0.845   3.782  13.339 -0.3704  0.9997  0.8544
 8691TIP3    H247565   0.796   3.837  13.206  0.5798 -1.2613 -0.4832
 8692TIP3   OH247566   6.823   0.414  14.425  0.0203 -0.1148 -0.3974
 8692TIP3    H147567   6.855   0.503  14.430 -0.6625  0.0756  1.1461
 8692TIP3    H247568   6.813   0.397  14.332  0.8024  1.1745 -0.7354
 8693TIP3   OH247569   4.366   1.430  13.288  0.7736  0.5393  0.2612
 8693TIP3    H147570   4.447   1.435  13.338  1.5522  0.1378 -0.9161
 8693TIP3    H247571   4.352   1.336  13.274  0.3124  0.6243  0.1230
 8694TIP3   OH247572   2.840   4.387  13.921  0.5327 -0.1933  0.2394
 8694TIP3    H147573   2.770   4.331  13.954 -0.9157  0.0320 -2.1817
 8694TIP3    H247574   2.872   4.342  13.843  2.5609  0.1290  0.8399
 8695TIP3   OH247575   0.778   1.606  13.937 -0.4017 -0.6344  0.2784
 8695TIP3    H147576   0.843   1.650  13.881  0.0120 -1.1038  0.3875
 8695TIP3    H247577   0.721   1.559  13.876 -0.6825 -0.1724  0.1783
 8696TIP3   OH247578   2.246   3.645   4.143  0.0396 -0.3629 -0.4422
 8696TIP3    H147579   2.271   3.681   4.228  0.1753 -0.5046 -0.4217
 8696TIP3    H247580   2.194   3.568   4.164 -0.1928 -0.2214 -0.4878
 8697TIP3   OH247581   6.068   1.381   5.839  0.1209 -0.0629  0.5153
 8697TIP3    H147582   6.106   1.295   5.820 -0.4719 -0.0982 -0.5565
 8697TIP3    H247583   6.062   1.384   5.935  1.5444 -0.5965  0.6496
 8698TIP3   OH247584   4.316   2.596   1.627 -0.9868 -0.3704  0.7432
 8698TIP3    H147585   4.295   2.603   1.534  0.7967 -0.1202  0.3207
 8698TIP3    H247586   4.234   2.570   1.668 -1.3400 -2.5875 -1.1585
 8699TIP3   OH247587   5.954   6.742   2.534 -0.2496  0.1405  0.0358
 8699TIP3    H147588   5.954   6.701   2.448  1.8623  0.7684 -0.3188
 8699TIP3    H247589   5.886   6.810   2.527 -0.0979  0.1991 -1.1411
 8700TIP3   OH247590   4.756   4.048   5.654 -0.0348 -0.5987 -0.2712
 8700TIP3    H147591   4.733   3.960   5.625 -0.2739 -1.4903  2.3495
 8700TIP3    H247592   4.673   4.093   5.664 -0.0157 -0.5901 -0.1473
 8701TIP3   OH247593   5.943   6.012  16.787 -0.3129 -0.1824  0.6256
 8701TIP3    H147594   5.849   6.028  16.785 -0.3938 -0.6909 -0.1650
 8701TIP3    H247595   5.982   6.095  16.760 -0.5327  0.0346  0.9720
 8702TIP3   OH247596   0.721   2.219   5.841 -0.2826  0.3116 -0.4702
 8702TIP3    H147597   0.784   2.289   5.828 -0.3332  0.5056  0.2762
 8702TIP3    H247598   0.741   2.184   5.928 -0.5593 -0.2868 -0.6371
 8703TIP3   OH247599   0.907   5.300  13.770  0.1651  0.0271 -0.0767
 8703TIP3    H147600   0.852   5.222  13.755 -0.0019  0.2452 -0.6470
 8703TIP3    H247601   0.847   5.374  13.759  0.4444  0.2498 -0.0997
 8704TIP3   OH247602   3.509   3.633  13.652  0.6720  0.1938  0.3372
 8704TIP3    H147603   3.519   3.727  13.639 -1.7611  0.6043  0.9790
 8704TIP3    H247604   3.491   3.599  13.564  0.5945  0.4707  0.2436
 8705TIP3   OH247605   6.206   5.060   4.824  0.4095  0.2452 -0.0225
 8705TIP3    H147606   6.296   5.091   4.817 -0.0154  1.3692 -0.6825
 8705TIP3    H247607   6.152   5.135   4.801 -0.6609 -0.9885 -1.8609
 8706TIP3   OH247608   2.814   0.137  15.602 -0.5133 -0.2772  0.0062
 8706TIP3    H147609   2.732   0.089  15.595 -0.6615 -0.1264  0.5779
 8706TIP3    H247610   2.809   0.203  15.533 -0.0386 -1.4462 -1.1751
 8707TIP3   OH247611   3.812   2.218  14.891  0.1214 -0.6413  0.0110
 8707TIP3    H147612   3.905   2.195  14.889 -0.3839 -2.8140 -1.5105
 8707TIP3    H247613   3.805   2.293  14.832  0.8470 -0.6779 -0.1338
 8708TIP3   OH247614   0.585   2.285  11.016 -0.4366  0.1205  0.1686
 8708TIP3    H147615   0.637   2.256  11.091 -1.4625 -2.0491  0.1295
 8708TIP3    H247616   0.539   2.206  10.987 -0.8657  1.1126 -2.1171
 8709TIP3   OH247617   4.924   2.201   3.834 -0.2478  0.0558 -0.2143
 8709TIP3    H147618   5.007   2.159   3.857 -0.7295 -1.1049 -0.5236
 8709TIP3    H247619   4.868   2.130   3.805 -1.7787  0.6427  1.1379
 8710TIP3   OH247620   6.018   4.099  12.561 -0.4361 -0.2866 -0.1714
 8710TIP3    H147621   6.031   4.037  12.490 -2.0464  0.5336 -1.2485
 8710TIP3    H247622   6.068   4.177  12.534  0.7292 -0.7219  0.6709
 8711TIP3   OH247623   5.934   6.442  14.348 -1.2083 -0.5599  0.6848
 8711TIP3    H147624   5.935   6.352  14.318 -0.8175  0.1687 -1.7157
 8711TIP3    H247625   6.019   6.456  14.389 -1.4120 -1.3666  1.3900
 8712TIP3   OH247626   0.550   0.302   4.181 -0.0348  0.6079  0.1679
 8712TIP3    H147627   0.496   0.225   4.196 -0.0200  0.6982  0.7020
 8712TIP3    H247628   0.575   0.331   4.269 -0.1246  1.2757 -0.0203
 8713TIP3   OH247629   0.314   4.073  15.590  0.2687  0.5155  0.0150
 8713TIP3    H147630   0.372   4.022  15.534 -0.6781 -2.1067  1.2787
 8713TIP3    H247631   0.249   4.010  15.622 -2.1314  2.9109  0.2089
 8714TIP3   OH247632   5.496   4.246   6.097 -0.0975  0.3598  0.1664
 8714TIP3    H147633   5.491   4.341   6.104  0.5191  0.3692  0.5029
 8714TIP3    H247634   5.457   4.213   6.178  0.1308  0.3370  0.2683
 8715TIP3   OH247635   5.320   5.330  11.208 -0.7216  0.4727 -0.6363
 8715TIP3    H147636   5.255   5.266  11.236 -0.4669  0.4135 -0.1778
 8715TIP3    H247637   5.274   5.414  11.210 -0.5100  0.5688  0.6513
 8716TIP3   OH247638   3.570   2.997   5.877  0.4712  0.0619  0.3155
 8716TIP3    H147639   3.557   2.904   5.858  1.1277 -0.0746  0.5094
 8716TIP3    H247640   3.661   3.003   5.904  0.9662  1.0593 -1.4461
 8717TIP3   OH247641   0.624   5.214   4.077 -0.0974 -0.9158  0.0235
 8717TIP3    H147642   0.655   5.182   3.992  0.2703  0.1713 -0.2685
 8717TIP3    H247643   0.683   5.286   4.099 -0.9927 -0.3319  0.5781
 8718TIP3   OH247644   3.942   1.161  14.304  0.4465  0.2564 -0.3946
 8718TIP3    H147645   3.976   1.152  14.215 -2.4633  1.1557 -1.7256
 8718TIP3    H247646   3.952   1.254  14.324  1.5817 -0.0346  0.4873
 8719TIP3   OH247647   6.816   5.115  14.111  0.3035  0.2532  0.3545
 8719TIP3    H147648   6.832   5.110  14.205 -0.2296 -0.3080  0.4230
 8719TIP3    H247649   6.901   5.138  14.073  0.7795 -0.6217  0.8725
 8720TIP3   OH247650   3.896   6.790  14.475  0.0188  0.2409 -0.0889
 8720TIP3    H147651   3.856   6.835  14.549 -1.4614  0.9373 -1.2550
 8720TIP3    H247652   3.880   6.697  14.491 -0.3018  0.3858  0.4421
 8721TIP3   OH247653   2.294   0.125   3.563  0.3876 -0.3566 -0.3348
 8721TIP3    H147654   2.253   0.048   3.522 -0.8131 -1.0721  2.0256
 8721TIP3    H247655   2.363   0.088   3.618  1.1103  0.4729 -0.6548
 8722TIP3   OH247656   5.241   2.280   4.272 -0.2765  0.0953  0.6706
 8722TIP3    H147657   5.217   2.318   4.188 -0.2589 -2.1700 -0.4266
 8722TIP3    H247658   5.169   2.220   4.292 -0.4197  0.7812  2.4485
 8723TIP3   OH247659   5.212   3.765  12.450  0.6024 -0.2307  0.3824
 8723TIP3    H147660   5.157   3.696  12.488 -0.9078  0.3493 -0.6460
 8723TIP3    H247661   5.214   3.745  12.357  1.8699 -0.0220  0.3483
 8724TIP3   OH247662   1.806   1.893   0.546  0.0469  0.0162 -0.0250
 8724TIP3    H147663   1.798   1.807   0.505  1.4691 -0.5314  0.7911
 8724TIP3    H247664   1.799   1.875   0.640 -0.4535  0.9097  0.1207
 8725TIP3   OH247665   6.501   1.531   0.243 -0.2974 -0.0796  0.3311
 8725TIP3    H147666   6.563   1.534   0.315  1.4431  1.8927 -1.1322
 8725TIP3    H247667   6.430   1.588   0.270 -0.0676 -0.0221  0.8213
 8726TIP3   OH247668   2.951   1.933   6.282  0.1835 -0.5280  0.1909
 8726TIP3    H147669   3.022   1.924   6.218  0.9728  1.5062  0.7337
 8726TIP3    H247670   2.892   1.860   6.261  1.0503 -0.6730 -2.0339
 8727TIP3   OH247671   6.603   5.046  11.914 -0.1768 -0.8636 -0.4107
 8727TIP3    H147672   6.690   5.084  11.904 -1.0415  1.1698 -0.9080
 8727TIP3    H247673   6.616   4.969  11.968  1.8130 -0.1562  0.2096
 8728TIP3   OH247674   1.213   6.501  15.748 -0.3001  0.4402 -0.0713
 8728TIP3    H147675   1.223   6.434  15.816 -0.1889  0.5056 -0.0224
 8728TIP3    H247676   1.143   6.558  15.780  0.2251  0.8737  0.3195
 8729TIP3   OH247677   3.423   5.456   2.370 -0.5975 -0.5364  0.0466
 8729TIP3    H147678   3.427   5.443   2.465 -0.1297 -0.0529  0.0984
 8729TIP3    H247679   3.402   5.548   2.359  2.2964  0.1806 -0.2924
 8730TIP3   OH247680   2.358   6.192   0.671 -0.2870  0.0943  0.2326
 8730TIP3    H147681   2.414   6.152   0.737  2.0561  1.1199 -1.0052
 8730TIP3    H247682   2.336   6.278   0.707  0.8472  0.5831 -0.1779
 8731TIP3   OH247683   3.533   2.984  14.117  0.0851 -0.0125  0.2786
 8731TIP3    H147684   3.558   2.891  14.115  0.1300 -0.0398  1.3016
 8731TIP3    H247685   3.444   2.986  14.084  0.4812 -0.2672 -0.8369
 8732TIP3   OH247686   0.317   2.786   5.164  0.1827  0.7208 -0.7914
 8732TIP3    H147687   0.298   2.861   5.109 -1.3701  0.6880 -0.3445
 8732TIP3    H247688   0.377   2.819   5.230  1.2517  1.0088 -1.8629
 8733TIP3   OH247689   3.211   2.995  15.108 -0.2949 -0.6034 -0.0017
 8733TIP3    H147690   3.250   3.051  15.041 -0.0670  0.3617  0.9168
 8733TIP3    H247691   3.246   2.908  15.089 -0.2441 -0.3558 -1.1398
 8734TIP3   OH247692   6.534   6.761  11.707  0.4854 -0.4980  0.1779
 8734TIP3    H147693   6.471   6.831  11.724  0.4562 -0.3024 -0.6880
 8734TIP3    H247694   6.616   6.792  11.745  0.1225 -0.6561  1.1138
 8735TIP3   OH247695   6.357   5.014  11.607 -0.2227 -0.6625 -0.0573
 8735TIP3    H147696   6.310   5.023  11.689  1.4164 -1.9186  1.0995
 8735TIP3    H247697   6.294   5.038  11.539 -1.9421 -0.6267  1.5030
 8736TIP3   OH247698   0.254   3.720   4.234  0.2118  0.0387  0.1145
 8736TIP3    H147699   0.177   3.774   4.253  0.0982 -0.2146  0.3854
 8736TIP3    H247700   0.307   3.725   4.313  0.6133  0.4417 -0.1778
 8737TIP3   OH247701   4.202   1.945  17.020 -0.4137 -0.2431 -0.4823
 8737TIP3    H147702   4.231   2.005  17.090  1.5865 -1.7216  0.0655
 8737TIP3    H247703   4.247   1.978  16.941 -0.7334  0.0061 -0.5607
 8738TIP3   OH247704   5.530   1.096   4.579 -0.1801  0.3983 -0.0380
 8738TIP3    H147705   5.584   1.173   4.562  0.9451 -0.8488 -2.6693
 8738TIP3    H247706   5.491   1.074   4.494  0.8673 -2.8264  0.1656
 8739TIP3   OH247707   3.883   2.652  13.266 -0.2242  0.3081 -0.1426
 8739TIP3    H147708   3.936   2.715  13.314  1.9938 -2.8246  1.9220
 8739TIP3    H247709   3.794   2.664  13.299  0.0656  2.4707 -0.0461
 8740TIP3   OH247710   4.662   5.769  11.731 -0.0375  0.3004 -0.2462
 8740TIP3    H147711   4.618   5.716  11.665  0.5325  0.0520 -0.4317
 8740TIP3    H247712   4.751   5.733  11.736 -0.5313 -0.8445  1.8763
 8741TIP3   OH247713   2.553   2.105   5.692 -0.2025  1.3657  0.4904
 8741TIP3    H147714   2.477   2.085   5.637  0.2512  0.7243  0.0826
 8741TIP3    H247715   2.516   2.148   5.769 -0.9614  1.2337  0.2119
 8742TIP3   OH247716   4.034   2.990  14.084 -0.7982 -0.1788  0.2752
 8742TIP3    H147717   4.092   2.954  14.151 -1.1155  1.0927  1.2725
 8742TIP3    H247718   4.075   2.965  14.001  0.4155 -0.4935  0.9457
 8743TIP3   OH247719   6.054   2.475   0.845  0.4485 -0.7004  0.3424
 8743TIP3    H147720   6.043   2.536   0.771 -0.1154  1.1717  1.8918
 8743TIP3    H247721   6.013   2.519   0.919  1.9470 -2.0127  2.0494
 8744TIP3   OH247722   6.114   1.492  11.089 -0.2551 -0.5273  0.6040
 8744TIP3    H147723   6.099   1.427  11.019 -1.3572 -1.2472  1.4669
 8744TIP3    H247724   6.051   1.561  11.071 -0.1638 -0.4519  0.5761
 8745TIP3   OH247725   1.427   4.540  11.935  0.1302  0.1322  0.5367
 8745TIP3    H147726   1.434   4.463  11.992 -1.4752  0.2668  0.9591
 8745TIP3    H247727   1.504   4.535  11.880 -0.5687 -2.5579 -0.3639
 8746TIP3   OH247728   1.548   4.808   5.023 -0.1026 -0.3100  0.1372
 8746TIP3    H147729   1.458   4.839   5.013 -0.2951 -1.1071 -0.7325
 8746TIP3    H247730   1.567   4.821   5.115 -0.3043  2.0039 -0.0783
 8747TIP3   OH247731   0.743   0.571   5.662 -0.1883  0.0788 -0.1573
 8747TIP3    H147732   0.809   0.560   5.731 -0.3995  1.1494  0.2260
 8747TIP3    H247733   0.676   0.506   5.684 -0.7135  1.0379  1.2129
 8748TIP3   OH247734   0.482   6.134   2.898 -1.0763  0.2557 -0.0359
 8748TIP3    H147735   0.463   6.042   2.880 -0.8519  0.5468 -2.0035
 8748TIP3    H247736   0.546   6.132   2.969  0.5647 -1.2299 -1.4737
 8749TIP3   OH247737   6.361   5.922   4.715 -0.0531 -0.2839  0.4110
 8749TIP3    H147738   6.323   5.880   4.637 -0.2138 -0.0564  0.3673
 8749TIP3    H247739   6.450   5.888   4.718  0.5048  0.9922 -0.8366
 8750TIP3   OH247740   0.240   0.250  12.482 -0.2378  0.0170 -0.3227
 8750TIP3    H147741   0.292   0.230  12.404  1.7073  1.6275  0.4539
 8750TIP3    H247742   0.154   0.212  12.464  0.0965  0.3874 -3.2855
 8751TIP3   OH247743   0.515   0.347  14.386 -0.3980 -1.2995 -0.0767
 8751TIP3    H147744   0.443   0.407  14.406  0.5452 -0.5832  1.4039
 8751TIP3    H247745   0.530   0.357  14.292  2.2564  3.9050  0.5366
 8752TIP3   OH247746   4.792   4.869   2.159 -0.2127  0.5389  0.3766
 8752TIP3    H147747   4.714   4.915   2.126  1.0713  0.9319 -2.3829
 8752TIP3    H247748   4.862   4.934   2.154  0.9859 -0.7591 -0.5375
 8753TIP3   OH247749   2.325   5.616  13.322  0.4027 -0.6981 -0.3670
 8753TIP3    H147750   2.241   5.600  13.366  1.2836 -1.0801  1.2793
 8753TIP3    H247751   2.376   5.664  13.387  1.3250 -0.1373 -1.5003
 8754TIP3   OH247752   6.408   1.468   1.812  0.3487 -0.1716 -0.5828
 8754TIP3    H147753   6.393   1.494   1.903  1.6187  1.0040 -0.6659
 8754TIP3    H247754   6.326   1.429   1.784  0.5049 -2.4027  1.6640
 8755TIP3   OH247755   5.294   1.177  12.652 -0.1060 -0.4121  0.4820
 8755TIP3    H147756   5.232   1.113  12.688  1.7416 -2.0264  0.9631
 8755TIP3    H247757   5.304   1.151  12.560  0.3089 -0.5663  0.5666
 8756TIP3   OH247758   5.352   4.386  15.973 -0.4499  0.0061 -0.4094
 8756TIP3    H147759   5.307   4.400  16.057 -0.1716 -0.2178 -0.2176
 8756TIP3    H247760   5.296   4.426  15.908 -1.5377 -1.3002 -0.3259
 8757TIP3   OH247761   5.705   1.038  12.040 -0.4849 -0.1560  0.3275
 8757TIP3    H147762   5.750   0.954  12.039  0.9000  0.5219  1.1137
 8757TIP3    H247763   5.613   1.017  12.049 -0.2261 -1.5901 -0.1225
 8758TIP3   OH247764   0.993   1.172   3.698  0.2433  0.2858 -0.0891
 8758TIP3    H147765   0.994   1.208   3.610  0.3034 -2.9517 -1.5470
 8758TIP3    H247766   0.905   1.136   3.708 -0.5821  2.5874  2.1906
 8759TIP3   OH247767   5.873   3.673  11.395  0.2192 -0.0382  0.2342
 8759TIP3    H147768   5.858   3.734  11.467  0.1280  0.1095  0.0926
 8759TIP3    H247769   5.811   3.700  11.327 -1.0325 -1.3463  0.7962
 8760TIP3   OH247770   5.983   3.300  14.658  0.1290  0.1503 -0.2227
 8760TIP3    H147771   5.942   3.366  14.602  0.9283 -0.0631 -1.0904
 8760TIP3    H247772   6.073   3.293  14.625  0.4877 -0.2967  0.8207
 8761TIP3   OH247773   1.281   2.895   3.709  0.1363 -0.0734  0.6578
 8761TIP3    H147774   1.212   2.868   3.649 -0.4901 -1.1886  1.8331
 8761TIP3    H247775   1.318   2.974   3.670 -2.6888  1.3699  0.6463
 8762TIP3   OH247776   3.727   1.654  11.937 -0.0516  0.0255  0.3425
 8762TIP3    H147777   3.714   1.659  11.842  0.5471  1.9741  0.3221
 8762TIP3    H247778   3.765   1.567  11.951 -0.2431 -0.3370 -1.1896
 8763TIP3   OH247779   4.189   6.169  15.603  0.0415 -0.1014  0.5742
 8763TIP3    H147780   4.249   6.095  15.617 -0.8162 -0.9382 -0.0762
 8763TIP3    H247781   4.136   6.171  15.683 -0.4628 -0.7021  0.2610
 8764TIP3   OH247782   6.080   2.309   4.674  0.0316  0.3810 -0.3438
 8764TIP3    H147783   6.045   2.380   4.621  0.3198 -0.0506 -1.1357
 8764TIP3    H247784   6.017   2.297   4.745 -0.5624  0.7071 -0.8160
 8765TIP3   OH247785   1.316   6.155   1.728  0.1265  0.1845 -0.2540
 8765TIP3    H147786   1.321   6.062   1.705  1.7841  0.5801 -1.7923
 8765TIP3    H247787   1.248   6.191   1.670 -0.0288  0.0605 -0.1489
 8766TIP3   OH247788   5.682   1.908   6.396 -0.0136  0.4329  0.3120
 8766TIP3    H147789   5.768   1.901   6.437  0.4649 -3.4260 -0.8797
 8766TIP3    H247790   5.679   1.997   6.360  2.9731  1.0806  1.3855
 8767TIP3   OH247791   5.170   6.616   5.627  0.3727  0.1108 -0.6652
 8767TIP3    H147792   5.163   6.679   5.556  0.7414 -1.5920 -2.2746
 8767TIP3    H247793   5.263   6.611   5.647  0.3744 -0.1268 -0.7282
 8768TIP3   OH247794   1.743   0.563   4.386  0.0432 -0.9085  0.6073
 8768TIP3    H147795   1.784   0.538   4.303  0.8293 -1.5088  1.1578
 8768TIP3    H247796   1.807   0.622   4.426 -0.7277  0.0853  0.4006
 8769TIP3   OH247797   0.739   6.787   1.515  0.5657 -0.0429  0.2125
 8769TIP3    H147798   0.699   6.772   1.601  1.8692  0.1455  0.8745
 8769TIP3    H247799   0.773   6.701   1.490 -0.8923 -0.3890 -0.7225
 8770TIP3   OH247800   2.993   0.301   0.739 -0.9958  0.3550  0.1074
 8770TIP3    H147801   2.967   0.324   0.650 -2.0688  3.4251  1.0840
 8770TIP3    H247802   2.916   0.258   0.776 -0.2478 -1.7503 -0.6115
 8771TIP3   OH247803   2.558   0.771  15.581 -0.6224 -0.4743 -0.0189
 8771TIP3    H147804   2.588   0.846  15.530  1.1855 -0.3600  1.1353
 8771TIP3    H247805   2.492   0.807  15.639  0.9896  0.5126  1.2808
 8772TIP3   OH247806   0.139   4.238   2.730 -0.1305  0.3388  0.2273
 8772TIP3    H147807   0.173   4.229   2.819 -0.6171 -1.1361  0.2893
 8772TIP3    H247808   0.185   4.315   2.695  0.0239  0.9985  1.7537
 8773TIP3   OH247809   4.983   0.557   3.077  0.4962  0.5605 -0.0878
 8773TIP3    H147810   4.974   0.549   3.172  1.7642  2.9185  0.2888
 8773TIP3    H247811   5.032   0.479   3.052 -1.3542 -1.0105  0.8890
 8774TIP3   OH247812   4.614   2.857   0.071  0.0171 -0.5047 -0.5874
 8774TIP3    H147813   4.614   2.860  -0.025 -0.2812  0.7255 -0.5625
 8774TIP3    H247814   4.574   2.940   0.098  1.8056  0.0138  0.6296
 8775TIP3   OH247815   3.684   5.749  11.624  0.3876 -0.8774 -0.4271
 8775TIP3    H147816   3.600   5.709  11.601 -0.1635  0.9330 -1.7709
 8775TIP3    H247817   3.660   5.830  11.669  1.4605 -1.3456  1.0575
 8776TIP3   OH247818   4.945   6.466  13.890  0.5233 -0.2434  0.0771
 8776TIP3    H147819   4.910   6.548  13.926 -3.7582 -0.5680 -2.6008
 8776TIP3    H247820   4.971   6.415  13.967 -3.4484  0.9101  2.4765
 8777TIP3   OH247821   3.036   0.650  15.964  0.0741 -0.1317  0.4351
 8777TIP3    H147822   3.077   0.736  15.957  0.5601 -0.1449  2.5235
 8777TIP3    H247823   2.942   0.668  15.969  0.1748  0.2974  0.8659
 8778TIP3   OH247824   6.665   1.775   2.739  0.0169 -0.3021 -0.2959
 8778TIP3    H147825   6.714   1.857   2.735  0.5846 -0.4456  2.1846
 8778TIP3    H247826   6.575   1.801   2.720  0.5897  0.3863 -2.3200
 8779TIP3   OH247827   5.254   2.936  14.372  0.1313 -0.5693  0.4383
 8779TIP3    H147828   5.208   2.988  14.307  1.2233 -0.1115  0.0049
 8779TIP3    H247829   5.347   2.952  14.355  0.4590 -1.1620  1.5243
 8780TIP3   OH247830   6.332   3.596  13.084 -0.7053  0.1117  0.1259
 8780TIP3    H147831   6.292   3.628  13.004 -2.2402  0.3843  0.9595
 8780TIP3    H247832   6.365   3.674  13.128  1.2606 -0.1575 -0.7798
 8781TIP3   OH247833   0.803   2.513   6.490 -0.5881  0.0175 -0.7830
 8781TIP3    H147834   0.858   2.459   6.547 -1.3488  0.4041  0.3454
 8781TIP3    H247835   0.781   2.456   6.416 -1.3847 -1.2312  0.3801
 8782TIP3   OH247836   1.048   0.271   5.351 -0.0456  0.4428 -0.6955
 8782TIP3    H147837   1.031   0.365   5.361 -0.0950  0.2212  1.9635
 8782TIP3    H247838   1.138   0.266   5.318  0.9602  1.4512  1.6926
 8783TIP3   OH247839   6.639   0.532  11.600  0.5083  0.0581  0.1318
 8783TIP3    H147840   6.654   0.458  11.660 -0.7467 -0.1882  0.1697
 8783TIP3    H247841   6.695   0.602  11.634  2.5830 -1.1834 -0.5418
 8784TIP3   OH247842   6.725   5.091   3.964  0.5359 -0.0894  0.5111
 8784TIP3    H147843   6.695   5.167   3.914  0.6786  0.1085  0.7270
 8784TIP3    H247844   6.697   5.108   4.054 -0.6902 -0.9595  0.3199
 8785TIP3   OH247845   2.762   6.374  13.748  0.0630  0.3614 -0.0283
 8785TIP3    H147846   2.705   6.319  13.802 -0.7238  1.3048  0.1231
 8785TIP3    H247847   2.839   6.390  13.803 -0.4168  0.7329  0.5422
 8786TIP3   OH247848   5.085   5.298   4.350  0.5887  0.0043 -0.2762
 8786TIP3    H147849   5.070   5.337   4.263 -1.3305  0.2733  0.1267
 8786TIP3    H247850   5.108   5.372   4.406 -1.7462  0.4554  0.1937
 8787TIP3   OH247851   4.056   2.437  13.382 -0.1353  0.0459  0.0819
 8787TIP3    H147852   4.113   2.372  13.341 -0.7192 -0.3708 -0.0785
 8787TIP3    H247853   3.980   2.442  13.324 -0.1900  0.7275  0.2033
 8788TIP3   OH247854   6.135   4.848  14.633  0.2286  0.2810 -0.7683
 8788TIP3    H147855   6.171   4.838  14.546  1.7286  1.0496 -0.2589
 8788TIP3    H247856   6.154   4.938  14.658  1.6460 -0.4627  1.1104
 8789TIP3   OH247857   0.047   3.579   5.101 -0.4158  0.1578  0.4187
 8789TIP3    H147858   0.140   3.585   5.123 -0.7345 -1.6189  2.6954
 8789TIP3    H247859   0.042   3.512   5.032 -0.0229  0.0204  0.5221
 8790TIP3   OH247860   1.757   3.674  11.557 -0.4111  0.5765  0.1804
 8790TIP3    H147861   1.773   3.732  11.630 -1.9455  0.3498  0.7308
 8790TIP3    H247862   1.787   3.588  11.587  0.5231  0.7971 -0.0998
 8791TIP3   OH247863   6.618   2.685   5.132 -1.2023 -0.1527  0.1295
 8791TIP3    H147864   6.622   2.745   5.058 -3.2736  0.1326  0.1920
 8791TIP3    H247865   6.549   2.623   5.109 -1.1238 -0.7301  1.3546
 8792TIP3   OH247866   0.379   5.571   1.432  0.2149  0.2979  0.1209
 8792TIP3    H147867   0.350   5.649   1.386 -0.3935 -0.8421 -1.4883
 8792TIP3    H247868   0.308   5.551   1.493 -1.2532 -0.9110 -1.8760
 8793TIP3   OH247869   3.041   6.493  11.237  0.1749  0.1600 -0.2481
 8793TIP3    H147870   3.132   6.466  11.222 -0.4555 -1.5210 -1.2878
 8793TIP3    H247871   3.017   6.541  11.158 -0.2688 -0.6324 -0.6025
 8794TIP3   OH247872   3.489   5.868  12.954  0.0694  0.7715  0.2252
 8794TIP3    H147873   3.513   5.789  13.004 -1.3968 -0.5990 -1.1372
 8794TIP3    H247874   3.519   5.850  12.865  1.0036  2.4146  0.1635
 8795TIP3   OH247875   3.299   3.237   0.850  0.3586  0.2391  0.4600
 8795TIP3    H147876   3.277   3.145   0.860  1.3553  0.1673  2.7090
 8795TIP3    H247877   3.254   3.265   0.771  2.2751 -2.8303 -1.9249
 8796TIP3   OH247878   4.786   5.507   5.815 -0.3326 -0.2507  0.0371
 8796TIP3    H147879   4.741   5.591   5.807 -1.5960 -0.8800  0.3896
 8796TIP3    H247880   4.796   5.494   5.909  0.5376 -0.1579 -0.0346
 8797TIP3   OH247881   0.313   5.921  15.480  0.0792 -0.3761  0.4882
 8797TIP3    H147882   0.354   6.007  15.480  0.7939 -0.7064  1.0023
 8797TIP3    H247883   0.369   5.868  15.537  1.3884 -1.9998 -2.1236
 8798TIP3   OH247884   2.837   2.889  11.368 -0.0821 -0.5152 -0.0570
 8798TIP3    H147885   2.827   2.908  11.461  1.5636  0.4234 -0.0357
 8798TIP3    H247886   2.819   2.972  11.324  2.9047  0.1122 -0.2647
 8799TIP3   OH247887   4.533   3.550   3.002  0.1694 -0.5948 -0.0968
 8799TIP3    H147888   4.483   3.628   2.977  1.5976  0.4554  0.1635
 8799TIP3    H247889   4.606   3.585   3.054  0.8327 -2.1197  0.0304
 8800TIP3   OH247890   3.172   6.389   2.687  0.5688 -0.0679  0.4392
 8800TIP3    H147891   3.237   6.397   2.756 -0.4883  0.9430  1.3579
 8800TIP3    H247892   3.125   6.308   2.708  1.3647 -0.6863 -0.1066
 8801TIP3   OH247893   5.827   4.236  14.054  0.3129  0.4363  0.2902
 8801TIP3    H147894   5.820   4.231  14.150  1.0000 -0.1489  0.3208
 8801TIP3    H247895   5.787   4.320  14.031 -0.5335  0.2534  1.0221
 8802TIP3   OH247896   1.452   4.410   2.080  0.2187  0.0852  0.2159
 8802TIP3    H147897   1.516   4.411   2.010  1.8765 -2.1672  1.5739
 8802TIP3    H247898   1.418   4.321   2.082 -3.7953  1.3442 -1.0252
 8803TIP3   OH247899   2.891   2.083   4.420 -0.4395 -0.4508 -0.3078
 8803TIP3    H147900   2.919   2.050   4.335  0.9519  0.0157 -0.0620
 8803TIP3    H247901   2.857   2.170   4.402  2.0613  0.6369 -0.1349
 8804TIP3   OH247902   1.879   3.576   4.981  0.0983  0.7574 -0.6929
 8804TIP3    H147903   1.828   3.641   5.030  1.8465  0.5183  1.5956
 8804TIP3    H247904   1.903   3.510   5.046  1.4097 -0.3121 -2.1805
 8805TIP3   OH247905   2.983   2.334  14.675 -0.5949  0.5310 -0.0610
 8805TIP3    H147906   2.941   2.248  14.678  0.8050 -0.1745  0.0315
 8805TIP3    H247907   3.018   2.347  14.763  1.8282 -0.2085 -0.8371
 8806TIP3   OH247908   6.177   1.303  16.357  0.5453  0.0328  0.1785
 8806TIP3    H147909   6.169   1.212  16.383 -2.8966 -0.5829 -2.3187
 8806TIP3    H247910   6.226   1.301  16.275  0.1009  0.3555 -0.1024
 8807TIP3   OH247911   0.582   1.112  13.733  0.1566 -0.0989  0.0975
 8807TIP3    H147912   0.646   1.056  13.689 -0.7748 -0.6319 -0.6182
 8807TIP3    H247913   0.520   1.136  13.664 -1.1609 -0.6926  1.0347
 8808TIP3   OH247914   4.668   5.756   5.844  0.0043  0.1292  0.2188
 8808TIP3    H147915   4.710   5.828   5.890  1.4074 -1.2873  1.2458
 8808TIP3    H247916   4.574   5.776   5.850  0.2170  0.7154  2.5053
 8809TIP3   OH247917   3.330   2.055   4.337 -0.3807  0.1060  0.3122
 8809TIP3    H147918   3.344   2.144   4.304 -1.5020 -0.2583 -1.2699
 8809TIP3    H247919   3.323   2.065   4.432  5.0929  0.9721  0.9232
 8810TIP3   OH247920   2.958   3.723  11.097  0.1036 -0.3735 -0.5312
 8810TIP3    H147921   3.020   3.651  11.108 -2.4361 -3.0839 -2.3149
 8810TIP3    H247922   2.905   3.721  11.177  1.6610  1.4124  0.6278
 8811TIP3   OH247923   3.794   2.706  13.932 -0.3530 -0.1715  0.1051
 8811TIP3    H147924   3.869   2.687  13.988 -0.5626 -1.0682  0.0949
 8811TIP3    H247925   3.717   2.683  13.985 -0.8510  3.2005  1.1565
 8812TIP3   OH247926   5.834   2.180   3.848 -0.3271  0.2994  0.5263
 8812TIP3    H147927   5.747   2.217   3.860 -1.2073 -1.5983  0.2879
 8812TIP3    H247928   5.875   2.235   3.781 -1.5941  0.7773  0.1221
 8813TIP3   OH247929   2.932   2.572   2.794 -0.0606  0.3608 -0.3455
 8813TIP3    H147930   2.853   2.579   2.847  0.3940 -0.0764  0.4079
 8813TIP3    H247931   3.004   2.577   2.857  0.4875 -3.3468 -0.4666
 8814TIP3   OH247932   0.904   1.606   2.654  0.2090 -0.2618 -0.6385
 8814TIP3    H147933   0.891   1.540   2.586 -1.0263 -0.6811 -0.0412
 8814TIP3    H247934   0.979   1.657   2.625 -2.1615  1.6866 -4.0201
 8815TIP3   OH247935   6.091   1.302   3.598 -0.7169  1.1735  0.7193
 8815TIP3    H147936   5.999   1.303   3.570 -0.8459  2.1085  1.1369
 8815TIP3    H247937   6.134   1.368   3.542  0.4964 -1.6572 -1.9520
 8816TIP3   OH247938   0.158   5.575  12.051 -0.3446 -0.2814 -0.3250
 8816TIP3    H147939   0.165   5.601  12.143 -0.8302 -1.6788  0.1243
 8816TIP3    H247940   0.249   5.557  12.024 -0.0189  1.5232 -0.5818
 8817TIP3   OH247941   4.273   1.245  15.095 -0.2583 -0.1830 -0.3886
 8817TIP3    H147942   4.191   1.282  15.127 -0.7570 -1.3871 -0.1998
 8817TIP3    H247943   4.322   1.223  15.174 -0.5859 -1.2140 -0.4545
 8818TIP3   OH247944   2.876   1.010  13.808 -0.1815 -0.0080 -0.4848
 8818TIP3    H147945   2.814   1.082  13.802  0.3610  0.4499 -0.6291
 8818TIP3    H247946   2.825   0.932  13.784 -0.5762  0.4259 -1.0652
 8819TIP3   OH247947   1.147   1.016  13.266  0.0564  0.4038 -0.2286
 8819TIP3    H147948   1.058   0.982  13.280  0.5994  0.1093  3.5335
 8819TIP3    H247949   1.204   0.942  13.285  1.1272  1.5786  1.3861
 8820TIP3   OH247950   0.202   6.799   0.549  0.0356  0.0455  0.2175
 8820TIP3    H147951   0.175   6.725   0.604 -0.5709 -1.5896 -2.1447
 8820TIP3    H247952   0.124   6.854   0.542 -0.4388 -0.6943 -0.4455
 8821TIP3   OH247953   5.280   5.593   5.042  0.5427 -0.4804  0.2483
 8821TIP3    H147954   5.374   5.590   5.063  0.1367 -0.7224  2.1523
 8821TIP3    H247955   5.237   5.612   5.125 -1.0697  0.4810 -0.7359
 8822TIP3   OH247956   6.283   5.084   2.236 -0.0062 -0.5794  0.3316
 8822TIP3    H147957   6.285   5.175   2.267 -0.4281 -1.1999  2.3066
 8822TIP3    H247958   6.192   5.058   2.244  0.0504 -1.1119 -0.5558
 8823TIP3   OH247959   1.597   5.083   0.060  0.4882 -0.6097 -0.1317
 8823TIP3    H147960   1.554   5.058   0.142  0.9819  0.0650  0.3436
 8823TIP3    H247961   1.682   5.039   0.064  1.0525  0.4946  0.3545
 8824TIP3   OH247962   5.304   3.890  14.890  0.3565 -0.3783 -0.0478
 8824TIP3    H147963   5.286   3.966  14.834 -1.4747 -0.5040  0.2785
 8824TIP3    H247964   5.224   3.880  14.941  1.6855 -0.7289  2.0666
 8825TIP3   OH247965   3.285   4.145  16.099 -0.2291 -0.0247  0.3565
 8825TIP3    H147966   3.259   4.104  16.181 -0.2283  1.5073  1.1632
 8825TIP3    H247967   3.341   4.218  16.125 -1.0858  1.1494 -0.9263
 8826TIP3   OH247968   4.677   1.877   3.297  0.4751 -0.2496 -0.6484
 8826TIP3    H147969   4.657   1.940   3.228 -0.3221 -0.2628 -0.4420
 8826TIP3    H247970   4.617   1.900   3.369  2.9699  1.3770  1.0695
 8827TIP3   OH247971   2.648   2.492  16.842  0.1318 -0.3294  1.1176
 8827TIP3    H147972   2.559   2.524  16.859  0.2149  0.1916  0.5911
 8827TIP3    H247973   2.682   2.549  16.773  0.3259 -1.5071  0.2136
 8828TIP3   OH247974   4.017   5.400  15.647  0.4450 -0.2956  0.0566
 8828TIP3    H147975   4.087   5.464  15.654  0.1472 -0.0882  1.1737
 8828TIP3    H247976   3.989   5.405  15.555 -1.4832  3.2160  0.6720
 8829TIP3   OH247977   5.318   0.177   2.150 -0.5193 -0.2886 -0.0299
 8829TIP3    H147978   5.283   0.134   2.229 -0.8648 -1.0595 -0.5949
 8829TIP3    H247979   5.299   0.116   2.079  0.7831 -0.0974 -0.5573
 8830TIP3   OH247980   5.549   6.306   6.256  0.9051 -0.1726 -0.5147
 8830TIP3    H147981   5.596   6.330   6.335  2.8132  0.0138 -1.6523
 8830TIP3    H247982   5.481   6.373   6.247 -0.0094 -0.7770  1.4640
 8831TIP3   OH247983   0.766   2.207   1.129 -0.4083 -0.3190 -0.0985
 8831TIP3    H147984   0.802   2.296   1.131 -0.3312 -0.3590  0.6656
 8831TIP3    H247985   0.711   2.205   1.051 -3.6183  1.6688  1.9145
 8832TIP3   OH247986   0.874   4.428  13.038  0.4326 -0.2615  0.1898
 8832TIP3    H147987   0.805   4.494  13.045  0.5867  0.2417 -2.1757
 8832TIP3    H247988   0.955   4.475  13.057  0.3220 -0.3772  0.9699
 8833TIP3   OH247989   0.691   2.515  10.923  0.3448 -0.1182  0.5008
 8833TIP3    H147990   0.672   2.425  10.952  2.2758 -0.5965  0.3900
 8833TIP3    H247991   0.779   2.533  10.955  0.9329  0.8593 -1.4834
 8834TIP3   OH247992   4.243   5.619  12.436  0.5202  0.4399 -0.2158
 8834TIP3    H147993   4.251   5.697  12.381  0.1174  0.4703 -0.2350
 8834TIP3    H247994   4.189   5.647  12.510 -0.2911 -0.0223 -0.6194
 8835TIP3   OH247995   1.762   6.191  15.687  0.4787 -0.1054 -0.2288
 8835TIP3    H147996   1.697   6.204  15.617  0.9349  1.4716 -0.4033
 8835TIP3    H247997   1.788   6.100  15.678  1.1081  0.2242 -2.6800
 8836TIP3   OH247998   1.506   3.122  13.274 -0.2156 -0.5396  0.1960
 8836TIP3    H147999   1.455   3.066  13.332  0.7632 -1.8961 -0.2045
 8836TIP3    H248000   1.514   3.071  13.193  0.0252  0.5283 -0.4729
 8837TIP3   OH248001   4.544   4.646  12.374  0.4070 -0.1551  0.1054
 8837TIP3    H148002   4.574   4.564  12.412 -0.9155 -1.4274 -1.4539
 8837TIP3    H248003   4.453   4.630  12.351 -0.4544  2.3666  1.3695
 8838TIP3   OH248004   4.422   2.680  12.028 -0.1520  0.1168 -0.3419
 8838TIP3    H148005   4.367   2.619  11.978  1.2998 -0.9576 -0.7045
 8838TIP3    H248006   4.484   2.623  12.073 -0.2123  1.2044  1.1750
 8839TIP3   OH248007   5.597   6.650   4.526 -0.5791  0.4014  0.0646
 8839TIP3    H148008   5.514   6.603   4.528  0.5613 -1.7619 -0.1740
 8839TIP3    H248009   5.646   6.616   4.600  1.4905 -1.2352 -1.9258
 8840TIP3   OH248010   1.625   2.902  15.682  0.4942  0.1092 -0.1540
 8840TIP3    H148011   1.585   2.953  15.612  0.9365  0.8763  0.1338
 8840TIP3    H248012   1.552   2.856  15.723 -0.0233  1.0159 -0.0152
 8841TIP3   OH248013   6.815   5.223  11.072  0.1538 -0.0810  0.2675
 8841TIP3    H148014   6.889   5.168  11.046 -0.2636 -0.4697 -0.1197
 8841TIP3    H248015   6.805   5.284  10.999  0.3911  0.2874  0.5375
 8842TIP3   OH248016   1.894   0.319  16.393 -1.0095  0.3114 -0.2611
 8842TIP3    H148017   1.921   0.265  16.319 -0.6541  0.6551 -0.3814
 8842TIP3    H248018   1.969   0.318  16.452 -1.3569 -0.1082  0.1831
 8843TIP3   OH248019   3.296   0.181  12.408  0.5322  0.3147  0.2055
 8843TIP3    H148020   3.274   0.089  12.396  0.2489  0.2485  1.1116
 8843TIP3    H248021   3.263   0.202  12.496  2.4267  0.7269  0.8602
 8844TIP3   OH248022   0.331   1.184   3.867  0.1524 -0.4714 -0.4193
 8844TIP3    H148023   0.374   1.207   3.949 -2.5749 -0.6652  1.1981
 8844TIP3    H248024   0.300   1.268   3.832 -0.7843 -0.6029  0.0570
 8845TIP3   OH248025   4.216   3.279  14.956  0.2351 -0.3778 -0.0503
 8845TIP3    H148026   4.135   3.255  14.909  0.6841 -0.1109 -0.9890
 8845TIP3    H248027   4.286   3.244  14.901  0.7856  0.1604  0.3027
 8846TIP3   OH248028   3.284   0.990  11.170  0.2429 -0.4759  0.0571
 8846TIP3    H148029   3.317   0.941  11.245 -1.5527  0.7070  1.7121
 8846TIP3    H248030   3.220   0.931  11.129 -0.3239 -0.3568  0.7475
 8847TIP3   OH248031   5.848   3.300   2.896  0.4055 -0.2120 -0.0931
 8847TIP3    H148032   5.835   3.241   2.970 -0.0231  0.1479  0.1207
 8847TIP3    H248033   5.826   3.248   2.819  0.6658 -0.5291  0.0452
 8848TIP3   OH248034   1.035   3.333  15.558  0.3958 -0.4545 -0.0572
 8848TIP3    H148035   1.130   3.318  15.551  0.5086 -0.0713  0.5921
 8848TIP3    H248036   0.998   3.283  15.485  1.0263 -1.2576  0.1579
 8849TIP3   OH248037   1.148   5.401   2.923 -0.2351 -0.3701 -0.1533
 8849TIP3    H148038   1.136   5.308   2.940  1.2453 -0.5157  0.1632
 8849TIP3    H248039   1.187   5.406   2.836  1.2962 -0.1610  0.5212
 8850TIP3   OH248040   5.534   0.296  15.512  0.2749 -0.2746 -0.4622
 8850TIP3    H148041   5.479   0.343  15.575 -0.2115  1.5131 -2.1108
 8850TIP3    H248042   5.471   0.260  15.449  0.7761 -1.6944 -0.1803
 8851TIP3   OH248043   5.941   4.446   2.616 -0.2018  0.6812  0.0876
 8851TIP3    H148044   6.020   4.432   2.668 -1.0516 -1.9731  0.7935
 8851TIP3    H248045   5.974   4.471   2.529  1.4767 -1.4366  0.0420
 8852TIP3   OH248046   6.645   5.029   4.384 -0.4366  0.1075  0.4734
 8852TIP3    H148047   6.597   4.978   4.319 -0.6229  1.2108 -0.2818
 8852TIP3    H248048   6.581   5.045   4.454 -0.6305  0.0404  0.3109
 8853TIP3   OH248049   1.359   3.475  15.950 -0.2479  0.5376 -0.3589
 8853TIP3    H148050   1.422   3.463  15.880 -0.1738  0.7734 -0.3340
 8853TIP3    H248051   1.409   3.513  16.022 -0.1826 -0.3293  0.0652
 8854TIP3   OH248052   5.169   0.507   1.937 -0.4315  0.1541  0.2439
 8854TIP3    H148053   5.229   0.575   1.906 -0.7742  0.7943  0.9537
 8854TIP3    H248054   5.201   0.483   2.023 -0.6169 -0.2230  0.2122
 8855TIP3   OH248055   3.132   4.570   2.593  0.4801 -0.1659  0.4413
 8855TIP3    H148056   3.071   4.531   2.655 -0.5351 -0.4174 -0.6813
 8855TIP3    H248057   3.190   4.498   2.568 -0.0819 -0.4590 -0.0514
 8856TIP3   OH248058   4.565   4.895   1.432  0.4274 -0.7957 -0.6267
 8856TIP3    H148059   4.520   4.952   1.371  1.0395 -1.2999 -1.5698
 8856TIP3    H248060   4.640   4.947   1.463  1.5859 -1.4066 -2.2792
 8857TIP3   OH248061   0.050   4.854  12.948 -0.4575  0.1190 -0.1032
 8857TIP3    H148062   0.076   4.796  13.019 -1.0695  0.0550  0.0703
 8857TIP3    H248063   0.075   4.807  12.868 -1.2137 -0.5165  0.0271
 8858TIP3   OH248064   0.758   0.175   6.194  0.1223 -0.9029  0.3290
 8858TIP3    H148065   0.697   0.244   6.167 -0.6038 -1.4148  0.5973
 8858TIP3    H248066   0.845   0.211   6.179 -0.2385  0.2810  0.9880
 8859TIP3   OH248067   3.473   3.077  12.556 -0.2695 -0.0872  0.1561
 8859TIP3    H148068   3.466   3.035  12.470  0.0896 -1.1787  0.6408
 8859TIP3    H248069   3.397   3.136  12.560  0.3792  0.9170 -1.3912
 8860TIP3   OH248070   2.525   6.145  14.202  0.7399  0.0050 -0.1040
 8860TIP3    H148071   2.475   6.096  14.268 -0.1017  1.5856  0.4686
 8860TIP3    H248072   2.584   6.200  14.253  2.3910 -1.0861 -0.7617
 8861TIP3   OH248073   1.530   1.466  13.418 -0.1213  0.2074  0.5386
 8861TIP3    H148074   1.618   1.450  13.384 -0.5997 -0.5540 -0.3791
 8861TIP3    H248075   1.489   1.523  13.353 -0.2609  0.6922  1.0464
 8862TIP3   OH248076   3.209   2.435   2.375  0.2557  0.2074 -0.0554
 8862TIP3    H148077   3.179   2.474   2.457  0.8012  1.2342 -0.3288
 8862TIP3    H248078   3.202   2.341   2.389  0.5285  0.3642  1.2402
 8863TIP3   OH248079   3.593   5.783  13.472  0.3610  0.1621 -0.4237
 8863TIP3    H148080   3.596   5.716  13.541 -0.9222  1.3844  0.9047
 8863TIP3    H248081   3.684   5.805  13.456  0.8445 -2.1052 -1.1478
 8864TIP3   OH248082   4.760   4.421   1.861 -0.0250  0.4285  0.4787
 8864TIP3    H148083   4.806   4.337   1.860 -1.9337 -0.7139  2.0084
 8864TIP3    H248084   4.769   4.452   1.950  0.2241  1.6185  0.0526
 8865TIP3   OH248085   6.360   2.154   4.022 -0.3683 -0.1064 -0.1734
 8865TIP3    H148086   6.415   2.222   3.984 -0.6433  1.4980  2.0543
 8865TIP3    H248087   6.275   2.165   3.980  0.4293 -1.3699 -2.2648
 8866TIP3   OH248088   4.900   3.453   2.095  0.3436 -0.4339  0.5639
 8866TIP3    H148089   4.831   3.387   2.087  0.5146 -0.7357  1.4613
 8866TIP3    H248090   4.945   3.451   2.010 -0.7240 -0.2476 -0.0241
 8867TIP3   OH248091   3.573   3.135   2.485 -0.0274 -0.5183  0.0459
 8867TIP3    H148092   3.624   3.064   2.524 -1.0073 -0.8632  0.7560
 8867TIP3    H248093   3.569   3.202   2.554  1.0543  0.3190 -0.6878
 8868TIP3   OH248094   2.633   0.401  11.460 -0.7465 -0.4386  0.0884
 8868TIP3    H148095   2.629   0.333  11.392 -3.1052  1.4075 -1.8192
 8868TIP3    H248096   2.597   0.358  11.538 -1.7809 -1.5437 -0.9441
 8869TIP3   OH248097   1.308   4.344   5.950 -0.2150 -0.8378 -0.0774
 8869TIP3    H148098   1.213   4.353   5.947 -0.6500 -1.4458  4.3140
 8869TIP3    H248099   1.324   4.250   5.961  1.2088 -1.1006 -3.3284
 8870TIP3   OH248100   0.768   2.377  13.012 -0.0037 -0.2215  1.1118
 8870TIP3    H148101   0.848   2.325  13.011 -0.6912 -1.4625 -2.1795
 8870TIP3    H248102   0.797   2.467  13.023  1.8989 -0.6190 -0.2620
 8871TIP3   OH248103   2.059   2.565   6.266  0.0736 -0.4911 -0.6945
 8871TIP3    H148104   1.974   2.530   6.292 -1.0013  0.7564 -2.3126
 8871TIP3    H248105   2.084   2.512   6.190  0.6609 -0.7166 -0.3512
 8872TIP3   OH248106   4.650   2.933  15.389 -0.0526 -0.1906  0.8076
 8872TIP3    H148107   4.695   3.007  15.430  2.5012 -1.4047  0.3600
 8872TIP3    H248108   4.601   2.972  15.317  3.9295  0.8912 -1.6244
 8873TIP3   OH248109   0.387   3.653  13.015 -0.0975  0.3520  0.2104
 8873TIP3    H148110   0.450   3.585  12.992  0.0573  0.9612 -1.2490
 8873TIP3    H248111   0.333   3.613  13.084  0.0899 -1.1756 -0.4906
 8874TIP3   OH248112   2.723   0.592   3.204 -0.0331 -0.3271 -0.1574
 8874TIP3    H148113   2.760   0.530   3.267  1.2913 -0.7696 -1.3144
 8874TIP3    H248114   2.774   0.578   3.124 -2.2746 -0.4646 -1.6599
 8875TIP3   OH248115   3.118   2.330  15.566  0.1822 -0.4834  0.6050
 8875TIP3    H148116   3.038   2.315  15.516  1.2098 -1.2673 -0.8944
 8875TIP3    H248117   3.164   2.246  15.564  0.8942 -0.1362  1.7029
 8876TIP3   OH248118   1.409   3.117  14.141  0.3187 -0.0323 -0.3158
 8876TIP3    H148119   1.406   3.036  14.090 -1.7915 -1.3122  1.6610
 8876TIP3    H248120   1.473   3.100  14.210 -1.6053 -0.9238  1.3522
 8877TIP3   OH248121   4.507   4.389   1.185  0.0595 -0.0448 -0.4438
 8877TIP3    H148122   4.578   4.336   1.149 -0.1786 -0.1151 -0.8161
 8877TIP3    H248123   4.548   4.472   1.208  0.7899 -0.9126  1.6432
 8878TIP3   OH248124   4.919   0.799  11.331  0.2780 -0.4909  0.4470
 8878TIP3    H148125   4.972   0.770  11.257  2.3973  0.3168  1.5842
 8878TIP3    H248126   4.978   0.795  11.406 -1.6807 -0.8890  2.0600
 8879TIP3   OH248127   0.771   2.965   2.642 -0.6135  0.1267  0.4847
 8879TIP3    H148128   0.680   2.965   2.668 -0.7301 -4.2469  0.7756
 8879TIP3    H248129   0.773   2.915   2.560  1.6168 -1.3142  1.3107
 8880TIP3   OH248130   1.475   0.721   4.449  0.2774 -0.1682 -0.5548
 8880TIP3    H148131   1.565   0.687   4.451 -0.2983 -1.7092  0.6156
 8880TIP3    H248132   1.439   0.688   4.366  0.3454 -0.8033 -0.3389
 8881TIP3   OH248133   6.141   5.323   0.347  0.6053 -0.4928  0.1104
 8881TIP3    H148134   6.162   5.312   0.254  0.6277  0.2266  0.0216
 8881TIP3    H248135   6.139   5.418   0.360  1.2488 -0.5870  0.9969
 8882TIP3   OH248136   2.727   6.538   1.211  0.4112 -1.0628  0.4702
 8882TIP3    H148137   2.791   6.486   1.162 -0.1110 -2.3580  1.1161
 8882TIP3    H248138   2.646   6.488   1.204 -0.6264  0.6618 -0.5341
 8883TIP3   OH248139   3.431   5.629   0.696  0.6950 -0.6434 -0.1861
 8883TIP3    H148140   3.387   5.554   0.738 -0.9113 -0.3650 -1.2531
 8883TIP3    H248141   3.367   5.660   0.632  1.4560  1.4680  0.0218
 8884TIP3   OH248142   4.595   2.755   5.556 -0.1667  0.3559  0.0048
 8884TIP3    H148143   4.636   2.762   5.642 -1.5399  0.3037  0.7067
 8884TIP3    H248144   4.508   2.719   5.575 -0.4975  0.3691 -1.4084
 8885TIP3   OH248145   6.555   4.281   5.995 -0.2113  0.3935 -0.1244
 8885TIP3    H148146   6.461   4.271   5.983  0.2818 -4.0817 -1.9650
 8885TIP3    H248147   6.583   4.333   5.919 -0.9009 -0.7523 -1.1927
 8886TIP3   OH248148   5.965   0.080  13.339  0.1683  0.4757  0.7404
 8886TIP3    H148149   6.041   0.029  13.366 -0.1710 -0.1963  0.4318
 8886TIP3    H248150   5.958   0.066  13.245 -0.5313  0.2657  0.8215
 8887TIP3   OH248151   6.740   3.658   3.063 -0.2579  0.1329  0.1516
 8887TIP3    H148152   6.706   3.580   3.019 -1.4137  0.2650  0.7534
 8887TIP3    H248153   6.684   3.667   3.140  1.8289 -0.1982  1.7605
 8888TIP3   OH248154   4.621   2.160  14.423 -0.1448  0.0041  0.0193
 8888TIP3    H148155   4.555   2.091  14.429 -0.5376  0.2006 -1.5571
 8888TIP3    H248156   4.573   2.240  14.442  0.3392 -0.1343  1.9822
 8889TIP3   OH248157   6.063   4.328  10.862 -0.0966 -0.1671 -0.6135
 8889TIP3    H148158   5.985   4.299  10.908 -0.1877  1.0128  0.0283
 8889TIP3    H248159   6.032   4.394  10.800  0.3671  0.1844 -0.4800
 8890TIP3   OH248160   3.903   4.079  12.911  0.0603 -0.0285 -0.7353
 8890TIP3    H148161   3.989   4.074  12.951  1.3357  2.3884 -2.8701
 8890TIP3    H248162   3.844   4.105  12.982  1.0749 -1.4046  0.6787
 8891TIP3   OH248163   4.105   2.948  15.506  0.1494  0.3371  0.4691
 8891TIP3    H148164   4.068   3.025  15.550 -2.1804 -1.3826  1.7286
 8891TIP3    H248165   4.158   2.905  15.572 -2.1182 -1.4193  1.2807
 8892TIP3   OH248166   0.189   6.046   1.389  0.3725 -0.0754  0.1291
 8892TIP3    H148167   0.220   6.088   1.309 -1.6249 -0.6708 -1.0227
 8892TIP3    H248168   0.120   6.105   1.421 -1.7493 -1.8171 -0.9525
 8893TIP3   OH248169   5.630   0.257  11.537  0.6353 -0.1476 -0.3730
 8893TIP3    H148170   5.710   0.308  11.546  1.3837 -1.4211  0.5794
 8893TIP3    H248171   5.632   0.224  11.448  0.2073  1.3271 -0.9542
 8894TIP3   OH248172   1.844   5.497   5.513 -0.0888 -0.0333  0.1703
 8894TIP3    H148173   1.801   5.545   5.585  1.1265 -1.2266  1.7771
 8894TIP3    H248174   1.793   5.417   5.503  0.5074 -0.4857  0.6510
 8895TIP3   OH248175   5.014   2.657  12.832 -0.8994 -0.3187 -0.1855
 8895TIP3    H148176   5.085   2.646  12.770 -1.2326 -1.1301 -0.4275
 8895TIP3    H248177   4.938   2.678  12.778 -0.6536  1.5868  0.1353
 8896TIP3   OH248178   5.179   0.704   0.215  0.2210 -0.3388 -0.1596
 8896TIP3    H148179   5.262   0.727   0.175  0.7483 -2.9800 -0.7595
 8896TIP3    H248180   5.119   0.774   0.189  1.9123  0.8985 -0.8543
 8897TIP3   OH248181   6.150   2.231  15.497 -0.1449  0.0267  0.1586
 8897TIP3    H148182   6.077   2.180  15.534  0.3211  0.7043  2.1423
 8897TIP3    H248183   6.132   2.321  15.525  0.9080  0.3713 -0.2359
 8898TIP3   OH248184   5.743   6.033  12.687  0.4003  0.6195 -0.5479
 8898TIP3    H148185   5.693   5.956  12.714  0.6109  0.1853 -1.3645
 8898TIP3    H248186   5.814   6.040  12.752  0.5991 -0.1015 -0.6784
 8899TIP3   OH248187   2.175   1.864   0.149  0.5401  0.0242  0.3763
 8899TIP3    H148188   2.205   1.800   0.085  0.2703 -0.9912  1.2347
 8899TIP3    H248189   2.221   1.842   0.229 -1.6316 -0.9107  1.4429
 8900TIP3   OH248190   3.903   3.289   6.313  0.2783 -0.1526  0.0829
 8900TIP3    H148191   3.823   3.332   6.283 -1.5852 -2.3283  1.6060
 8900TIP3    H248192   3.962   3.361   6.333 -2.0646  1.6709  0.9471
 8901TIP3   OH248193   3.267   1.140  12.335  0.5175  0.2864  0.2964
 8901TIP3    H148194   3.301   1.050  12.341 -1.4558 -0.6665 -1.4161
 8901TIP3    H248195   3.173   1.131  12.345 -0.0090  1.7985 -2.3161
 8902TIP3   OH248196   5.632   2.853  12.481 -0.1579  0.0233  0.2518
 8902TIP3    H148197   5.562   2.834  12.544 -0.4030  0.0054 -0.0250
 8902TIP3    H248198   5.706   2.880  12.535 -0.6734  0.9879  0.5057
 8903TIP3   OH248199   1.954   3.892   4.972  0.1841  0.7137 -0.6958
 8903TIP3    H148200   1.980   3.850   4.890 -0.1460 -1.5382  0.2539
 8903TIP3    H248201   1.861   3.912   4.960 -0.6470 -2.1536 -0.0391
 8904TIP3   OH248202   4.562   4.316   1.705 -0.1108  0.3720 -0.0223
 8904TIP3    H148203   4.645   4.334   1.748  1.0815  0.3688 -2.1904
 8904TIP3    H248204   4.537   4.399   1.665 -1.0206  0.2955  0.3603
 8905TIP3   OH248205   6.647   3.410   2.937 -0.7678 -0.3024  0.7802
 8905TIP3    H148206   6.588   3.371   2.872 -0.3717 -1.6461  1.2127
 8905TIP3    H248207   6.616   3.377   3.021 -0.9111  0.9657  1.2593
 8906TIP3   OH248208   0.243   3.850   4.790 -0.7182 -0.3513  0.2352
 8906TIP3    H148209   0.212   3.886   4.707 -1.4926  0.0919  0.7047
 8906TIP3    H248210   0.217   3.914   4.855 -1.2774 -1.2878  0.9707
 8907TIP3   OH248211   3.488   5.736   5.454  0.4227  0.0854 -0.0384
 8907TIP3    H148212   3.411   5.745   5.398 -1.5786 -0.6422  2.4081
 8907TIP3    H248213   3.515   5.645   5.445 -1.3642 -0.7046  1.8072
 8908TIP3   OH248214   1.241   0.141  11.722 -0.0682  0.1846  0.3164
 8908TIP3    H148215   1.297   0.219  11.720  0.0811  0.0627 -1.0724
 8908TIP3    H248216   1.303   0.068  11.722 -0.2184  0.0456  1.0640
 8909TIP3   OH248217   4.027   6.397  11.623 -0.6031 -0.1938 -0.4402
 8909TIP3    H148218   4.063   6.355  11.701 -1.2289 -0.2366 -0.1723
 8909TIP3    H248219   4.103   6.437  11.581 -0.1844 -0.5837 -0.0693
 8910TIP3   OH248220   4.140   2.199   2.517 -0.3265 -0.1542 -0.4861
 8910TIP3    H148221   4.206   2.144   2.558  0.1968  0.2388 -0.7874
 8910TIP3    H248222   4.178   2.224   2.432 -1.9799 -2.1570 -1.9329
 8911TIP3   OH248223   1.755   6.705  11.479 -0.0686 -0.1748  0.0763
 8911TIP3    H148224   1.834   6.735  11.523 -1.0022  2.1003  0.3325
 8911TIP3    H248225   1.783   6.682  11.391  0.8847  0.5092  0.1902
 8912TIP3   OH248226   6.784   0.151  14.744 -0.0669 -0.1643  0.0481
 8912TIP3    H148227   6.728   0.074  14.741 -0.7007  0.2654 -3.3757
 8912TIP3    H248228   6.724   0.225  14.750  0.3610  0.1682  0.2792
 8913TIP3   OH248229   4.322   3.359   2.965 -0.1062 -0.6999  0.1287
 8913TIP3    H148230   4.388   3.428   2.965 -0.4557 -0.2993  1.8855
 8913TIP3    H248231   4.238   3.405   2.972 -0.5117 -1.2439 -0.9157
 8914TIP3   OH248232   3.213   3.093   4.998 -0.5499 -0.3040 -0.0431
 8914TIP3    H148233   3.257   3.080   4.914 -1.3793 -0.6523 -0.4349
 8914TIP3    H248234   3.221   3.009   5.043 -0.5002 -0.2594  0.0306
 8915TIP3   OH248235   2.503   2.034  16.800  0.0634  0.5986  0.2556
 8915TIP3    H148236   2.441   2.104  16.821 -0.0113  1.0431 -1.2740
 8915TIP3    H248237   2.589   2.071  16.822  0.2002  1.9303 -2.1636
 8916TIP3   OH248238   4.617   0.101   1.981  0.1227 -0.7062 -0.1255
 8916TIP3    H148239   4.616   0.113   2.076  0.4845  0.5474 -0.2513
 8916TIP3    H248240   4.608   0.190   1.946  0.1401 -1.1350 -1.2617
 8917TIP3   OH248241   4.177   3.997  13.409 -0.4025  0.2185  0.6139
 8917TIP3    H148242   4.128   4.005  13.490  2.2945  1.1608  2.3027
 8917TIP3    H248243   4.172   4.084  13.369 -0.0154  0.3568  0.8618
 8918TIP3   OH248244   6.302   2.337   0.966  0.4875 -0.0404 -0.0867
 8918TIP3    H148245   6.259   2.400   0.907  2.5264  0.6421 -0.9375
 8918TIP3    H248246   6.260   2.352   1.051 -0.5895  0.9308 -0.7554
 8919TIP3   OH248247   1.009   1.188  15.781 -0.0336  0.4666 -0.4545
 8919TIP3    H148248   0.950   1.217  15.851 -1.5329  0.8495 -1.8277
 8919TIP3    H248249   0.952   1.143  15.719  1.6583 -2.2162 -0.2217
 8920TIP3   OH248250   3.109   2.569   4.431  0.3054 -0.7426 -0.3614
 8920TIP3    H148251   3.124   2.474   4.429  1.7517 -0.5385 -0.1357
 8920TIP3    H248252   3.018   2.578   4.459  0.2800 -2.0643  0.0543
 8921TIP3   OH248253   1.695   0.622   5.601 -0.1932  0.8843 -0.9169
 8921TIP3    H148254   1.721   0.567   5.675  1.0513  1.9470 -0.5334
 8921TIP3    H248255   1.762   0.690   5.597 -1.6091  2.3112 -1.4480
 8922TIP3   OH248256   5.271   1.295   0.554  0.3184 -0.3264  0.2133
 8922TIP3    H148257   5.182   1.273   0.583 -0.9787  0.0998 -2.9967
 8922TIP3    H248258   5.292   1.376   0.599 -0.2261 -1.2369  2.2189
 8923TIP3   OH248259   5.661   2.190  16.491 -0.1913 -0.4434  0.5639
 8923TIP3    H148260   5.750   2.157  16.483  0.4722  0.7093  2.4669
 8923TIP3    H248261   5.638   2.175  16.583 -1.0770  1.3348  0.6849
 8924TIP3   OH248262   5.494   4.250   3.297  0.0223 -0.0312  0.2996
 8924TIP3    H148263   5.489   4.229   3.390 -1.7771 -4.1044 -0.4992
 8924TIP3    H248264   5.410   4.290   3.276  1.1242  2.7223  0.6022
 8925TIP3   OH248265   0.236   4.261  17.165 -0.1723 -0.2751  0.5008
 8925TIP3    H148266   0.154   4.264  17.214 -0.5579 -1.1094 -0.0595
 8925TIP3    H248267   0.237   4.343  17.116 -0.3430  0.0444  1.0214
 8926TIP3   OH248268   5.725   6.649   6.578 -0.0893 -0.5943 -0.2526
 8926TIP3    H148269   5.808   6.692   6.558  1.0953 -1.9435  1.4833
 8926TIP3    H248270   5.660   6.719   6.573  1.2629  0.6727 -0.7654
 8927TIP3   OH248271   0.757   0.433   5.165 -0.3608 -0.4996  0.0282
 8927TIP3    H148272   0.805   0.495   5.220 -0.4154  0.9415 -1.4465
 8927TIP3    H248273   0.823   0.401   5.102 -1.1858  1.4454 -1.9711
 8928TIP3   OH248274   4.599   4.657   1.292  0.7764  0.2838  0.3971
 8928TIP3    H148275   4.572   4.735   1.340  0.8613 -0.6962  2.1122
 8928TIP3    H248276   4.660   4.690   1.225 -1.2148  1.9803 -0.6904
 8929TIP3   OH248277   3.614   2.118  16.821  0.2914 -0.2785 -0.1095
 8929TIP3    H148278   3.598   2.190  16.760  0.6574 -0.4495 -0.4052
 8929TIP3    H248279   3.709   2.111  16.825  0.2821 -0.0203  0.7715
 8930TIP3   OH248280   2.473   6.287   2.526 -0.3692 -0.5140  0.1343
 8930TIP3    H148281   2.550   6.337   2.500  0.5226 -1.2125  1.3159
 8930TIP3    H248282   2.507   6.218   2.583 -1.7874 -1.2945  0.0861
 8931TIP3   OH248283   2.231   4.905   0.218  0.0147  0.2529  0.0583
 8931TIP3    H148284   2.150   4.901   0.268  0.9661 -1.0617  1.6220
 8931TIP3    H248285   2.297   4.871   0.278  1.6138  0.6581 -1.3955
 8932TIP3   OH248286   5.992   1.012  12.141 -0.2352 -0.0910  0.3417
 8932TIP3    H148287   6.004   1.090  12.088  0.0865 -0.6427 -0.4201
 8932TIP3    H248288   6.013   0.939  12.082  1.2077 -0.6867  1.5092
 8933TIP3   OH248289   2.826   5.145   5.917  0.1752 -0.3637 -0.1378
 8933TIP3    H148290   2.833   5.089   5.994 -0.4724 -1.7946 -1.0805
 8933TIP3    H248291   2.758   5.208   5.939  1.8631  1.0043  1.4673
 8934TIP3   OH248292   1.909   0.610  11.758  0.3190 -0.1566  0.4418
 8934TIP3    H148293   1.988   0.575  11.716  0.8022 -0.6246  1.6949
 8934TIP3    H248294   1.844   0.541  11.749 -0.0680  0.3505 -0.8667
 8935TIP3   OH248295   2.334   4.058   4.730  0.2749  0.3106  0.5103
 8935TIP3    H148296   2.261   4.071   4.671 -0.3546 -0.8810  0.9996
 8935TIP3    H248297   2.298   4.076   4.817  0.7347  0.3779  0.6898
 8936TIP3   OH248298   5.934   5.425  16.232 -0.2438 -0.1983 -0.1755
 8936TIP3    H148299   5.863   5.478  16.195 -1.0243 -0.3572  1.0354
 8936TIP3    H248300   6.010   5.446  16.178 -0.9097  0.9377 -0.7161
 8937TIP3   OH248301   6.209   2.754  15.193  0.4643 -0.1080 -0.2369
 8937TIP3    H148302   6.210   2.841  15.233  2.7191  0.3602 -1.1476
 8937TIP3    H248303   6.247   2.768  15.106  0.3917 -1.9351 -0.5950
 8938TIP3   OH248304   0.332   5.616  16.386 -0.3838 -0.4525  0.4111
 8938TIP3    H148305   0.356   5.536  16.432  0.1558 -0.7091 -0.3023
 8938TIP3    H248306   0.266   5.588  16.322  1.0836 -0.6993 -1.0743
 8939TIP3   OH248307   1.400   6.626   0.429  0.0106  1.0135 -0.1391
 8939TIP3    H148308   1.496   6.626   0.436  0.1826 -0.5374 -1.7757
 8939TIP3    H248309   1.382   6.566   0.357 -2.2107  1.3428  0.0969
 8940TIP3   OH248310   5.975   0.821  11.648 -0.3936 -0.1530 -1.2679
 8940TIP3    H148311   5.967   0.772  11.566  1.0486 -0.3786 -1.2868
 8940TIP3    H248312   5.895   0.798  11.697 -0.7460 -0.8582 -2.1455
 8941TIP3   OH248313   5.298   0.111   2.535 -0.3573 -0.6768  0.0481
 8941TIP3    H148314   5.319   0.044   2.470  2.2741  0.5097 -0.4102
 8941TIP3    H248315   5.277   0.061   2.614 -0.0437 -2.0716 -0.7165
 8942TIP3   OH248316   3.913   3.484  15.295  0.4348  0.4217  0.0554
 8942TIP3    H148317   3.906   3.580  15.289  0.3256  0.4511  0.5932
 8942TIP3    H248318   3.952   3.458  15.212 -1.5012  0.7385 -1.0097
 8943TIP3   OH248319   5.640   4.220   7.001 -0.1341  0.0854 -0.4760
 8943TIP3    H148320   5.700   4.235   6.927 -0.0325  1.3974 -0.1562
 8943TIP3    H248321   5.561   4.268   6.977  0.4627  1.8926  0.9406
 8944TIP3   OH248322   5.774   3.410  13.023 -0.7893 -0.3573 -0.2541
 8944TIP3    H148323   5.818   3.471  12.964 -0.8716  0.6193  0.6768
 8944TIP3    H248324   5.844   3.375  13.079 -0.8775 -0.4496 -0.1997
 8945TIP3   OH248325   4.363   4.285   5.189  0.0500  0.0413  0.2031
 8945TIP3    H148326   4.325   4.252   5.270 -0.1252  0.3278  0.2392
 8945TIP3    H248327   4.428   4.350   5.217 -1.0311  1.2198  0.0912
 8946TIP3   OH248328   5.375   1.841   0.586  0.5498  0.7325  0.1612
 8946TIP3    H148329   5.282   1.834   0.608  0.9883 -1.8094  1.6473
 8946TIP3    H248330   5.376   1.889   0.503 -2.0787  0.7393  0.0297
 8947TIP3   OH248331   1.554   5.328   2.498  0.6446 -0.2831  0.1645
 8947TIP3    H148332   1.566   5.420   2.475 -1.2244 -0.6219 -2.7094
 8947TIP3    H248333   1.459   5.318   2.506  0.9056 -1.6558  2.0290
 8948TIP3   OH248334   6.661   6.517  16.301  0.1421  0.2042 -0.2905
 8948TIP3    H148335   6.746   6.490  16.336  1.2195  2.7922 -0.6739
 8948TIP3    H248336   6.670   6.505  16.206 -0.7163 -1.4508 -0.1923
 8949TIP3   OH248337   0.716   1.623   2.853 -0.2456 -0.4815  0.4070
 8949TIP3    H148338   0.771   1.591   2.923  2.4515  2.4799 -0.0977
 8949TIP3    H248339   0.773   1.623   2.775 -0.9215  2.3479 -0.2363
 8950TIP3   OH248340   1.670   0.916   0.071 -0.1865  0.5884  0.7913
 8950TIP3    H148341   1.736   0.948   0.132 -0.3850 -0.5734  1.6493
 8950TIP3    H248342   1.594   0.897   0.127 -0.4982 -0.1360  0.1302
 8951TIP3   OH248343   5.311   1.500  10.663 -0.1723  0.5486  0.5208
 8951TIP3    H148344   5.353   1.416  10.681  2.7221  1.7270 -0.2103
 8951TIP3    H248345   5.309   1.506  10.568 -1.5519  0.7796  0.5483
 8952TIP3   OH248346   2.989   3.145  14.496 -0.5833 -0.2028  0.2863
 8952TIP3    H148347   2.969   3.224  14.547 -1.0653 -0.2327  0.1465
 8952TIP3    H248348   2.969   3.169  14.406 -3.2971 -1.2613  0.5014
 8953TIP3   OH248349   3.230   3.109   4.231 -0.1377 -0.7368 -0.0858
 8953TIP3    H148350   3.280   3.177   4.186 -1.7463 -0.2530 -1.2276
 8953TIP3    H248351   3.159   3.157   4.273 -0.8410 -1.6307 -0.2458
 8954TIP3   OH248352   0.013   4.232   5.912 -0.1697 -0.5984  0.2079
 8954TIP3    H148353  -0.078   4.235   5.941 -0.5721  0.2230 -1.0725
 8954TIP3    H248354   0.041   4.142   5.932 -1.6129 -1.2247 -0.4197
 8955TIP3   OH248355   0.227   0.307   5.620  0.2153  0.0162  0.1907
 8955TIP3    H148356   0.166   0.268   5.682 -1.7061  0.1525 -1.5395
 8955TIP3    H248357   0.198   0.397   5.611 -0.0975 -0.2224 -1.5256
 8956TIP3   OH248358   3.576   4.129   2.436  0.2949  0.1946  0.1170
 8956TIP3    H148359   3.493   4.106   2.479  0.4540 -0.3638  0.1341
 8956TIP3    H248360   3.634   4.154   2.508  0.1457  0.5648  0.1071
 8957TIP3   OH248361   5.454   6.211   3.872 -0.0038  0.5278  0.2603
 8957TIP3    H148362   5.512   6.173   3.806  1.4922 -0.4143  2.0030
 8957TIP3    H248363   5.366   6.195   3.840  0.5830  2.9408 -3.0373
 8958TIP3   OH248364   6.819   5.793  13.753 -0.0016 -0.3823 -0.2736
 8958TIP3    H148365   6.838   5.782  13.846  0.5649  1.8453 -0.0749
 8958TIP3    H248366   6.889   5.849  13.720  0.2173 -1.7224 -2.2419
 8959TIP3   OH248367   0.385   0.894   5.255  0.2918  0.2337  0.4495
 8959TIP3    H148368   0.335   0.874   5.176  1.7806  0.1761 -0.5087
 8959TIP3    H248369   0.416   0.809   5.287 -0.7330  0.1989  1.4228
 8960TIP3   OH248370   0.642   1.108  12.035 -0.5236 -0.2467 -0.1513
 8960TIP3    H148371   0.562   1.073  11.994 -1.7330  2.4838 -0.3291
 8960TIP3    H248372   0.641   1.201  12.014  1.0435  0.4864  2.5668
 8961TIP3   OH248373   1.960   6.674   2.729  0.4432 -0.7944 -0.3656
 8961TIP3    H148374   2.050   6.644   2.745  1.3523  1.2971 -1.2179
 8961TIP3    H248375   1.934   6.630   2.648  1.6751  0.4810 -1.4976
 8962TIP3   OH248376   1.483   6.047   3.683 -0.1405 -0.0636 -0.2900
 8962TIP3    H148377   1.496   5.955   3.659 -1.1545 -0.7018  1.4436
 8962TIP3    H248378   1.389   6.054   3.700  0.1798  0.8570  1.2651
 8963TIP3   OH248379   5.486   4.026  11.315 -0.4339  0.3577 -0.5222
 8963TIP3    H148380   5.401   3.985  11.300 -0.4462 -0.1063  0.6797
 8963TIP3    H248381   5.492   4.095  11.248 -2.3428  1.2762  0.1736
 8964TIP3   OH248382   1.545   1.524   6.334  0.4196  0.1194 -0.1990
 8964TIP3    H148383   1.491   1.451   6.363  0.1444  0.5904  0.5043
 8964TIP3    H248384   1.484   1.581   6.287  0.8278 -0.5551 -1.5899
 8965TIP3   OH248385   1.436   0.147   3.362  0.8738  0.4069 -0.8417
 8965TIP3    H148386   1.427   0.203   3.440 -2.4436  0.4494 -1.1183
 8965TIP3    H248387   1.509   0.186   3.314  0.6684  2.6530  0.4865
 8966TIP3   OH248388   6.107   3.616  15.096 -0.0734  0.1380 -0.1167
 8966TIP3    H148389   6.172   3.632  15.028 -1.1299  0.3347 -1.1117
 8966TIP3    H248390   6.124   3.526  15.125  1.2163  0.5081  0.2902
 8967TIP3   OH248391   6.215   6.715  14.496 -0.0077  0.0301 -0.4891
 8967TIP3    H148392   6.135   6.663  14.500  2.1433 -3.8503 -2.1105
 8967TIP3    H248393   6.221   6.742  14.404  0.8860 -0.4266 -0.5767
 8968TIP3   OH248394   3.282   2.769  16.037 -0.1672 -0.2393  0.3221
 8968TIP3    H148395   3.192   2.800  16.032  0.0201  0.1375 -1.1450
 8968TIP3    H248396   3.287   2.698  15.973  1.4073  2.0206 -2.2649
 8969TIP3   OH248397   1.045   2.813  15.601  0.1485 -0.0961  0.4774
 8969TIP3    H148398   1.087   2.886  15.647 -0.0334  0.3689 -0.0704
 8969TIP3    H248399   0.952   2.825  15.617  0.1147 -0.1852  0.3505
 8970TIP3   OH248400   5.041   5.260  14.099 -0.4868 -0.1843  0.1250
 8970TIP3    H148401   5.115   5.307  14.059 -1.5880  1.7899  0.2406
 8970TIP3    H248402   4.974   5.259  14.030 -1.4401  0.8820  0.9901
 8971TIP3   OH248403   4.351   5.418  14.688  0.6093  0.0253 -0.0816
 8971TIP3    H148404   4.279   5.435  14.748  0.7773 -0.1494  0.1751
 8971TIP3    H248405   4.408   5.495  14.696 -0.5960  1.1784 -1.8752
 8972TIP3   OH248406   2.370   2.091   2.886 -0.3366  0.0703 -0.3884
 8972TIP3    H148407   2.313   2.104   2.810  0.4140 -1.6068 -1.2941
 8972TIP3    H248408   2.334   2.014   2.930  0.1378  0.1122  0.0797
 8973TIP3   OH248409   0.493   4.298  14.902  0.1670 -0.1604  0.9261
 8973TIP3    H148410   0.452   4.296  14.815 -0.0678  2.9789  0.8676
 8973TIP3    H248411   0.420   4.307  14.963  0.3386 -2.2552  1.5277
 8974TIP3   OH248412   0.295   4.671  14.882  0.0550 -0.2426 -0.4454
 8974TIP3    H148413   0.266   4.678  14.791 -1.5655 -0.2479  0.0507
 8974TIP3    H248414   0.390   4.686  14.878 -0.0619  0.2191 -2.0636
 8975TIP3   OH248415   4.878   6.562  14.893 -0.1370  0.1444  0.1485
 8975TIP3    H148416   4.970   6.585  14.908 -0.0798  0.2735 -0.3873
 8975TIP3    H248417   4.828   6.631  14.939  0.0228  1.8475 -2.0596
 8976TIP3   OH248418   2.098   3.601   4.580  0.0344  0.3993 -0.9039
 8976TIP3    H148419   2.096   3.586   4.675 -0.8173 -0.2082 -1.0055
 8976TIP3    H248420   2.189   3.626   4.562 -0.3514  3.1869  0.4619
 8977TIP3   OH248421   2.489   6.219  13.153 -0.3151  0.2714 -0.3014
 8977TIP3    H148422   2.531   6.305  13.152 -0.6154  0.4507  1.1833
 8977TIP3    H248423   2.531   6.171  13.224 -1.5485 -0.0727  0.2341
 8978TIP3   OH248424   3.238   2.474   4.913  0.8437 -0.4691  0.1787
 8978TIP3    H148425   3.204   2.416   4.982  1.1002 -0.3319  0.4235
 8978TIP3    H248426   3.177   2.462   4.840  1.6865 -2.1335 -0.3094
 8979TIP3   OH248427   3.076   4.984  14.602 -0.4224 -0.0827 -0.1892
 8979TIP3    H148428   3.130   4.986  14.681 -1.0049 -0.3777  0.2223
 8979TIP3    H248429   3.017   4.910  14.615 -1.0889  0.3845 -0.5186
 8980TIP3   OH248430   1.353   3.065   1.183 -0.3083  0.1607  0.3470
 8980TIP3    H148431   1.283   3.123   1.214 -1.8440 -0.6422 -1.3901
 8980TIP3    H248432   1.384   3.105   1.102 -2.3801 -1.9693 -1.6758
 8981TIP3   OH248433   3.026   0.787  13.946  0.8327  0.3577  0.4553
 8981TIP3    H148434   3.097   0.832  13.901  0.5422 -1.2896 -1.8354
 8981TIP3    H248435   2.947   0.817  13.901  0.2307  0.6434  1.6545
 8982TIP3   OH248436   1.240   0.914  14.194 -0.3053 -0.0890  0.0561
 8982TIP3    H148437   1.248   0.821  14.216 -0.3776  0.4244  2.6127
 8982TIP3    H248438   1.264   0.919  14.102  1.4684 -2.3969  0.2886
 8983TIP3   OH248439   3.951   0.934  11.381  0.1151  0.4395  0.5870
 8983TIP3    H148440   3.888   0.978  11.438  1.5937  1.3985  1.5087
 8983TIP3    H248441   4.018   1.000  11.362  0.7210 -0.4687 -0.6205
 8984TIP3   OH248442   5.124   5.657  12.370 -0.3925 -0.2735  0.2927
 8984TIP3    H148443   5.059   5.721  12.341  0.2372  0.6562  0.8702
 8984TIP3    H248444   5.107   5.646  12.464  1.2164  1.1711  0.8098
 8985TIP3   OH248445   4.669   4.509  15.596 -0.4951 -0.2453 -0.4023
 8985TIP3    H148446   4.611   4.533  15.668 -0.7649  0.6101 -0.8861
 8985TIP3    H248447   4.674   4.588  15.542  0.3871 -0.6040 -0.8625
 8986TIP3   OH248448   4.068   3.047  16.978 -0.2806 -0.0071  0.0365
 8986TIP3    H148449   4.098   3.063  16.888  2.3251  0.8641  0.9647
 8986TIP3    H248450   3.993   2.988  16.968  0.1078 -0.1846 -2.6713
 8987TIP3   OH248451   4.640   2.280  12.484  0.7849  0.3303 -0.0367
 8987TIP3    H148452   4.669   2.337  12.555  0.1434 -0.0026  0.5067
 8987TIP3    H248453   4.640   2.192  12.522 -1.5303  0.3850  0.2318
 8988TIP3   OH248454   5.753   2.847  16.879  0.3166 -0.0318  0.2928
 8988TIP3    H148455   5.815   2.892  16.821 -1.0319  0.5424 -0.7534
 8988TIP3    H248456   5.780   2.755  16.876  0.7244  0.1082 -0.6495
 8989TIP3   OH248457   4.319   4.465   3.044 -0.8243 -0.2084 -0.1729
 8989TIP3    H148458   4.243   4.441   2.992 -0.1573 -1.4791 -0.6030
 8989TIP3    H248459   4.286   4.473   3.133 -1.6069  0.0663 -0.4824
 8990TIP3   OH248460   5.943   5.645  13.203  0.4432 -0.0201 -0.7255
 8990TIP3    H148461   6.007   5.627  13.272 -0.6771  1.1093  0.6659
 8990TIP3    H248462   5.969   5.730  13.167 -0.0949  0.3249 -0.3249
 8991TIP3   OH248463   6.763   4.487   1.848 -0.5196  0.3003 -0.4546
 8991TIP3    H148464   6.833   4.518   1.791 -0.0439 -0.1559 -0.1292
 8991TIP3    H248465   6.754   4.394   1.825 -0.8449  0.2948 -0.3110
 8992TIP3   OH248466   6.578   3.651  13.688  0.0227 -0.0837 -0.1913
 8992TIP3    H148467   6.506   3.627  13.745 -0.3370  1.3800  0.0194
 8992TIP3    H248468   6.573   3.589  13.615 -2.0109  0.5405 -0.6288
 8993TIP3   OH248469   6.087   5.122   3.060  0.3111 -0.1502  0.5503
 8993TIP3    H148470   6.111   5.095   3.149 -0.0914 -1.5235  0.2574
 8993TIP3    H248471   6.111   5.049   3.005  0.3277  0.5984 -0.4604
 8994TIP3   OH248472   3.818   2.725   0.825 -0.5524 -0.6021  0.1077
 8994TIP3    H148473   3.877   2.663   0.868 -0.2181 -0.2546  0.1512
 8994TIP3    H248474   3.791   2.679   0.745  0.7759 -0.2765 -0.5585
 8995TIP3   OH248475   3.205   1.471   3.671  0.0041  0.5960 -0.2953
 8995TIP3    H148476   3.164   1.384   3.674  0.2343  0.5089  1.2728
 8995TIP3    H248477   3.267   1.471   3.743 -2.1256  3.0500  1.7822
 8996TIP3   OH248478   5.365   1.063  12.984 -0.1392 -0.3777 -0.2038
 8996TIP3    H148479   5.354   1.021  12.899  1.9704 -1.5085  0.0087
 8996TIP3    H248480   5.399   0.993  13.041 -0.6304  0.5826  1.3418
 8997TIP3   OH248481   1.318   1.149  15.490 -0.3630 -0.0925  0.1094
 8997TIP3    H148482   1.299   1.067  15.535 -0.4423 -0.2834 -0.2656
 8997TIP3    H248483   1.279   1.216  15.545 -0.1406 -0.2894  0.5105
 8998TIP3   OH248484   2.374   4.305   3.315  0.3188  0.3954 -0.2587
 8998TIP3    H148485   2.365   4.256   3.397  2.1711  0.1317 -0.1758
 8998TIP3    H248486   2.306   4.373   3.321 -0.2734 -0.2573  1.0032
 8999TIP3   OH248487   5.893   1.891   1.893  0.3962  0.2352 -0.2752
 8999TIP3    H148488   5.806   1.880   1.933  0.8038  0.0684  0.5883
 8999TIP3    H248489   5.954   1.868   1.963  1.1340 -0.0098 -0.9916
 9000TIP3   OH248490   4.366   3.514  12.725  0.0680  0.4334  0.3728
 9000TIP3    H148491   4.380   3.587  12.665 -0.6879  1.3540  1.2892
 9000TIP3    H248492   4.324   3.553  12.802  2.2593 -0.4223  2.1359
 9001TIP3   OH248493   3.421   4.979  14.585 -0.2756 -0.3687  0.3022
 9001TIP3    H148494   3.382   5.009  14.503  2.1479  0.7539 -0.5225
 9001TIP3    H248495   3.455   4.892  14.565 -0.6524 -0.5538  0.4567
 9002TIP3   OH248496   5.658   0.647  14.038  0.6077 -0.1017 -0.8009
 9002TIP3    H148497   5.663   0.643  14.133 -0.9916  2.5030 -0.5187
 9002TIP3    H248498   5.744   0.678  14.010  0.2518  1.8048  0.0856
 9003TIP3   OH248499   6.451   4.505   0.311 -0.0334 -0.0285  0.6606
 9003TIP3    H148500   6.400   4.566   0.257 -0.2058  0.4315  1.3395
 9003TIP3    H248501   6.402   4.498   0.392  1.0091  0.4812  1.3569
 9004TIP3   OH248502   0.495   0.816  11.766  0.2349  0.0929  0.2365
 9004TIP3    H148503   0.434   0.797  11.837 -0.9100 -0.3317 -0.8221
 9004TIP3    H248504   0.538   0.897  11.792 -0.4179  0.1245  1.2531
 9005TIP3   OH248505   0.853   3.806  17.097 -0.0735  0.4609  0.0504
 9005TIP3    H148506   0.766   3.836  17.071 -1.4367 -2.5783  0.6786
 9005TIP3    H248507   0.883   3.752  17.024 -0.2455 -1.2444  1.1846
 9006TIP3   OH248508   4.473   0.083  14.874  0.1082 -0.2777  0.7237
 9006TIP3    H148509   4.489   0.109  14.965 -0.9706 -1.0507  1.1514
 9006TIP3    H248510   4.488  -0.011  14.872 -1.5623 -0.5685  0.5244
 9007TIP3   OH248511   0.919   1.288  14.532  0.0614 -0.3621 -0.1415
 9007TIP3    H148512   0.971   1.331  14.464  1.4440  0.2731  1.2347
 9007TIP3    H248513   0.832   1.280  14.495  0.9476 -0.7568 -2.2653
 9008TIP3   OH248514   3.249   3.518  11.377  0.2117 -0.0924  0.3230
 9008TIP3    H148515   3.211   3.602  11.403 -1.1824 -0.7448  0.4841
 9008TIP3    H248516   3.239   3.516  11.281  0.4402  0.0029  0.2947
 9009TIP3   OH248517   1.838   1.587   4.585  0.4672  0.1957  0.0863
 9009TIP3    H148518   1.865   1.587   4.677  0.1238 -0.2968  0.1862
 9009TIP3    H248519   1.919   1.607   4.537  0.5615  0.8948  0.5114
 9010TIP3   OH248520   2.050   3.380   3.464  0.0693  0.0445 -0.2765
 9010TIP3    H148521   2.087   3.415   3.382  0.7536 -1.5001 -0.6604
 9010TIP3    H248522   1.966   3.343   3.438 -0.2344  0.5472 -0.0411
 9011TIP3   OH248523   4.798   0.698   5.777  0.3570 -0.0232  0.1949
 9011TIP3    H148524   4.739   0.746   5.835 -3.3125 -2.4385 -1.2146
 9011TIP3    H248525   4.797   0.747   5.695 -0.5208 -0.5202 -0.1102
 9012TIP3   OH248526   2.247   2.615   3.870  0.6832 -0.3321  0.0457
 9012TIP3    H148527   2.215   2.622   3.960  0.6040  1.2113 -0.0859
 9012TIP3    H248528   2.178   2.652   3.816  0.3442 -2.0718 -0.7634
 9013TIP3   OH248529   0.947   1.831   4.964 -0.2156  0.4956  0.0024
 9013TIP3    H148530   0.991   1.908   4.928  1.4069 -0.4065 -0.0566
 9013TIP3    H248531   0.969   1.832   5.057  1.6506 -0.9624 -0.3357
 9014TIP3   OH248532   1.196   6.427  16.261 -0.8722 -0.3459 -0.0224
 9014TIP3    H148533   1.251   6.486  16.312 -0.7280 -1.5314  1.2230
 9014TIP3    H248534   1.111   6.472  16.256 -0.3022  0.7269 -0.5547
 9015TIP3   OH248535   0.125   4.457  12.617 -0.0362 -0.3733  0.0708
 9015TIP3    H148536   0.219   4.440  12.608 -0.3081 -2.0635 -0.0338
 9015TIP3    H248537   0.111   4.471  12.711  0.1811 -1.1650  0.2272
 9016TIP3   OH248538   2.928   3.707  14.201 -0.2220  0.2201  0.6265
 9016TIP3    H148539   2.953   3.788  14.246 -0.4510  0.8522 -0.3472
 9016TIP3    H248540   3.006   3.683  14.150 -0.6811  0.7327 -0.3447
 9017TIP3   OH248541   3.805   4.971  12.281  0.1627 -0.6761 -0.2647
 9017TIP3    H148542   3.871   4.936  12.341  0.3912  0.0941 -0.0545
 9017TIP3    H248543   3.761   5.040  12.331 -1.1732 -1.5233 -0.2192
 9018TIP3   OH248544   4.746   2.069  11.807  0.6894  0.4075 -0.3515
 9018TIP3    H148545   4.802   2.010  11.857 -0.4481 -1.2053 -0.8891
 9018TIP3    H248546   4.657   2.043  11.831  0.1526  0.9230 -1.7016
 9019TIP3   OH248547   6.132   1.057   2.445  0.3832 -0.5790  0.2044
 9019TIP3    H148548   6.112   1.057   2.351  0.7174 -3.7106  0.0250
 9019TIP3    H248549   6.072   1.122   2.482  1.2416  1.8545 -2.2635
 9020TIP3   OH248550   5.918   6.095   0.694 -0.3916  0.1582  0.6268
 9020TIP3    H148551   5.966   6.062   0.770 -3.8965 -1.7043  2.2889
 9020TIP3    H248552   5.954   6.047   0.620 -0.4513 -2.0844  1.9721
 9021TIP3   OH248553   2.751   1.010   3.731 -0.4652  0.4276  0.1834
 9021TIP3    H148554   2.764   0.921   3.763 -0.2602  0.5876  0.5431
 9021TIP3    H248555   2.695   1.052   3.797 -0.1418  0.7217  0.2719
 9022TIP3   OH248556   5.623   1.212   2.500 -0.3431  0.2471 -0.1247
 9022TIP3    H148557   5.555   1.155   2.467  1.0062 -2.0864  0.8688
 9022TIP3    H248558   5.596   1.233   2.589  0.8524 -1.9830  0.8546
 9023TIP3   OH248559   0.397   6.225   4.407 -0.5723  0.4169 -0.1033
 9023TIP3    H148560   0.323   6.280   4.381 -1.0751  1.5596  3.1912
 9023TIP3    H248561   0.471   6.285   4.412 -0.2638  0.0271  0.0497
 9024TIP3   OH248562   4.152   4.081  13.700 -0.3070 -0.0027  0.2910
 9024TIP3    H148563   4.174   3.998  13.743 -1.0840  0.7335  2.2447
 9024TIP3    H248564   4.183   4.149  13.760  0.7723  1.1682 -1.5065
 9025TIP3   OH248565   0.835   0.412   2.493  0.2280 -0.4102 -0.2861
 9025TIP3    H148566   0.797   0.370   2.570  1.4604 -1.2858 -0.1185
 9025TIP3    H248567   0.762   0.422   2.432 -0.3475 -1.6806  0.1612
 9026TIP3   OH248568   4.788   5.362   4.697 -0.2398  0.1511  0.0906
 9026TIP3    H148569   4.696   5.382   4.713 -0.6304 -2.0583  0.9969
 9026TIP3    H248570   4.836   5.429   4.746 -1.3734  0.5272  0.7336
 9027TIP3   OH248571   4.286   1.810   1.997 -0.1624  0.3968  0.7263
 9027TIP3    H148572   4.363   1.776   1.950  0.0558  0.0908  1.2963
 9027TIP3    H248573   4.213   1.759   1.962 -0.0567  0.4286  0.4524
 9028TIP3   OH248574   4.583   6.752  11.532 -0.0233 -0.4127  0.0342
 9028TIP3    H148575   4.673   6.785  11.528 -0.1375  0.2384  1.6910
 9028TIP3    H248576   4.592   6.657  11.526  0.7483 -0.3390 -0.0993
 9029TIP3   OH248577   5.308   2.467   4.474  0.8507  0.6770 -0.3942
 9029TIP3    H148578   5.226   2.471   4.522  0.0114  1.8194 -1.8428
 9029TIP3    H248579   5.294   2.403   4.405  0.2978  2.5085 -2.0806
 9030TIP3   OH248580   0.432   1.444  10.318  0.1829  0.2990 -0.3437
 9030TIP3    H148581   0.354   1.433  10.372 -0.0392 -0.1845 -0.7507
 9030TIP3    H248582   0.494   1.491  10.374 -0.8989  1.9858 -0.4912
 9031TIP3   OH248583   0.970   6.459  11.514 -0.7005 -0.1230  0.0465
 9031TIP3    H148584   0.919   6.484  11.591 -1.5936 -1.3123 -0.1409
 9031TIP3    H248585   1.061   6.466  11.543 -1.0200 -0.8211  1.3100
 9032TIP3   OH248586   6.805   4.130  16.953 -0.5207  0.2419 -0.0187
 9032TIP3    H148587   6.877   4.157  17.011  0.5208 -3.2941  0.5970
 9032TIP3    H248588   6.849   4.110  16.870 -1.0664 -0.2101 -0.2003
 9033TIP3   OH248589   2.403   0.560   1.159  0.6751 -0.0614  0.3092
 9033TIP3    H148590   2.455   0.595   1.087 -0.7773 -0.4646 -1.0013
 9033TIP3    H248591   2.425   0.467   1.162  0.7968 -0.0288  0.4495
 9034TIP3   OH248592   3.653   5.026  11.756 -0.4634  0.0367 -0.4922
 9034TIP3    H148593   3.662   5.026  11.852 -3.5268 -0.4463 -0.0934
 9034TIP3    H248594   3.741   5.009  11.724  0.6152 -0.1626  2.2466
 9035TIP3   OH248595   1.025   5.965  12.943  0.3183  0.0687 -0.5578
 9035TIP3    H148596   1.020   6.060  12.948 -0.4063  0.0683 -1.0766
 9035TIP3    H248597   0.978   5.943  12.863  2.7541 -0.5537 -1.9228
 9036TIP3   OH248598   3.528   1.012   2.776 -0.4317  0.3500 -0.2203
 9036TIP3    H148599   3.546   0.935   2.722 -1.2607  1.3679 -2.0238
 9036TIP3    H248600   3.614   1.042   2.805 -0.1267 -1.5059  0.9432
 9037TIP3   OH248601   0.538   6.019   0.323  0.2015  0.1386  0.4539
 9037TIP3    H148602   0.466   6.077   0.349  0.3435  0.5323 -0.0215
 9037TIP3    H248603   0.600   6.076   0.278  0.6434 -0.2667  0.5347
 9038TIP3   OH248604   0.714   0.346  15.269 -0.1799 -0.7341 -0.2956
 9038TIP3    H148605   0.804   0.329  15.240  0.3890  0.7533  0.4457
 9038TIP3    H248606   0.699   0.438  15.245 -0.2350  0.1009  2.5341
 9039TIP3   OH248607   3.723   4.762  16.885  0.4489 -0.4892  0.1071
 9039TIP3    H148608   3.674   4.699  16.938 -1.1486  1.5041  1.1313
 9039TIP3    H248609   3.665   4.781  16.811  0.3719  0.6387  0.4407
 9040TIP3   OH248610   2.670   2.473  15.996  0.1232 -0.7097  0.2565
 9040TIP3    H148611   2.705   2.486  15.908  0.4222  1.3399  0.6272
 9040TIP3    H248612   2.585   2.517  15.996  1.3168  1.8436  1.6889
 9041TIP3   OH248613   6.571   0.762   5.189 -0.1908 -0.0959 -0.2640
 9041TIP3    H148614   6.631   0.755   5.115  0.7578 -2.1357  0.6008
 9041TIP3    H248615   6.484   0.755   5.150  0.1094  2.0909 -1.4574
 9042TIP3   OH248616   0.256   4.114   1.247  0.1622  0.1495  0.4138
 9042TIP3    H148617   0.287   4.034   1.205 -0.3909  0.8099 -1.3622
 9042TIP3    H248618   0.321   4.180   1.222  0.6817  0.2680  1.9588
 9043TIP3   OH248619   4.110   0.639  14.908  0.4006 -0.6632  0.3559
 9043TIP3    H148620   4.114   0.558  14.857 -1.6963 -0.2192 -0.6124
 9043TIP3    H248621   4.123   0.709  14.844  0.5495 -0.1766  0.9070
 9044TIP3   OH248622   1.449   5.626   5.464  0.0754 -0.2133 -0.1540
 9044TIP3    H148623   1.420   5.717   5.465 -0.4240 -0.3716 -0.0395
 9044TIP3    H248624   1.526   5.625   5.520 -0.4256 -0.0231  0.5574
 9045TIP3   OH248625   1.100   5.367  14.544 -0.2328  0.3078  0.5975
 9045TIP3    H148626   1.120   5.286  14.497  0.6804  0.6483  0.3898
 9045TIP3    H248627   1.179   5.388  14.593 -0.4904  1.0158  0.7326
 9046TIP3   OH248628   3.272   0.413  16.148 -0.3374  0.0113  0.3868
 9046TIP3    H148629   3.319   0.343  16.193  0.5748  0.8421  0.7488
 9046TIP3    H248630   3.180   0.386  16.153 -0.1639 -0.4248  1.8757
 9047TIP3   OH248631   5.371   1.489   2.360 -0.0906  0.3408  0.2147
 9047TIP3    H148632   5.322   1.534   2.292  0.6261  1.3126  0.3275
 9047TIP3    H248633   5.304   1.457   2.420 -0.8132 -1.3171 -1.3605
 9048TIP3   OH248634   5.774   5.232   6.479  0.2051  0.4084  0.1861
 9048TIP3    H148635   5.746   5.148   6.443  1.6381 -1.2098  2.5557
 9048TIP3    H248636   5.870   5.226   6.482  0.3048  1.9328  0.8409
 9049TIP3   OH248637   3.329   1.163  10.704  0.6323  0.2083 -0.0266
 9049TIP3    H148638   3.389   1.196  10.637  0.2009  0.6598 -0.1943
 9049TIP3    H248639   3.272   1.237  10.724  1.1688  0.2839  1.3233
 9050TIP3   OH248640   5.634   1.311  11.760 -0.0526 -0.2043 -0.7640
 9050TIP3    H148641   5.653   1.401  11.735 -2.1487  0.0544 -1.6278
 9050TIP3    H248642   5.598   1.271  11.681 -1.2732 -1.1075  0.2017
 9051TIP3   OH248643   4.017   4.483   5.470  0.5106 -0.5425 -0.7536
 9051TIP3    H148644   3.946   4.431   5.508 -0.7306 -0.4254 -2.7502
 9051TIP3    H248645   4.033   4.552   5.534 -0.7801 -0.9135  0.0096
 9052TIP3   OH248646   6.653   3.205   3.792  0.1777  0.2288 -0.3951
 9052TIP3    H148647   6.686   3.292   3.770 -1.0510  0.9920  0.6359
 9052TIP3    H248648   6.626   3.168   3.708  0.1284  1.0977 -0.7781
 9053TIP3   OH248649   5.725   6.070   0.193  0.5673  0.4957 -0.4512
 9053TIP3    H148650   5.808   6.037   0.227  0.9538  1.9703  0.1046
 9053TIP3    H248651   5.717   6.159   0.229 -1.0286  0.5569 -0.8643
 9054TIP3   OH248652   3.529   1.632   4.717 -0.1659  0.1538 -0.1790
 9054TIP3    H148653   3.506   1.665   4.630  0.8051  0.1098 -0.4633
 9054TIP3    H248654   3.606   1.578   4.703 -1.2909 -1.6955  0.3946
 9055TIP3   OH248655   3.561   1.700  14.276  0.1680  0.4263  0.2156
 9055TIP3    H148656   3.501   1.670  14.207 -0.2322  0.2535  0.6340
 9055TIP3    H248657   3.565   1.795  14.263  0.3884  0.3560 -0.2742
 9056TIP3   OH248658   3.506   4.848  16.115  0.0230 -0.0098 -0.2151
 9056TIP3    H148659   3.491   4.754  16.124 -2.7491  0.4662  1.2658
 9056TIP3    H248660   3.562   4.871  16.189  0.8719 -0.4894 -0.6971
 9057TIP3   OH248661   6.541   1.136   4.165  0.0519  0.0114 -0.6591
 9057TIP3    H148662   6.541   1.144   4.260 -1.6642 -0.3098 -0.6042
 9057TIP3    H248663   6.487   1.060   4.147  0.0586  0.2879 -1.9139
 9058TIP3   OH248664   2.894   3.254  12.387  0.0293 -0.3166  0.3864
 9058TIP3    H148665   2.936   3.206  12.315  0.2281  0.2407  0.1248
 9058TIP3    H248666   2.813   3.288  12.350 -0.8064 -1.5818  0.9560
 9059TIP3   OH248667   5.124   2.132  11.093  0.4111 -0.0234 -0.3180
 9059TIP3    H148668   5.138   2.180  11.174 -0.6969 -1.9088  1.0577
 9059TIP3    H248669   5.195   2.068  11.091  0.4125 -0.0102 -0.8232
 9060TIP3   OH248670   5.757   0.931   3.685 -0.3225 -0.0313  0.0739
 9060TIP3    H148671   5.751   0.958   3.776 -2.6074  0.0489 -0.0374
 9060TIP3    H248672   5.849   0.910   3.672  0.2741  1.1059  2.0502
 9061TIP3   OH248673   1.916   1.094   5.234  0.3445  0.3396 -0.5952
 9061TIP3    H148674   1.964   1.176   5.243  1.8304 -0.6147  0.7299
 9061TIP3    H248675   1.876   1.080   5.321 -2.8404  1.3149 -1.7386
 9062TIP3   OH248676   2.295   4.546  15.198 -0.1842 -0.0630 -0.2194
 9062TIP3    H148677   2.343   4.464  15.206  1.8384  1.0444 -0.1424
 9062TIP3    H248678   2.290   4.579  15.288  0.3376  0.5792 -0.4173
 9063TIP3   OH248679   3.074   1.248   2.772  0.0826 -0.4657  0.5073
 9063TIP3    H148680   3.096   1.305   2.698  0.1274  0.2087  1.0358
 9063TIP3    H248681   3.001   1.194   2.740 -1.3182  1.2605  0.6315
 9064TIP3   OH248682   1.286   2.405  14.745 -0.4881  0.2273 -0.6780
 9064TIP3    H148683   1.292   2.360  14.661 -0.8230  1.3866 -1.3380
 9064TIP3    H248684   1.297   2.497  14.724 -1.1669  0.5902  0.4698
 9065TIP3   OH248685   2.702   2.074   2.359  0.2683 -0.1779  0.2580
 9065TIP3    H148686   2.685   2.018   2.435  0.3539  0.7152  0.9447
 9065TIP3    H248687   2.788   2.113   2.377 -0.3930  1.2292  0.4449
 9066TIP3   OH248688   5.059   2.050  16.266 -0.5065  0.7312 -0.0141
 9066TIP3    H148689   5.115   1.989  16.314  0.8890  0.7607 -1.5235
 9066TIP3    H248690   4.977   2.001  16.254  1.0941 -1.6048 -2.5698
 9067TIP3   OH248691   0.008   5.453  11.749  0.2594 -0.1440  0.0132
 9067TIP3    H148692   0.008   5.500  11.832 -0.5037 -1.5033  0.8261
 9067TIP3    H248693  -0.054   5.501  11.694 -0.2155  0.0209  0.6856
 9068TIP3   OH248694   4.418   5.673  14.665  0.1329 -0.2910 -0.0161
 9068TIP3    H148695   4.438   5.727  14.589  0.0438 -0.0796  0.1080
 9068TIP3    H248696   4.400   5.737  14.735 -2.9753 -0.3702 -0.5965
 9069TIP3   OH248697   1.610   2.357   2.756 -0.3159 -0.2263 -0.7513
 9069TIP3    H148698   1.555   2.279   2.765 -0.8851  0.3675  1.4983
 9069TIP3    H248699   1.658   2.363   2.839  0.2090  1.4502 -1.1260
 9070TIP3   OH248700   0.123   2.689  14.798  0.0867 -0.6189  0.1523
 9070TIP3    H148701   0.147   2.778  14.827  3.2921 -1.5633  0.8045
 9070TIP3    H248702   0.100   2.643  14.879  0.5983 -0.9457  0.1185
 9071TIP3   OH248703   1.970   4.749  11.938  0.0523  0.5896 -0.7434
 9071TIP3    H148704   2.008   4.713  12.017  0.1403  0.3781 -0.8802
 9071TIP3    H248705   1.888   4.789  11.966 -1.1255 -1.5876 -0.9034
 9072TIP3   OH248706   0.626   0.982  15.086  0.9328 -0.1254  0.5003
 9072TIP3    H148707   0.559   0.946  15.144  1.3735  3.0687  3.2760
 9072TIP3    H248708   0.577   1.010  15.008 -0.2246 -1.5567  0.6582
 9073TIP3   OH248709   4.379   3.139   4.362 -0.4966  0.0369  0.0214
 9073TIP3    H148710   4.322   3.073   4.324  2.5896 -2.2934 -0.9912
 9073TIP3    H248711   4.370   3.127   4.457 -1.1444 -0.8084 -0.1370
 9074TIP3   OH248712   4.804   6.073  12.148  0.2331 -0.3167  0.5524
 9074TIP3    H148713   4.724   6.124  12.161 -0.8029 -2.0158  1.2025
 9074TIP3    H248714   4.824   6.081  12.055 -0.6318  0.2369  0.4058
 9075TIP3   OH248715   3.665   2.510  12.168 -0.0092 -0.4984 -0.4574
 9075TIP3    H148716   3.685   2.463  12.249 -0.3928 -0.8661 -0.5739
 9075TIP3    H248717   3.702   2.597  12.182 -1.3245 -0.0830  0.6935
 9076TIP3   OH248718   4.832   0.170  16.702  0.2920  0.1755  0.7605
 9076TIP3    H148719   4.894   0.242  16.708  2.4691 -1.5409  0.2379
 9076TIP3    H248720   4.886   0.091  16.703 -1.9140 -1.4568  0.5310
 9077TIP3   OH248721   4.875   5.269   5.453  0.0811 -0.1624  0.2343
 9077TIP3    H148722   4.941   5.321   5.500 -0.7628 -0.4818  1.8363
 9077TIP3    H248723   4.805   5.332   5.434 -0.2825 -0.3741  0.8482
 9078TIP3   OH248724   4.388   2.967  11.451  0.2117 -0.4368  0.4239
 9078TIP3    H148725   4.332   2.948  11.375 -1.2144 -1.4306  1.6614
 9078TIP3    H248726   4.465   3.009  11.413 -1.1861  0.6797 -1.4111
 9079TIP3   OH248727   0.878   6.118  13.446 -0.3861 -0.3505 -0.1021
 9079TIP3    H148728   0.930   6.077  13.515 -0.6008 -0.9184 -0.2720
 9079TIP3    H248729   0.788   6.113  13.478 -0.3206  0.8817  0.3159
 9080TIP3   OH248730   2.725   1.702   0.302  0.4894 -0.3554  0.2431
 9080TIP3    H148731   2.739   1.650   0.381  0.2406 -1.7199 -0.5824
 9080TIP3    H248732   2.684   1.783   0.333  0.3306 -0.8973  1.4938
 9081TIP3   OH248733   3.536   2.392  16.692 -0.2448  0.4468 -0.5890
 9081TIP3    H148734   3.589   2.472  16.696  0.6137 -0.0389 -1.7415
 9081TIP3    H248735   3.458   2.418  16.643  0.9903  0.1296 -2.8835
 9082TIP3   OH248736   4.244   5.788   6.102  0.1424  0.1457  0.0808
 9082TIP3    H148737   4.272   5.851   6.169  0.4791 -0.6153  0.6650
 9082TIP3    H248738   4.269   5.703   6.137 -0.3566 -0.3244 -0.6843
 9083TIP3   OH248739   3.908   2.733   4.807  0.4137  0.2518 -0.1048
 9083TIP3    H148740   4.003   2.737   4.801  0.4835  0.1147  0.7180
 9083TIP3    H248741   3.887   2.782   4.887 -0.1597 -0.2213  0.0411
 9084TIP3   OH248742   5.932   4.504   4.383 -0.4091  0.3853 -0.1208
 9084TIP3    H148743   6.011   4.465   4.346  0.1219  0.3877  0.9623
 9084TIP3    H248744   5.909   4.574   4.322  1.1965  1.2582  0.2006
 9085TIP3   OH248745   3.654   2.798   6.137  0.0525 -0.4189 -0.3043
 9085TIP3    H148746   3.704   2.871   6.100 -0.9486  0.5482  0.1642
 9085TIP3    H248747   3.668   2.805   6.231 -1.5253  0.3736 -0.0760
 9086TIP3   OH248748   0.339   5.520  15.913 -0.2280 -0.0591  0.4291
 9086TIP3    H148749   0.367   5.611  15.922 -0.3302 -0.0299  0.4479
 9086TIP3    H248750   0.406   5.480  15.857 -1.0989  0.4692 -1.0736
 9087TIP3   OH248751   2.732   2.732   2.543  0.1300  0.1535 -0.2598
 9087TIP3    H148752   2.698   2.817   2.515 -0.5475  0.3253  0.9676
 9087TIP3    H248753   2.792   2.753   2.615  1.2101 -0.3056 -1.0074
 9088TIP3   OH248754   5.260   5.115   6.231  0.1620 -0.2688  0.1807
 9088TIP3    H148755   5.325   5.174   6.268  0.4534  1.0627 -2.2373
 9088TIP3    H248756   5.214   5.078   6.307  0.8058  2.1169  1.8249
 9089TIP3   OH248757   2.212   6.483   4.478 -0.3817  0.0106  0.0146
 9089TIP3    H148758   2.265   6.561   4.459 -1.6373  1.5930  2.5223
 9089TIP3    H248759   2.163   6.467   4.398  0.1309  1.6201 -0.6592
 9090TIP3   OH248760   5.146   5.903   4.197 -0.7088  0.4525 -0.3144
 9090TIP3    H148761   5.069   5.945   4.236 -0.5848 -0.2407  0.7467
 9090TIP3    H248762   5.207   5.975   4.181 -0.0173  0.6342  2.5935
 9091TIP3   OH248763   3.675   2.835  13.527 -0.0176  0.1564 -0.0801
 9091TIP3    H148764   3.709   2.754  13.564  0.6125  0.7062  0.5586
 9091TIP3    H248765   3.616   2.870  13.594 -1.6573 -0.6123 -1.0321
 9092TIP3   OH248766   2.956   1.234   1.319  0.2944  0.0270  0.3467
 9092TIP3    H148767   2.897   1.210   1.391 -1.5989  1.3551 -0.6649
 9092TIP3    H248768   3.015   1.299   1.358  0.4036 -0.5085  1.1072
 9093TIP3   OH248769   3.051   3.744   3.923  0.0947 -0.5749  0.7558
 9093TIP3    H148770   3.017   3.659   3.893 -0.7765 -0.3199  0.9808
 9093TIP3    H248771   2.973   3.793   3.949  0.7131 -0.2826  2.1600
 9094TIP3   OH248772   5.385   6.579  12.470 -0.5040 -0.4458  0.3193
 9094TIP3    H148773   5.435   6.659  12.456 -0.0479 -0.6984  0.5075
 9094TIP3    H248774   5.431   6.533  12.540  0.5092 -1.8978 -1.2008
 9095TIP3   OH248775   0.252   2.813   0.547  0.3462 -0.0823 -0.1876
 9095TIP3    H148776   0.191   2.863   0.601  1.3148  0.0691  0.8021
 9095TIP3    H248777   0.199   2.741   0.511 -0.4645  0.1742  0.4578
 9096TIP3   OH248778   1.217   4.224   1.628  0.5095 -0.4105  0.2028
 9096TIP3    H148779   1.242   4.275   1.551 -0.9017 -0.6918 -0.4794
 9096TIP3    H248780   1.125   4.247   1.642  0.7748 -0.2711  1.8989
 9097TIP3   OH248781   0.202   3.282  16.106  0.2734 -0.1593  0.3860
 9097TIP3    H148782   0.226   3.324  16.023  0.2562  1.4797  1.1602
 9097TIP3    H248783   0.128   3.226  16.084 -0.5526  1.2213 -0.4851
 9098TIP3   OH248784   1.563   0.736  13.257  0.1193 -0.2757 -0.2165
 9098TIP3    H148785   1.535   0.645  13.247  1.2143 -0.6668  0.0348
 9098TIP3    H248786   1.633   0.746  13.193  2.0014 -0.5270  1.6728
 9099TIP3   OH248787   0.016   4.905  13.363 -0.1956 -0.9465 -0.3476
 9099TIP3    H148788  -0.052   4.843  13.388 -0.1552 -0.7803  0.1829
 9099TIP3    H248789  -0.032   4.978  13.323 -0.3505 -0.7403  0.2060
 9100TIP3   OH248790   2.353   1.751   0.354 -0.3427 -0.3900 -0.4170
 9100TIP3    H148791   2.389   1.672   0.394 -0.0554 -0.4628 -0.8059
 9100TIP3    H248792   2.424   1.815   0.360 -0.9914  0.2320  1.0047
 9101TIP3   OH248793   4.102   1.216  11.575 -0.4374 -0.2033 -0.2235
 9101TIP3    H148794   4.015   1.182  11.597 -0.4063 -1.8898 -2.3778
 9101TIP3    H248795   4.116   1.187  11.485  1.9125  1.0139 -0.3067
 9102TIP3   OH248796   1.118   0.257  17.011 -0.2498 -0.0856 -0.8384
 9102TIP3    H148797   1.112   0.182  16.951  1.2451 -0.0396 -1.0890
 9102TIP3    H248798   1.193   0.237  17.067 -2.0261 -0.4601  1.5659
 9103TIP3   OH248799   4.325   1.240   3.538  0.4812  0.6062  0.1996
 9103TIP3    H148800   4.271   1.302   3.588  0.1652  0.0444  0.5556
 9103TIP3    H248801   4.409   1.238   3.584  1.0839  2.0144 -0.7496
 9104TIP3   OH248802   6.798   6.135  11.384 -0.1003 -0.4495  0.4966
 9104TIP3    H148803   6.889   6.154  11.361 -0.4216  0.3733 -0.1689
 9104TIP3    H248804   6.748   6.165  11.308 -1.1383  1.5698  1.8677
 9105TIP3   OH248805   0.002   6.201  13.332 -0.0754 -0.1937  0.0134
 9105TIP3    H148806   0.006   6.116  13.375 -0.1723 -0.0427  0.3207
 9105TIP3    H248807   0.076   6.200  13.270  0.4782 -0.1547  0.6582
 9106TIP3   OH248808   2.429   3.762   1.643  0.9420  0.2929 -0.0948
 9106TIP3    H148809   2.404   3.808   1.563  1.4147  1.3058  0.3238
 9106TIP3    H248810   2.525   3.763   1.642  0.9606  0.9315  0.8136
 9107TIP3   OH248811   2.065   1.299  15.278  0.1363 -0.1492  0.3105
 9107TIP3    H148812   1.988   1.306  15.220  1.0073  0.2556 -0.8390
 9107TIP3    H248813   2.042   1.231  15.340 -0.2223 -1.8073 -1.5376
 9108TIP3   OH248814   5.210   5.943  16.220 -0.5414 -0.7337 -0.1649
 9108TIP3    H148815   5.125   5.942  16.177 -2.2427  0.6750  2.8623
 9108TIP3    H248816   5.191   5.925  16.312  2.5108 -0.8871  0.5447
 9109TIP3   OH248817   0.236   0.064  11.801  0.6743 -0.1486 -0.8264
 9109TIP3    H148818   0.213   0.043  11.711 -2.6554 -0.2251 -0.0943
 9109TIP3    H248819   0.238  -0.021  11.846 -4.2243  0.0148  0.3350
 9110TIP3   OH248820   1.753   5.478  10.820  0.1342  0.0294  0.1870
 9110TIP3    H148821   1.842   5.512  10.816  0.3990 -0.6933 -0.3581
 9110TIP3    H248822   1.700   5.546  10.777  0.3849  0.5611  0.7097
 9111TIP3   OH248823   2.115   4.440   5.064  0.9522 -0.4625 -0.3871
 9111TIP3    H148824   2.202   4.459   5.027  0.6590  0.7626 -0.4893
 9111TIP3    H248825   2.055   4.458   4.992  0.4973  0.3184  0.1750
 9112TIP3   OH248826   0.622   0.853   2.307 -0.2354 -0.6397 -0.1902
 9112TIP3    H148827   0.640   0.897   2.224 -0.1848 -2.5857 -1.2856
 9112TIP3    H248828   0.703   0.863   2.358  0.6866 -1.5676 -1.4199
 9113TIP3   OH248829   4.330   1.178   3.963  0.1081  0.4934  0.3130
 9113TIP3    H148830   4.277   1.257   3.964  0.8994  1.0572 -0.2963
 9113TIP3    H248831   4.307   1.131   4.044 -0.1392  1.5055  0.8391
 9114TIP3   OH248832   5.280   3.562  12.976  0.3729 -0.4632 -0.2163
 9114TIP3    H148833   5.295   3.641  12.924 -1.0849 -1.0882 -1.6663
 9114TIP3    H248834   5.366   3.538  13.009  1.2630  0.2392 -1.9310
 9115TIP3   OH248835   0.253   6.835   1.231 -0.2353  0.1708  0.0669
 9115TIP3    H148836   0.308   6.826   1.310 -1.8593 -0.4622  1.1752
 9115TIP3    H248837   0.214   6.922   1.239  0.7059  0.6864 -0.8056
 9116TIP3   OH248838   1.242   6.599  14.984  0.8046 -0.2112 -0.1264
 9116TIP3    H148839   1.279   6.665  14.926  1.0019 -0.4852 -0.3165
 9116TIP3    H248840   1.318   6.559  15.027  0.6286  0.3463  0.7176
 9117TIP3   OH248841   6.607   1.643   2.147  0.0382 -0.0848 -0.2694
 9117TIP3    H148842   6.647   1.638   2.060  1.6411 -1.5217  0.4766
 9117TIP3    H248843   6.620   1.733   2.175  1.7818 -0.2038 -0.5582
 9118TIP3   OH248844   5.734   5.273   6.177 -0.3767  0.0655  0.6966
 9118TIP3    H148845   5.792   5.341   6.212 -0.7150  0.5267  0.3668
 9118TIP3    H248846   5.769   5.191   6.213 -0.0619  0.4275  1.2219
 9119TIP3   OH248847   4.818   2.986   3.619 -0.0025 -0.3595  0.1207
 9119TIP3    H148848   4.870   3.054   3.577 -1.8004  0.3810 -1.0443
 9119TIP3    H248849   4.729   2.998   3.583 -0.4352 -3.1936 -0.0360
 9120TIP3   OH248850   3.418   0.738   4.543 -0.2337  0.7974 -0.2089
 9120TIP3    H148851   3.356   0.772   4.608  1.5319  3.0108  0.4537
 9120TIP3    H248852   3.465   0.815   4.511  1.2818 -0.6229 -1.6455
 9121TIP3   OH248853   5.369   0.018   4.707 -0.4840 -0.5696 -0.6016
 9121TIP3    H148854   5.434  -0.014   4.769  2.3622  3.9493 -0.8799
 9121TIP3    H248855   5.288   0.022   4.758  0.7594 -0.9382  1.5293
 9122TIP3   OH248856   3.017   2.996  13.138 -0.5277  0.3923  0.1424
 9122TIP3    H148857   2.994   3.088  13.123 -0.6657  0.2759 -0.4073
 9122TIP3    H248858   2.953   2.947  13.087  0.9129  0.0668 -1.5016
 9123TIP3   OH248859   6.754   3.637  12.848 -0.0879  0.3006  0.1568
 9123TIP3    H148860   6.836   3.686  12.854  0.4204 -0.4542 -0.4957
 9123TIP3    H248861   6.722   3.654  12.760  0.6535 -1.3780 -0.4798
 9124TIP3   OH248862   4.333   1.414  16.355 -0.0907 -0.2661 -0.3008
 9124TIP3    H148863   4.374   1.385  16.436  0.5876  1.1714 -0.0850
 9124TIP3    H248864   4.239   1.407  16.371 -0.0691  2.1997  1.5681
 9125TIP3   OH248865   2.798   4.986  13.007 -0.4787  0.7509 -0.9500
 9125TIP3    H148866   2.856   4.967  12.933 -0.4133 -0.4122 -0.6199
 9125TIP3    H248867   2.818   4.918  13.071 -0.9539  1.3946 -0.0943
 9126TIP3   OH248868   1.763   1.887  11.461  0.1027  0.0327 -0.1470
 9126TIP3    H148869   1.761   1.971  11.417 -1.5736  2.2668  3.7165
 9126TIP3    H248870   1.854   1.876  11.489  0.1863  0.9456 -0.0525
 9127TIP3   OH248871   5.692   6.043  12.309 -0.1591 -0.0381 -0.4971
 9127TIP3    H148872   5.781   6.080  12.316  0.3082 -1.4349  2.7751
 9127TIP3    H248873   5.704   5.963  12.259  0.8912 -1.1492  1.3746
 9128TIP3   OH248874   4.165   4.114  15.462  0.2654 -0.1374 -0.0470
 9128TIP3    H148875   4.259   4.101  15.474  0.6808  0.7954 -2.0121
 9128TIP3    H248876   4.150   4.099  15.369 -1.2904  1.1264 -0.0438
 9129TIP3   OH248877   6.081   5.880   2.084  0.3327 -0.0695  0.3009
 9129TIP3    H148878   6.111   5.844   2.001  1.5843 -0.0214  0.6999
 9129TIP3    H248879   5.990   5.905   2.069  0.8524  0.9698 -1.3929
 9130TIP3   OH248880   3.828   6.397   3.393 -0.4357  0.3643 -0.1161
 9130TIP3    H148881   3.766   6.443   3.336 -0.1640 -0.3388 -0.9945
 9130TIP3    H248882   3.880   6.343   3.334  0.4851  0.3232  0.6993
 9131TIP3   OH248883   2.579   3.934  15.265 -0.0349 -0.3407 -0.2638
 9131TIP3    H148884   2.490   3.965  15.285 -0.7583 -2.9754  0.9622
 9131TIP3    H248885   2.620   4.009  15.220 -2.9530  0.8465 -1.2296
 9132TIP3   OH248886   6.777   2.141  16.686 -0.7190 -0.3185 -0.7714
 9132TIP3    H148887   6.794   2.213  16.746  1.5519  1.3216 -3.1548
 9132TIP3    H248888   6.699   2.098  16.721 -2.1382  3.2039  0.8649
 9133TIP3   OH248889   0.241   0.957   4.142 -0.0961  0.1044 -0.0113
 9133TIP3    H148890   0.322   0.918   4.110  0.7188  1.9978 -0.3968
 9133TIP3    H248891   0.269   1.020   4.208 -1.2877  0.4884  0.1535
 9134TIP3   OH248892   3.056   1.515   5.504  0.3263  0.0328 -0.2569
 9134TIP3    H148893   3.084   1.602   5.533 -0.4411  0.3519 -0.4523
 9134TIP3    H248894   2.997   1.484   5.574  1.7816 -0.9941  0.5723
 9135TIP3   OH248895   3.561   6.828   6.082 -0.5876  0.0458  0.3013
 9135TIP3    H148896   3.535   6.736   6.071 -1.2032  0.1418  0.9251
 9135TIP3    H248897   3.656   6.827   6.068 -0.6920 -0.5564 -0.4908
 9136TIP3   OH248898   5.033   5.057  11.583  0.4900  0.1228  0.1244
 9136TIP3    H148899   4.995   4.972  11.606 -1.7648  0.9937 -0.1428
 9136TIP3    H248900   4.992   5.079  11.499  0.9730  1.5109  0.2417
 9137TIP3   OH248901   1.351   2.940  10.923 -0.0764 -0.3676 -0.1350
 9137TIP3    H148902   1.390   3.011  10.873  1.0508 -0.9181 -0.0617
 9137TIP3    H248903   1.296   2.893  10.860 -1.1347  0.7677 -0.0947
 9138TIP3   OH248904   6.101   1.507  13.286 -0.4824 -0.5935  0.5609
 9138TIP3    H148905   6.152   1.541  13.358 -1.3712 -0.9841  1.3997
 9138TIP3    H248906   6.151   1.432  13.253  0.6963  0.5155 -0.2754
 9139TIP3   OH248907   2.821   0.798  11.274 -0.7507 -0.0164  0.2936
 9139TIP3    H148908   2.856   0.733  11.213  1.1020  0.1086  1.1499
 9139TIP3    H248909   2.733   0.818  11.241  0.5275  0.8146 -2.9142
 9140TIP3   OH248910   5.635   6.311  12.270 -0.7434 -0.2160  0.0132
 9140TIP3    H148911   5.642   6.216  12.275 -0.1946 -0.3329 -2.1579
 9140TIP3    H248912   5.558   6.327  12.215 -0.6721  0.6096  0.1309
 9141TIP3   OH248913   0.173   0.304  16.467 -0.3247 -0.3963 -0.2833
 9141TIP3    H148914   0.266   0.284  16.454 -0.2884 -1.1080  0.9606
 9141TIP3    H248915   0.136   0.224  16.504 -1.3960 -0.0471 -0.5690
 9142TIP3   OH248916   0.255   5.677   3.942  0.3580 -0.3118 -0.1425
 9142TIP3    H148917   0.330   5.734   3.959  1.0684 -1.7664  2.0338
 9142TIP3    H248918   0.184   5.714   3.994  0.0003  0.1089 -0.9010
 9143TIP3   OH248919   3.711   2.555   6.064  0.1236 -0.0769 -0.1287
 9143TIP3    H148920   3.767   2.515   6.131 -0.7169 -0.5021  0.3458
 9143TIP3    H248921   3.681   2.637   6.103 -2.1735 -1.3502  1.0208
 9144TIP3   OH248922   0.609   4.635   2.815 -0.5728 -0.1058  0.5275
 9144TIP3    H148923   0.587   4.715   2.768 -2.2434 -2.4904 -3.3194
 9144TIP3    H248924   0.531   4.614   2.866 -0.3859  0.3255  1.0014
 9145TIP3   OH248925   0.197   0.444  13.359 -0.4454  0.0323 -0.4945
 9145TIP3    H148926   0.167   0.530  13.330  0.7270  0.6384  0.0555
 9145TIP3    H248927   0.223   0.400  13.279 -2.4306 -0.3991 -0.9605
 9146TIP3   OH248928   6.732   4.150   4.382 -0.1432 -0.3222 -0.1581
 9146TIP3    H148929   6.778   4.233   4.380 -0.4065 -0.1872 -0.8286
 9146TIP3    H248930   6.701   4.142   4.472 -0.3358  0.4225 -0.1524
 9147TIP3   OH248931   1.689   4.506  16.876 -0.1515 -0.4630  0.2475
 9147TIP3    H148932   1.626   4.533  16.944 -0.3567 -2.7361  1.0436
 9147TIP3    H248933   1.690   4.579  16.815 -0.9346  1.1415  2.0243
 9148TIP3   OH248934   5.296   3.754   6.044  0.2323  0.9029  0.3497
 9148TIP3    H148935   5.202   3.733   6.046  0.4220  0.0127  0.3171
 9148TIP3    H248936   5.331   3.711   6.122  0.6475  1.0817  0.2620
 9149TIP3   OH248937   3.724   0.501   4.702  0.1663  0.0914  0.1765
 9149TIP3    H148938   3.712   0.513   4.608 -0.8960 -0.1558  0.2651
 9149TIP3    H248939   3.698   0.585   4.740 -1.9140 -0.6021  0.4072
 9150TIP3   OH248940   6.131   1.933  17.060 -0.0051  0.1410  0.3420
 9150TIP3    H148941   6.061   1.969  17.114 -0.9224 -0.5796 -0.3331
 9150TIP3    H248942   6.149   2.001  16.995 -1.2633 -0.2980 -0.5129
 9151TIP3   OH248943   3.438   4.408  10.912 -0.0297 -0.1108  0.0128
 9151TIP3    H148944   3.392   4.348  10.970 -1.5321  1.8629  1.0099
 9151TIP3    H248945   3.473   4.476  10.970 -0.5554  1.3026 -1.2429
 9152TIP3   OH248946   2.389   3.637  14.883 -0.1932  0.4826  0.5333
 9152TIP3    H148947   2.471   3.628  14.933  0.3697 -1.6132 -0.6468
 9152TIP3    H248948   2.327   3.580  14.928 -0.3189  0.2542  0.0708
 9153TIP3   OH248949   1.188   5.726  13.141 -0.2560  0.7735 -0.1481
 9153TIP3    H148950   1.107   5.734  13.091 -0.3353  0.3899 -0.0832
 9153TIP3    H248951   1.160   5.733  13.233 -0.0999  1.5809 -0.1492
 9154TIP3   OH248952   2.940   3.444  10.364  0.4908 -0.1670 -0.3233
 9154TIP3    H148953   3.018   3.394  10.389  1.6149  1.1438 -1.0049
 9154TIP3    H248954   2.880   3.379  10.329  2.7560 -0.9048 -3.3241
 9155TIP3   OH248955   2.479   1.859  16.568  0.4500  0.1811  0.0452
 9155TIP3    H148956   2.416   1.912  16.617 -0.5185 -0.2720 -0.6892
 9155TIP3    H248957   2.428   1.818  16.499  1.3278 -1.1187  0.1307
 9156TIP3   OH248958   6.097   4.895  15.235 -0.1288  0.5312  0.3075
 9156TIP3    H148959   6.051   4.978  15.242 -0.4958  0.2464  1.6393
 9156TIP3    H248960   6.031   4.834  15.203  0.6764  1.1306 -2.7935
 9157TIP3   OH248961   1.468   3.938   0.693  0.2069 -0.1223 -0.3547
 9157TIP3    H148962   1.438   3.977   0.611 -1.0900 -0.4669 -0.0548
 9157TIP3    H248963   1.444   3.846   0.686  0.1168 -0.1579  0.4023
 9158TIP3   OH248964   0.715   2.211  12.107  0.1212 -0.7663 -0.1207
 9158TIP3    H148965   0.786   2.275  12.101 -0.6609  0.0541 -0.8098
 9158TIP3    H248966   0.748   2.144  12.168  1.4239 -0.3392 -0.3392
 9159TIP3   OH248967   6.491   3.421   6.304 -0.1879  0.0154  0.0834
 9159TIP3    H148968   6.407   3.454   6.336 -0.2906 -0.1356 -0.0296
 9159TIP3    H248969   6.556   3.465   6.359 -0.4186 -1.3105  1.4681
 9160TIP3   OH248970   6.741   1.863  14.995 -0.9429 -0.2400 -0.2727
 9160TIP3    H148971   6.695   1.899  15.071  2.0790 -0.6227  1.9584
 9160TIP3    H248972   6.780   1.939  14.952 -1.1006 -0.1756 -0.3001
 9161TIP3   OH248973   1.737   2.424   4.238  0.0004  0.3698 -0.0938
 9161TIP3    H148974   1.725   2.432   4.332  0.7198  1.5782 -0.0856
 9161TIP3    H248975   1.771   2.336   4.225 -0.3511  0.1004  0.7440
 9162TIP3   OH248976   1.492   5.374   6.245  0.9265  0.8541 -0.2803
 9162TIP3    H148977   1.397   5.387   6.237  1.2342  2.3401 -2.0585
 9162TIP3    H248978   1.520   5.439   6.309  1.0814  2.4034 -1.8444
 9163TIP3   OH248979   1.312   2.929   0.098  0.1997 -0.1426  0.1416
 9163TIP3    H148980   1.405   2.953   0.094  0.0367  0.5128  0.2246
 9163TIP3    H248981   1.278   2.951   0.011  0.0515 -0.0828  0.2141
 9164TIP3   OH248982   5.746   0.731   2.237  0.2500 -0.3694 -0.5951
 9164TIP3    H148983   5.760   0.710   2.145 -0.0297 -1.6728 -0.3553
 9164TIP3    H248984   5.716   0.649   2.276  0.8359  0.0340  0.7570
 9165TIP3   OH248985   5.846   1.372   6.089 -0.3325  0.4900  0.9458
 9165TIP3    H148986   5.801   1.457   6.081 -0.3184  0.4883  0.8532
 9165TIP3    H248987   5.939   1.395   6.097 -0.0922  0.4159 -1.0588
 9166TIP3   OH248988   1.802   3.862   1.324 -0.3529  0.3952 -0.3990
 9166TIP3    H148989   1.831   3.914   1.399  0.4262 -0.6490  0.0528
 9166TIP3    H248990   1.728   3.911   1.288 -0.8160  0.8746  1.1114
 9167TIP3   OH248991   3.387   2.545   5.509 -0.1508  0.0534  0.3046
 9167TIP3    H148992   3.327   2.589   5.449  1.6407  1.4986 -0.5309
 9167TIP3    H248993   3.335   2.530   5.588 -1.0173  3.4366  0.5267
 9168TIP3   OH248994   3.005   6.083  12.539 -0.4183 -0.0481  0.0309
 9168TIP3    H148995   2.930   6.057  12.593 -0.4928  0.9710  0.4446
 9168TIP3    H248996   2.999   6.178  12.534  0.8067  0.0480  0.0116
 9169TIP3   OH248997   5.553   6.136   3.300  0.7174  0.2036  0.0740
 9169TIP3    H148998   5.620   6.203   3.288  1.2962 -0.5676 -1.1865
 9169TIP3    H248999   5.594   6.055   3.270 -1.2200 -0.0682 -2.1833
 9170TIP3   OH249000   6.347   1.220   2.388 -0.1667  0.2825  0.5618
 9170TIP3    H149001   6.287   1.150   2.416 -0.0188  0.4194  1.2569
 9170TIP3    H249002   6.300   1.267   2.319 -0.5177 -0.1248  0.5185
 9171TIP3   OH249003   2.525   3.196   4.371 -0.7764 -0.1028  0.1977
 9171TIP3    H149004   2.502   3.103   4.380 -2.6079  0.1396 -1.3774
 9171TIP3    H249005   2.547   3.224   4.459 -1.2146 -1.7797  0.8812
 9172TIP3   OH249006   5.964   6.825   6.617  0.0262 -0.3881  1.0331
 9172TIP3    H149007   6.015   6.757   6.661 -2.7901 -2.8573  0.7607
 9172TIP3    H249008   5.952   6.892   6.684  2.3141 -0.3573  1.5207
 9173TIP3   OH249009   4.338   5.042   4.954  0.6499 -0.0541  0.5627
 9173TIP3    H149010   4.408   5.084   4.904  0.4244 -1.4363 -0.9985
 9173TIP3    H249011   4.261   5.096   4.938  0.8519  0.2053  0.4591
 9174TIP3   OH249012   3.874   6.117  13.432 -0.4514 -0.5130 -0.4518
 9174TIP3    H149013   3.857   6.115  13.526 -0.6000 -1.5862 -0.4846
 9174TIP3    H249014   3.956   6.067  13.421 -0.3706 -0.2949 -0.8747
 9175TIP3   OH249015   4.004   2.680  14.644 -0.0772 -0.6039  0.1455
 9175TIP3    H149016   3.936   2.704  14.581 -0.5725  1.4844  1.4087
 9175TIP3    H249017   4.006   2.752  14.707  1.5035 -1.8644  1.6399
 9176TIP3   OH249018   2.026   4.226  14.567  0.1212 -0.1953 -0.3345
 9176TIP3    H149019   2.095   4.231  14.501 -0.2376  1.9826 -0.6127
 9176TIP3    H249020   2.004   4.133  14.572  3.3795 -1.0679  0.1168
 9177TIP3   OH249021   3.597   3.653  15.203  0.4136 -0.7690 -0.1523
 9177TIP3    H149022   3.561   3.615  15.123  2.4931 -0.9363 -1.0814
 9177TIP3    H249023   3.582   3.747  15.194 -1.2119 -0.9619  0.2799
 9178TIP3   OH249024   1.624   5.366  11.416 -0.1362 -0.1605 -0.9528
 9178TIP3    H149025   1.678   5.370  11.495 -1.1198 -0.0435 -0.2802
 9178TIP3    H249026   1.586   5.279  11.416  0.5603 -0.4841 -1.7886
 9179TIP3   OH249027   0.380   3.702  15.841 -0.0123  0.0840  0.2353
 9179TIP3    H149028   0.471   3.726  15.858 -0.2546  1.6329 -0.4968
 9179TIP3    H249029   0.335   3.786  15.829 -1.3757 -0.6869 -0.2278
 9180TIP3   OH249030   1.763   2.100  17.030  0.3111  0.1463  0.1508
 9180TIP3    H149031   1.757   2.070  16.939 -0.3899 -1.5406  0.7155
 9180TIP3    H249032   1.856   2.121  17.042  0.8880 -1.9352 -0.2938
 9181TIP3   OH249033   4.492   1.935   0.370 -0.2864 -0.1292 -0.6366
 9181TIP3    H149034   4.443   1.889   0.302  0.2708 -2.1398  0.2517
 9181TIP3    H249035   4.430   1.941   0.443 -0.1136 -0.1979 -0.4819
 9182TIP3   OH249036   6.543   1.277  16.785 -0.6841 -1.1931 -0.5476
 9182TIP3    H149037   6.538   1.242  16.874 -0.4596 -0.4221 -0.2271
 9182TIP3    H249038   6.586   1.362  16.795 -1.6781 -0.5819 -1.2469
 9183TIP3   OH249039   4.215   1.558  10.410  0.3093 -0.5134 -0.0281
 9183TIP3    H149040   4.217   1.623  10.340 -0.3831  1.0367  1.3233
 9183TIP3    H249041   4.131   1.513  10.398  0.8129 -1.1958 -1.0024
 9184TIP3   OH249042   6.768   5.109   4.971 -0.6971  0.4805  0.0941
 9184TIP3    H149043   6.773   5.013   4.976  0.1408 -0.0087 -5.0368
 9184TIP3    H249044   6.829   5.139   5.039  0.6932 -2.6791  0.4478
 9185TIP3   OH249045   5.504   2.416  12.242  0.2566 -0.0566  1.2465
 9185TIP3    H149046   5.417   2.381  12.220  1.2274 -1.7130 -0.2318
 9185TIP3    H249047   5.486   2.501  12.283 -2.0326 -0.2108  0.7005
 9186TIP3   OH249048   0.711   0.911   1.127 -0.0042 -0.0447  0.4330
 9186TIP3    H149049   0.656   0.919   1.050 -0.2166 -0.3602  0.5463
 9186TIP3    H249050   0.765   0.834   1.110 -0.3763 -0.3933  0.7906
 9187TIP3   OH249051   4.547   0.395  10.673 -0.2995 -0.2248  0.0070
 9187TIP3    H149052   4.630   0.415  10.716 -0.1299 -1.1871  0.1436
 9187TIP3    H249053   4.533   0.302  10.689 -2.5183  0.3346  1.8962
 9188TIP3   OH249054   1.498   5.361   5.616  0.3834 -0.4773  0.3104
 9188TIP3    H149055   1.580   5.346   5.662  0.3554  1.3137  1.0118
 9188TIP3    H249056   1.448   5.418   5.674  0.0012  1.1820 -1.5410
 9189TIP3   OH249057   6.824   3.044   3.047  0.0322 -0.1165  0.1489
 9189TIP3    H149058   6.762   3.026   3.118  0.2754 -0.4214  0.2877
 9189TIP3    H249059   6.770   3.046   2.968 -0.4380  1.4825  0.4757
 9190TIP3   OH249060   4.705   0.289  14.748 -0.4449 -0.1102 -0.2503
 9190TIP3    H149061   4.624   0.238  14.743 -1.4582  1.4972 -1.7967
 9190TIP3    H249062   4.713   0.329  14.661 -0.5185  3.4361  1.1935
 9191TIP3   OH249063   2.240   0.719  13.850  0.0582  0.1649  0.1915
 9191TIP3    H149064   2.204   0.639  13.889 -1.4536 -0.2672 -1.8905
 9191TIP3    H249065   2.334   0.702  13.842 -0.2074 -1.3425 -0.0421
 9192TIP3   OH249066   1.360   5.464   4.502 -0.1924 -0.2113 -0.4346
 9192TIP3    H149067   1.362   5.369   4.493 -0.6324 -0.4115  1.1794
 9192TIP3    H249068   1.436   5.484   4.558  1.4136  0.7084 -2.7804
 9193TIP3   OH249069   6.793   5.010  14.956 -0.0126 -0.1802 -0.5135
 9193TIP3    H149070   6.730   5.077  14.930  0.5568  0.1729 -1.0022
 9193TIP3    H249071   6.777   4.997  15.050 -1.5484 -0.8958 -0.8490
 9194TIP3   OH249072   1.451   1.485   1.229  0.0800  0.0417 -0.1743
 9194TIP3    H149073   1.436   1.571   1.190 -1.0971 -0.8063 -1.6978
 9194TIP3    H249074   1.503   1.503   1.307  0.0269  2.1089 -0.5593
 9195TIP3   OH249075   4.644   6.222   5.980  0.4663  0.0034  0.2787
 9195TIP3    H149076   4.647   6.127   5.991  0.0862  0.1751  2.3691
 9195TIP3    H249077   4.736   6.249   5.982  0.5092 -0.1451  2.1453
 9196TIP3   OH249078   3.097   0.248   5.048  0.6464  0.3489 -0.5356
 9196TIP3    H149079   3.082   0.212   4.960  0.5807 -0.4736 -0.1956
 9196TIP3    H249080   3.011   0.248   5.089  0.8010 -0.0270 -0.1982
 9197TIP3   OH249081   1.506   5.672   2.986 -0.1615 -0.1606 -0.6027
 9197TIP3    H149082   1.542   5.760   2.986 -0.3651 -0.0657 -1.7282
 9197TIP3    H249083   1.562   5.623   3.047 -1.5308  1.2954  2.0281
 9198TIP3   OH249084   1.619   4.266   1.661  0.2083  0.5856  0.0854
 9198TIP3    H149085   1.553   4.198   1.648  1.0899 -1.0407  3.1915
 9198TIP3    H249086   1.698   4.232   1.620 -0.1298  1.2894 -1.2113
 9199TIP3   OH249087   2.056   2.324   1.008  0.5232 -0.2103 -0.0151
 9199TIP3    H149088   1.974   2.368   0.983 -0.0571 -0.9469  0.5458
 9199TIP3    H249089   2.035   2.231   1.003  1.7663 -0.4543 -1.3002
 9200TIP3   OH249090   3.807   0.800  15.288 -0.4335  0.4369  0.0758
 9200TIP3    H149091   3.845   0.737  15.227  0.6078  1.3513 -0.2480
 9200TIP3    H249092   3.715   0.807  15.260 -0.0647  0.5829 -1.1811
 9201TIP3   OH249093   5.430   1.019   6.048 -0.3874  0.4100 -0.0183
 9201TIP3    H149094   5.380   1.066   6.114 -0.3209  0.9128 -0.3210
 9201TIP3    H249095   5.421   0.927   6.073  1.1296  0.6851  1.7364
 9202TIP3   OH249096   0.561   1.648  14.536  0.2097 -0.6090 -0.1440
 9202TIP3    H149097   0.595   1.620  14.621  0.2145  2.9333  1.2051
 9202TIP3    H249098   0.638   1.678  14.488 -0.0975  0.1223 -0.1962
 9203TIP3   OH249099   5.405   3.131  16.908  0.2848  0.1593  0.0581
 9203TIP3    H149100   5.372   3.201  16.850 -1.0897 -2.1561 -2.1688
 9203TIP3    H249101   5.418   3.174  16.992  0.5516  3.3288 -1.4393
 9204TIP3   OH249102   6.454   4.485   0.798  0.0555  0.2430  0.2022
 9204TIP3    H149103   6.478   4.414   0.740  0.1774 -0.1087  0.6755
 9204TIP3    H249104   6.514   4.556   0.776 -1.5174  1.0226 -1.8353
 9205TIP3   OH249105   5.418   0.711   1.148 -0.7791  0.4875 -0.3994
 9205TIP3    H149106   5.380   0.641   1.094  0.3296 -2.4676  2.3118
 9205TIP3    H249107   5.343   0.749   1.194 -1.2626  0.0426 -0.8077
 9206TIP3   OH249108   0.518   1.600   1.807  0.0996 -0.1278  0.3631
 9206TIP3    H149109   0.431   1.614   1.843  0.0707 -0.2886  0.3543
 9206TIP3    H249110   0.569   1.676   1.838  0.0679 -0.2487  0.7190
 9207TIP3   OH249111   0.891   6.635   1.245 -0.0283 -0.3820  0.5519
 9207TIP3    H149112   0.936   6.614   1.327  0.1477 -1.2871  0.2365
 9207TIP3    H249113   0.961   6.657   1.184 -0.2472  2.5743  1.2084
 9208TIP3   OH249114   6.142   0.902   2.887  0.5215  0.4100 -0.3607
 9208TIP3    H149115   6.051   0.887   2.861  0.2123  1.2195  0.2015
 9208TIP3    H249116   6.138   0.979   2.944  1.3643 -0.4997  0.9610
 9209TIP3   OH249117   3.328   5.464   1.726  0.0153  0.1046  0.3126
 9209TIP3    H149118   3.297   5.548   1.760  1.6707  1.6914 -1.8020
 9209TIP3    H249119   3.285   5.455   1.641  0.8974 -0.4960 -0.0853
 9210TIP3   OH249120   3.799   0.138  13.723  0.2968  0.2615 -0.1591
 9210TIP3    H149121   3.771   0.188  13.646  0.8047  0.5248 -0.1817
 9210TIP3    H249122   3.748   0.057  13.720  0.0809  0.4116 -0.5930
 9211TIP3   OH249123   3.969   2.438   3.366 -0.0520  0.0768  0.3146
 9211TIP3    H149124   3.905   2.468   3.431  1.4118 -0.3525  2.0089
 9211TIP3    H249125   3.958   2.343   3.363 -1.7974  0.2501 -1.9743
 9212TIP3   OH249126   2.157   2.636  14.138 -0.0134  0.2396 -0.0314
 9212TIP3    H149127   2.131   2.671  14.223 -1.1153  1.8691 -0.9810
 9212TIP3    H249128   2.249   2.610  14.149 -0.6192 -1.2359  2.1071
 9213TIP3   OH249129   3.396   1.385  10.506  0.0290  0.1891 -0.4513
 9213TIP3    H149130   3.306   1.381  10.472 -0.6142 -2.0540  1.2691
 9213TIP3    H249131   3.409   1.478  10.526 -2.4747  0.4130  0.5983
 9214TIP3   OH249132   5.081   3.083  14.204  0.2474 -0.1761  0.0464
 9214TIP3    H149133   5.094   3.176  14.187 -0.4803  0.2082  1.4290
 9214TIP3    H249134   5.108   3.039  14.123  0.5406  1.2333 -0.6412
 9215TIP3   OH249135   2.435   2.921   2.135 -0.5259 -0.0975 -0.2342
 9215TIP3    H149136   2.403   2.982   2.201  0.3823  0.6540 -0.4723
 9215TIP3    H249137   2.516   2.885   2.172 -1.0988 -1.2679 -0.0465
 9216TIP3   OH249138   1.400   3.691   1.808  0.6466 -0.0020 -0.5980
 9216TIP3    H149139   1.326   3.638   1.779 -0.0567  0.1716  0.8141
 9216TIP3    H249140   1.475   3.632   1.800  0.3867 -0.1770 -2.0343
 9217TIP3   OH249141   3.315   3.833  11.761 -0.5663  0.2895  1.2496
 9217TIP3    H149142   3.397   3.806  11.803 -0.0966 -0.3784 -0.0319
 9217TIP3    H249143   3.336   3.916  11.719 -0.6843  0.3591  1.3295
 9218TIP3   OH249144   0.607   3.425   1.879  0.2491 -0.4930  0.5816
 9218TIP3    H149145   0.570   3.475   1.806  1.1177 -0.5570  0.0969
 9218TIP3    H249146   0.652   3.491   1.932  2.7898 -0.9202 -0.9064
 9219TIP3   OH249147   0.536   1.413   5.553 -0.0410 -0.2571  0.2194
 9219TIP3    H149148   0.489   1.407   5.637 -1.3628  1.7346 -0.3264
 9219TIP3    H249149   0.467   1.426   5.488  1.1475  0.7310 -0.8667
 9220TIP3   OH249150   0.725   1.825   4.432 -0.2175  0.2621 -0.8059
 9220TIP3    H149151   0.773   1.903   4.460 -0.3270  0.4904 -1.2424
 9220TIP3    H249152   0.748   1.758   4.497 -1.3128  1.0552  0.4616
 9221TIP3   OH249153   2.129   4.368  11.520 -0.0054  0.1961  0.1382
 9221TIP3    H149154   2.214   4.407  11.503  0.7156 -0.5625  1.7621
 9221TIP3    H249155   2.106   4.396  11.609  0.2641 -2.4386  1.1487
 9222TIP3   OH249156   4.220   4.092  11.320  0.0114  0.2422  0.1602
 9222TIP3    H149157   4.285   4.129  11.260 -1.9006  1.6606 -1.1488
 9222TIP3    H249158   4.268   4.078  11.402  2.3473 -0.3825 -1.2144
 9223TIP3   OH249159   1.468   0.846  15.074 -0.1234  0.5798  0.2897
 9223TIP3    H149160   1.559   0.845  15.045 -0.5683  0.0142 -1.2110
 9223TIP3    H249161   1.443   0.939  15.070 -0.1933  0.5264 -1.3667
 9224TIP3   OH249162   5.109   6.391  16.068 -0.3386 -0.6298 -0.1341
 9224TIP3    H149163   5.071   6.359  16.149 -1.7333  0.0519 -0.4861
 9224TIP3    H249164   5.144   6.313  16.025  1.2554 -0.8783  1.5062
 9225TIP3   OH249165   1.498   4.681  14.144 -0.3885 -0.3025 -0.6935
 9225TIP3    H149166   1.479   4.775  14.135 -0.1282 -0.1080  0.6646
 9225TIP3    H249167   1.494   4.648  14.054 -1.9129  0.7298 -1.0504
 9226TIP3   OH249168   3.616   0.685  12.295  0.3359  0.7388  0.2876
 9226TIP3    H149169   3.652   0.611  12.247 -0.5722  0.5075 -0.0578
 9226TIP3    H249170   3.532   0.653  12.329 -0.4599  1.8477 -0.5475
 9227TIP3   OH249171   6.656   2.197   5.464  0.4705  0.0149 -0.0761
 9227TIP3    H149172   6.583   2.142   5.491  0.9964 -0.6979 -0.0821
 9227TIP3    H249173   6.715   2.197   5.539  1.2343 -0.7556 -0.6682
 9228TIP3   OH249174   4.050   6.753   2.859 -0.1290 -0.1301  0.2929
 9228TIP3    H149175   4.027   6.687   2.924 -0.6630 -1.0134 -0.7503
 9228TIP3    H249176   4.021   6.715   2.776 -0.3885  1.3929 -0.3458
 9229TIP3   OH249177   2.073   3.013   5.753  0.3670 -0.2283 -0.3916
 9229TIP3    H149178   2.145   3.076   5.764 -2.1294  3.1157 -1.4789
 9229TIP3    H249179   2.058   3.010   5.659 -2.4453  1.2330 -0.0952
 9230TIP3   OH249180   5.143   1.832  16.409 -0.1519  0.1719 -0.4806
 9230TIP3    H149181   5.055   1.816  16.376 -0.6193 -1.5455  1.4251
 9230TIP3    H249182   5.168   1.751  16.453  1.7835  1.1387  0.3314
 9231TIP3   OH249183   3.827   4.831   5.447  0.1660  0.3708 -0.3220
 9231TIP3    H149184   3.918   4.806   5.439  0.2567  1.1293 -2.2069
 9231TIP3    H249185   3.790   4.771   5.512  1.5588 -1.1592 -0.8973
 9232TIP3   OH249186   0.942   5.925   1.758  0.8110  0.1686  0.2577
 9232TIP3    H149187   0.925   6.019   1.762  0.2804  0.0935 -0.0636
 9232TIP3    H249188   0.962   5.900   1.848  0.4549  0.5019  0.4335
 9233TIP3   OH249189   5.308   4.673   0.267 -0.6597 -0.7229 -0.6374
 9233TIP3    H149190   5.283   4.642   0.354 -0.3861 -1.3917 -0.7883
 9233TIP3    H249191   5.239   4.641   0.209 -1.3111  0.4730 -0.5563
 9234TIP3   OH249192   5.524   6.297  12.694  0.5409 -0.5683 -0.0566
 9234TIP3    H149193   5.481   6.254  12.621 -0.9362  2.4247 -1.1062
 9234TIP3    H249194   5.502   6.243  12.770 -0.4567 -2.0865 -1.3551
 9235TIP3   OH249195   3.076   6.091   5.032 -0.1452 -0.1093  0.4030
 9235TIP3    H149196   3.136   6.159   5.062 -0.3375  0.6779 -0.9114
 9235TIP3    H249197   3.118   6.009   5.057  0.2004  0.4702  1.8278
 9236TIP3   OH249198   5.458   4.642  12.902 -0.1377 -0.0603  0.0799
 9236TIP3    H149199   5.369   4.606  12.899  0.3051 -1.2488  0.8708
 9236TIP3    H249200   5.452   4.715  12.964 -0.6557  0.1617 -0.2223
 9237TIP3   OH249201   3.150   2.359  11.789 -0.3828 -0.2213 -0.3571
 9237TIP3    H149202   3.095   2.407  11.728 -0.0729 -0.2588 -0.6667
 9237TIP3    H249203   3.220   2.420  11.812  0.1384 -0.5975 -0.9277
 9238TIP3   OH249204   6.051   4.130  12.140  0.0429  0.0085  0.1095
 9238TIP3    H149205   5.986   4.165  12.201  0.4446  1.2752 -0.1526
 9238TIP3    H249206   6.124   4.191  12.145 -0.0903  0.4382 -1.9407
 9239TIP3   OH249207   3.875   2.423   3.813 -0.3800  0.4726  0.0803
 9239TIP3    H149208   3.793   2.457   3.850  0.2147  1.1538  0.8253
 9239TIP3    H249209   3.924   2.392   3.889 -0.0699 -0.2177 -0.3958
 9240TIP3   OH249210   3.363   0.315  14.015 -0.5594 -0.0210 -0.2047
 9240TIP3    H149211   3.318   0.233  13.993  0.0345 -0.3549 -0.2082
 9240TIP3    H249212   3.328   0.339  14.101 -1.4536  0.2454 -0.6412
 9241TIP3   OH249213   5.372   1.649   3.814  0.5072 -0.1963  0.1978
 9241TIP3    H149214   5.444   1.704   3.846  0.5468 -0.3500  0.3787
 9241TIP3    H249215   5.397   1.627   3.725  1.7487 -1.9792  0.9223
 9242TIP3   OH249216   5.360   0.147   5.498  0.5562 -0.3068 -0.0461
 9242TIP3    H149217   5.272   0.111   5.502 -0.8768  2.8874  0.0433
 9242TIP3    H249218   5.364   0.210   5.569  1.8360  1.7899 -1.8454
 9243TIP3   OH249219   5.318   6.617   4.974  0.0823  0.0248  0.1516
 9243TIP3    H149220   5.410   6.619   4.949 -0.3347 -0.9156 -1.6436
 9243TIP3    H249221   5.294   6.524   4.968 -0.5897  0.0319  2.2115
 9244TIP3   OH249222   2.267   4.408   2.918 -0.4944  0.2188 -0.5859
 9244TIP3    H149223   2.201   4.364   2.972 -1.3495  1.3805 -0.6427
 9244TIP3    H249224   2.224   4.425   2.835  0.3883 -0.3678 -1.1824
 9245TIP3   OH249225   1.835   4.318  11.835  0.0271 -0.1187 -0.1419
 9245TIP3    H149226   1.778   4.242  11.822  1.0779 -0.8785 -0.4602
 9245TIP3    H249227   1.823   4.342  11.927  1.0020 -1.7983  0.4611
 9246TIP3   OH249228   1.425   4.358   3.598 -0.6747  0.3926  0.2255
 9246TIP3    H149229   1.452   4.328   3.511  0.9742  2.0050  0.1152
 9246TIP3    H249230   1.346   4.409   3.583 -0.3587  0.7248 -0.3583
 9247TIP3   OH249231   6.756   5.120   0.400 -0.0989  0.2242 -0.1840
 9247TIP3    H149232   6.758   5.025   0.407  0.2040  0.2048 -0.5106
 9247TIP3    H249233   6.672   5.146   0.438  0.4200 -0.0585  1.2087
 9248TIP3   OH249234   5.999   4.921   3.700  0.0742  0.1816  0.1808
 9248TIP3    H149235   6.041   4.844   3.736  0.9799  1.8366  2.9347
 9248TIP3    H249236   5.921   4.933   3.754 -0.9518  0.3226 -1.2707
 9249TIP3   OH249237   1.902   2.092   1.341  0.1957  0.2857  0.0113
 9249TIP3    H149238   1.945   2.174   1.316 -1.0866  0.5917 -1.3103
 9249TIP3    H249239   1.814   2.118   1.367  0.0607 -0.5817  0.4579
 9250TIP3   OH249240   1.766   1.239  15.267 -0.2802 -0.2041 -0.3686
 9250TIP3    H149241   1.751   1.265  15.176  0.5214  0.4213 -0.3407
 9250TIP3    H249242   1.786   1.146  15.262  0.5451 -0.0079 -0.9403
 9251TIP3   OH249243   3.686   5.383  11.177 -0.2811  0.2138 -0.4568
 9251TIP3    H149244   3.683   5.292  11.145 -1.9853 -0.1281  0.5162
 9251TIP3    H249245   3.731   5.377  11.261 -0.6245  0.2195 -0.2711
 9252TIP3   OH249246   3.361   4.606  12.802 -0.6527 -0.1252  0.3230
 9252TIP3    H149247   3.304   4.552  12.857  0.1849 -0.1146  1.2345
 9252TIP3    H249248   3.305   4.678  12.773 -1.3971 -0.7115  0.2567
 9253TIP3   OH249249   1.186   2.311   1.317 -0.1451  0.4441 -0.5764
 9253TIP3    H149250   1.106   2.320   1.369 -0.8618  2.7607 -1.9188
 9253TIP3    H249251   1.228   2.397   1.322  1.5893 -0.3240 -1.0151
 9254TIP3   OH249252   5.976   5.405  15.873 -0.2417  0.2943 -0.1661
 9254TIP3    H149253   5.922   5.326  15.876  0.9893 -0.5675 -0.2395
 9254TIP3    H249254   5.930   5.462  15.812 -1.2057 -0.3075 -0.0356
 9255TIP3   OH249255   4.163   4.282   5.405  0.0891  0.1249  0.2581
 9255TIP3    H149256   4.154   4.226   5.482  0.0580 -0.7380 -0.3716
 9255TIP3    H249257   4.117   4.363   5.430  0.5394  0.0676  1.3359
 9256TIP3   OH249258   3.907   5.504  14.599  0.2923  0.1879 -0.0900
 9256TIP3    H149259   3.923   5.433  14.537 -1.8296 -0.9101  0.5277
 9256TIP3    H249260   3.982   5.500  14.659  1.0636 -0.4070 -1.0588
 9257TIP3   OH249261   4.519   5.652  17.142  0.1348 -0.2632 -0.3195
 9257TIP3    H149262   4.502   5.739  17.178  0.1164 -1.0065  1.6270
 9257TIP3    H249263   4.432   5.614  17.129  0.1052  0.3463 -2.1910
 9258TIP3   OH249264   0.624   2.635   3.706  0.6653  0.2684  0.6281
 9258TIP3    H149265   0.578   2.712   3.670 -0.7701 -1.2868 -1.0920
 9258TIP3    H249266   0.660   2.591   3.629 -1.3221 -2.4594  1.0873
 9259TIP3   OH249267   0.898   1.756   1.257  0.5599 -0.0883  0.0462
 9259TIP3    H149268   0.845   1.677   1.245  0.8296 -0.5449  1.6276
 9259TIP3    H249269   0.989   1.725   1.249  0.6437  0.3228 -0.6691
 9260TIP3   OH249270   5.421   1.554  12.902 -0.8812 -0.4866 -0.2288
 9260TIP3    H149271   5.458   1.489  12.842 -1.4216  0.7100 -1.9468
 9260TIP3    H249272   5.326   1.550  12.885 -0.8400  1.4650 -1.2032
 9261TIP3   OH249273   5.330   2.463  11.927 -0.5330 -0.5755  0.1128
 9261TIP3    H149274   5.246   2.485  11.967 -0.5390 -1.3511  0.5506
 9261TIP3    H249275   5.341   2.370  11.946  0.1055 -0.6344 -0.5300
 9262TIP3   OH249276   5.341   0.055  11.050  0.3848  0.2883 -0.0144
 9262TIP3    H149277   5.257   0.086  11.015  0.4731  0.2754 -0.2418
 9262TIP3    H249278   5.391   0.136  11.066  0.5675  0.2771 -0.4882
 9263TIP3   OH249279   5.757   5.638  16.115  0.1877  0.0247 -0.1350
 9263TIP3    H149280   5.752   5.598  16.028 -1.1621 -1.4557  0.5539
 9263TIP3    H249281   5.759   5.732  16.099  2.3325 -0.2318 -1.8130
 9264TIP3   OH249282   2.039   2.525  10.976 -0.4742  0.4238 -0.4337
 9264TIP3    H149283   2.105   2.460  10.953 -0.3844  0.5237 -0.4607
 9264TIP3    H249284   1.958   2.491  10.939 -0.7469 -0.4580  0.9082
 9265TIP3   OH249285   1.527   3.183   1.737  0.1952 -0.1097  0.9797
 9265TIP3    H149286   1.620   3.171   1.753  0.4342 -2.0155 -1.3173
 9265TIP3    H249287   1.487   3.186   1.824  2.4057  1.2442  2.0257
 9266TIP3   OH249288   4.653   2.124  14.992 -0.4562  0.1783  0.3843
 9266TIP3    H149289   4.702   2.203  15.014 -1.1405  0.8645 -0.4650
 9266TIP3    H249290   4.657   2.070  15.071  3.3181 -0.7024 -0.2362
 9267TIP3   OH249291   4.171   3.944   4.126 -0.1142  0.1112  1.0348
 9267TIP3    H149292   4.218   4.021   4.093 -0.1100  0.1698  1.1816
 9267TIP3    H249293   4.082   3.955   4.094 -0.7050  1.3493  3.0014
 9268TIP3   OH249294   4.702   0.962   3.605 -0.6493  0.2598  0.6375
 9268TIP3    H149295   4.699   0.941   3.512  0.3554  0.9238  0.4342
 9268TIP3    H249296   4.614   0.943   3.637 -0.9087 -0.3068 -0.3690
 9269TIP3   OH249297   5.540   6.714   1.339 -0.1312  0.0357 -0.4833
 9269TIP3    H149298   5.617   6.666   1.369 -0.3233 -0.0092 -0.0683
 9269TIP3    H249299   5.536   6.696   1.245  0.6769  0.4667 -0.6130
 9270TIP3   OH249300   3.450   3.496   3.077 -0.9137  0.1122  0.3658
 9270TIP3    H149301   3.407   3.487   2.992 -0.3390  1.0489 -0.0357
 9270TIP3    H249302   3.406   3.431   3.133 -2.1326  0.3336 -0.3029
 9271TIP3   OH249303   0.355   2.383   0.372  0.0906 -0.3851 -0.5485
 9271TIP3    H149304   0.383   2.382   0.464  0.0203  0.5370 -0.5110
 9271TIP3    H249305   0.423   2.433   0.327  1.4050 -2.8247 -1.4506
 9272TIP3   OH249306   2.619   3.660   5.583 -0.0970 -0.0482 -0.0345
 9272TIP3    H149307   2.694   3.627   5.535 -0.0332 -0.5974  0.4390
 9272TIP3    H249308   2.545   3.607   5.552 -0.0587 -0.3918  0.4499
 9273TIP3   OH249309   4.710   4.836  12.168  0.2356  0.1367  0.1478
 9273TIP3    H149310   4.682   4.792  12.087  1.1212 -1.4396  0.6550
 9273TIP3    H249311   4.652   4.802  12.236  0.3437  0.4497  0.3982
 9274TIP3   OH249312   6.231   2.157   2.285 -0.2686  0.1419 -0.0951
 9274TIP3    H149313   6.260   2.248   2.284 -1.2540  0.4677 -0.9812
 9274TIP3    H249314   6.277   2.117   2.210 -0.9205  0.2756 -0.5721
 9275TIP3   OH249315   2.431   5.795   4.351 -0.2138  0.2720 -0.4965
 9275TIP3    H149316   2.390   5.879   4.334  0.8509  1.3681  1.8860
 9275TIP3    H249317   2.519   5.816   4.384 -0.5392 -1.6014  1.9159
 9276TIP3   OH249318   4.559   0.163   2.891 -0.0390 -0.2120  0.0143
 9276TIP3    H149319   4.467   0.143   2.903  0.0531 -1.4503 -1.0853
 9276TIP3    H249320   4.589   0.192   2.977 -1.6937  1.3604  0.1184
 9277TIP3   OH249321   3.648   3.793   0.110 -0.0352  0.3519  0.4096
 9277TIP3    H149322   3.702   3.871   0.097  0.6253  0.2056  2.0604
 9277TIP3    H249323   3.559   3.826   0.118  0.3645  1.0701  2.1789
 9278TIP3   OH249324   6.021   3.600   3.156  0.2682  0.1580  0.0412
 9278TIP3    H149325   6.046   3.571   3.244 -0.2999  0.2502  0.2371
 9278TIP3    H249326   5.950   3.663   3.171 -1.6545 -1.7424 -0.6007
 9279TIP3   OH249327   0.425   2.677  14.648 -0.0226  0.6390  0.2166
 9279TIP3    H149328   0.373   2.698  14.725  1.1285 -1.8123  1.7853
 9279TIP3    H249329   0.368   2.697  14.574 -2.0651  0.8098  1.7530
 9280TIP3   OH249330   3.441   2.413   0.959 -0.9459  0.5733 -0.5369
 9280TIP3    H149331   3.380   2.341   0.976  1.8002 -1.5570  1.1732
 9280TIP3    H249332   3.498   2.381   0.890  0.2279  1.1387  0.1351
 9281TIP3   OH249333   1.676   3.451   1.453 -0.2807  0.4150  0.0505
 9281TIP3    H149334   1.748   3.392   1.430  0.5592  1.3416  0.2392
 9281TIP3    H249335   1.603   3.422   1.398  0.8264  0.7287 -1.6573
 9282TIP3   OH249336   0.616   6.493  15.286 -0.0563  0.0998  0.0745
 9282TIP3    H149337   0.555   6.424  15.259 -0.1413 -0.2328  1.0532
 9282TIP3    H249338   0.701   6.466  15.249 -0.3703  0.2347 -0.7607
 9283TIP3   OH249339   4.991   6.692   0.822  0.4586  0.2434 -0.4278
 9283TIP3    H149340   4.977   6.712   0.915 -0.6242  0.1038 -0.5508
 9283TIP3    H249341   4.988   6.596   0.818 -0.8634  0.2871 -0.8000
 9284TIP3   OH249342   2.255   5.676   2.489 -0.3797  0.5195 -0.2668
 9284TIP3    H149343   2.304   5.735   2.546 -0.2351  0.4439 -0.3117
 9284TIP3    H249344   2.238   5.599   2.544  0.0825  0.2922 -0.4405
 9285TIP3   OH249345   1.701   5.759   6.077 -0.2281 -0.2751  0.6006
 9285TIP3    H149346   1.793   5.785   6.069 -0.4700  0.9072  1.4048
 9285TIP3    H249347   1.664   5.822   6.138 -1.3250 -1.4022  1.1421
 9286TIP3   OH249348   6.239   0.146  15.783  0.3518 -0.2637 -0.0660
 9286TIP3    H149349   6.220   0.194  15.702  1.1259  0.7435  0.3271
 9286TIP3    H249350   6.283   0.210  15.839  2.4162 -1.7062  0.0885
 9287TIP3   OH249351   3.218   4.779   3.625  0.8119  0.0104 -0.2598
 9287TIP3    H149352   3.232   4.742   3.538  0.9168  0.1545 -0.3037
 9287TIP3    H249353   3.129   4.752   3.649  1.2034 -1.0360  0.0768
 9288TIP3   OH249354   5.928   0.964  15.721  0.2617 -0.4232 -0.5196
 9288TIP3    H149355   5.981   0.937  15.796 -0.5474 -1.4378 -0.2809
 9288TIP3    H249356   5.906   1.055  15.738 -0.8878 -0.9561  1.1161
 9289TIP3   OH249357   6.794   2.479   5.371  0.3853 -0.3309 -0.0628
 9289TIP3    H149358   6.863   2.414   5.359  2.0873  1.6420 -1.6188
 9289TIP3    H249359   6.816   2.522   5.454  1.1804  0.4052 -0.6358
 9290TIP3   OH249360   1.866   3.440  11.868  0.3476  0.1404  0.1169
 9290TIP3    H149361   1.924   3.441  11.791  0.5382 -1.7517  0.1765
 9290TIP3    H249362   1.780   3.417  11.832  0.0960  0.8158  0.2867
 9291TIP3   OH249363   0.654   1.277  11.097  0.2776  0.1902  0.1159
 9291TIP3    H149364   0.660   1.183  11.077 -1.6575 -0.0679  0.5389
 9291TIP3    H249365   0.636   1.318  11.013  1.4571  0.2456 -0.1258
 9292TIP3   OH249366   2.455   2.611  15.326  0.2130 -0.5850  0.5966
 9292TIP3    H149367   2.438   2.703  15.347  0.9547 -0.2733 -0.1164
 9292TIP3    H249368   2.378   2.582  15.278 -0.4551 -0.6267  1.6636
 9293TIP3   OH249369   4.396   1.688   2.204 -0.2482 -0.1783  0.3295
 9293TIP3    H149370   4.351   1.685   2.119 -0.0135 -0.1963  0.2075
 9293TIP3    H249371   4.330   1.725   2.263 -0.3287  0.0687  0.0896
 9294TIP3   OH249372   3.869   4.762  11.485 -1.1444 -0.1718 -0.2528
 9294TIP3    H149373   3.833   4.674  11.491 -0.7206 -0.4844 -1.8191
 9294TIP3    H249374   3.964   4.750  11.483 -1.0690  0.3500 -0.0929
 9295TIP3   OH249375   5.115   4.788   2.601 -0.0105  0.1910  0.4747
 9295TIP3    H149376   5.159   4.839   2.533  1.0054 -0.7204  0.4267
 9295TIP3    H249377   5.150   4.700   2.591  1.4411  0.3731  3.2390
 9296TIP3   OH249378   0.243   3.554  13.901 -0.0072 -0.6078  0.1834
 9296TIP3    H149379   0.317   3.552  13.961  0.1167 -1.6591  0.0134
 9296TIP3    H249380   0.168   3.572  13.957  0.6120  3.1921  0.0455
 9297TIP3   OH249381   2.269   6.228   3.883  0.0814  0.2340  0.1326
 9297TIP3    H149382   2.229   6.277   3.811 -1.6233  0.3804  1.1426
 9297TIP3    H249383   2.331   6.289   3.922  1.7189 -0.1302 -1.7072
 9298TIP3   OH249384   5.207   3.609   4.695  0.1369 -0.0884  0.8608
 9298TIP3    H149385   5.112   3.600   4.692  0.1361  0.2910 -0.8012
 9298TIP3    H249386   5.222   3.703   4.710  0.2357  0.1633 -0.6831
 9299TIP3   OH249387   2.109   4.723  16.435 -0.3822 -0.3891 -0.5199
 9299TIP3    H149388   2.019   4.694  16.447  0.2440 -1.3936  2.2148
 9299TIP3    H249389   2.160   4.643  16.422  0.3703  0.0290 -0.2329
 9300TIP3   OH249390   4.122   5.104   6.148  0.3884 -0.0410 -0.1208
 9300TIP3    H149391   4.186   5.059   6.093 -0.0189 -2.4631  1.2174
 9300TIP3    H249392   4.037   5.079   6.111  0.1506  1.4545 -0.6389
 9301TIP3   OH249393   2.227   1.346   4.876 -0.2874  0.1073 -0.1504
 9301TIP3    H149394   2.320   1.350   4.852 -0.1828  1.5897  0.3906
 9301TIP3    H249395   2.225   1.370   4.969 -1.1892 -0.2095 -0.0772
 9302TIP3   OH249396   4.895   4.210   1.959 -0.5337 -0.5203  0.1276
 9302TIP3    H149397   4.903   4.140   1.894 -1.1238 -0.0689 -0.4408
 9302TIP3    H249398   4.917   4.168   2.042 -1.1380 -1.4492 -0.1663
 9303TIP3   OH249399   6.248   3.914  13.353 -0.3233  0.4363  0.3822
 9303TIP3    H149400   6.288   4.000  13.345  1.1872 -0.3006 -0.4224
 9303TIP3    H249401   6.182   3.912  13.283  0.9378  0.2760 -0.8296
 9304TIP3   OH249402   1.729   4.976   6.262 -0.4390  0.1643 -0.7263
 9304TIP3    H149403   1.809   4.930   6.237  0.1301 -1.1061  2.8940
 9304TIP3    H249404   1.746   5.068   6.240  0.8657 -0.4468 -2.4794
 9305TIP3   OH249405   4.024   2.497   4.570 -0.4603 -0.2135  0.0285
 9305TIP3    H149406   3.937   2.510   4.608 -0.4623  0.0470 -0.0669
 9305TIP3    H249407   4.080   2.560   4.617 -0.4512  0.0717 -0.3637
 9306TIP3   OH249408   4.598   4.669  11.521 -0.1395  0.7749 -0.0536
 9306TIP3    H149409   4.507   4.660  11.550  0.4059 -1.3121  1.2394
 9306TIP3    H249410   4.638   4.728  11.585 -0.3128  0.8074  0.0244
 9307TIP3   OH249411   5.457   3.839   5.838 -0.2448  0.1772 -0.2040
 9307TIP3    H149412   5.413   3.822   5.921 -0.8563 -0.4365 -0.6496
 9307TIP3    H249413   5.439   3.762   5.784  2.9880 -1.0181  0.2356
 9308TIP3   OH249414   2.443   3.324   3.526 -0.1168 -0.3472  0.3980
 9308TIP3    H149415   2.455   3.354   3.436 -1.3936  0.6981  0.5384
 9308TIP3    H249416   2.442   3.405   3.578 -2.0782 -0.7015  0.9911
 9309TIP3   OH249417   5.724   5.099   5.510  0.1239  0.4645 -0.0747
 9309TIP3    H149418   5.744   5.027   5.571  0.3872  0.3413 -0.3073
 9309TIP3    H249419   5.682   5.165   5.565 -1.6934 -0.5565 -0.1538
 9310TIP3   OH249420   6.059   2.621  14.455  0.2500 -0.5980 -0.4435
 9310TIP3    H149421   6.112   2.657  14.385  1.7729  0.3797  1.1417
 9310TIP3    H249422   6.115   2.557  14.498 -1.2671 -2.4907 -1.1367
 9311TIP3   OH249423   1.461   2.714  14.386 -0.5279  0.0397  0.5487
 9311TIP3    H149424   1.492   2.680  14.302 -1.6133 -1.7843  0.8511
 9311TIP3    H249425   1.450   2.808  14.370  2.1363  0.2826 -0.4351
 9312TIP3   OH249426   3.418   1.401  13.701 -0.2289  0.1589 -0.0143
 9312TIP3    H149427   3.513   1.403  13.705 -0.2355 -0.7202  1.1998
 9312TIP3    H249428   3.398   1.332  13.638 -0.0402 -0.9815  1.1409
 9313TIP3   OH249429   0.236   0.541  14.086 -0.2886 -0.1046  0.5131
 9313TIP3    H149430   0.244   0.598  14.010  1.5593 -1.3423 -0.2985
 9313TIP3    H249431   0.216   0.455  14.049 -4.3768  0.1099  1.7591
 9314TIP3   OH249432   4.531   6.201  11.494  0.5994 -0.2296  0.0265
 9314TIP3    H149433   4.508   6.127  11.551  0.0708  0.2016  0.3878
 9314TIP3    H249434   4.613   6.175  11.453  2.3711  0.4213  2.8700
 9315TIP3   OH249435   2.998   4.683   6.532  0.2753  0.1158  0.6929
 9315TIP3    H149436   2.991   4.715   6.442 -0.5501 -0.3099  0.5971
 9315TIP3    H249437   2.908   4.664   6.558  0.7338 -3.0185  0.4096
 9316TIP3   OH249438   3.080   3.309   1.557  0.4852 -0.0914 -0.1571
 9316TIP3    H149439   3.162   3.269   1.526  1.0146 -0.3810  1.4930
 9316TIP3    H249440   3.013   3.275   1.498  1.5771  0.4965 -1.8290
 9317TIP3   OH249441   6.377   6.602  16.719  0.0485 -0.0452 -0.0740
 9317TIP3    H149442   6.415   6.567  16.639  0.4682  1.1090 -0.3949
 9317TIP3    H249443   6.290   6.561  16.723  0.3948 -0.8640 -0.5904
 9318TIP3   OH249444   5.036   1.935  12.685  0.0660 -0.3241  0.8118
 9318TIP3    H149445   4.988   2.000  12.736 -0.2721 -0.2930  0.4617
 9318TIP3    H249446   5.127   1.965  12.687 -0.2488  0.7549 -0.2482
 9319TIP3   OH249447   5.065   3.944   0.223 -0.3481  0.4797  0.2115
 9319TIP3    H149448   4.998   3.898   0.172  0.2742  0.6623 -0.7899
 9319TIP3    H249449   5.148   3.919   0.182  0.2624 -0.1844  1.7785
 9320TIP3   OH249450   1.029   1.582   4.807 -0.4562  0.0200 -0.2462
 9320TIP3    H149451   1.078   1.603   4.727 -0.9556  1.0138 -0.3026
 9320TIP3    H249452   1.016   1.666   4.851 -2.2670 -0.1616 -0.3315
 9321TIP3   OH249453   0.425   1.777   5.973 -0.4943 -0.2380 -0.0651
 9321TIP3    H149454   0.469   1.860   5.953 -0.4259 -0.7813 -2.4338
 9321TIP3    H249455   0.339   1.785   5.931 -0.8346 -1.0311  0.4633
 9322TIP3   OH249456   4.949   4.008  13.687 -0.1933 -0.1876  1.0132
 9322TIP3    H149457   4.923   4.006  13.779  1.7476  1.4608  1.6467
 9322TIP3    H249458   5.044   4.002  13.688 -0.1675 -1.1437 -0.9718
 9323TIP3   OH249459   2.278   3.220  11.569 -0.0054 -0.2551 -0.1127
 9323TIP3    H149460   2.269   3.276  11.492 -0.0152 -1.7970 -1.2753
 9323TIP3    H249461   2.371   3.199  11.573 -0.3049 -1.9262 -1.0317
 9324TIP3   OH249462   1.310   3.053   2.130  0.2203 -0.6066 -0.3260
 9324TIP3    H149463   1.296   3.072   2.223  0.4229 -2.5860  0.1403
 9324TIP3    H249464   1.364   2.975   2.129  2.5324  0.8842 -2.1398
 9325TIP3   OH249465   3.959   1.027   5.272 -0.9601  0.4748 -0.2777
 9325TIP3    H149466   3.866   1.051   5.271 -0.8785  0.7823 -0.4115
 9325TIP3    H249467   3.971   0.974   5.193 -0.7729  1.3723 -0.8624
 9326TIP3   OH249468   3.278   0.729   3.889  0.0897  0.0900 -0.3746
 9326TIP3    H149469   3.321   0.648   3.917 -0.2655 -0.6434 -1.8510
 9326TIP3    H249470   3.324   0.798   3.936  0.6934 -0.9356  0.5827
 9327TIP3   OH249471   1.516   4.857  14.922 -0.1502 -0.2676  0.5437
 9327TIP3    H149472   1.538   4.900  15.005 -0.3558  3.3020 -1.0720
 9327TIP3    H249473   1.502   4.929  14.861 -0.8594 -2.7294 -2.4257
 9328TIP3   OH249474   2.576   2.208  12.021  0.0979 -0.5523 -0.2904
 9328TIP3    H149475   2.507   2.236  12.081 -0.9783 -2.5696 -0.5187
 9328TIP3    H249476   2.639   2.280  12.022 -1.5945  0.9939  0.5607
 9329TIP3   OH249477   6.369   0.721  14.025 -0.3416  0.1954 -0.0504
 9329TIP3    H149478   6.313   0.644  14.021  0.3191 -0.2559 -1.0307
 9329TIP3    H249479   6.308   0.795  14.032 -1.0527 -0.2892 -0.9714
 9330TIP3   OH249480   5.645   0.809   0.992 -0.2382 -0.3727 -0.5964
 9330TIP3    H149481   5.588   0.775   1.061 -0.2715  1.4211  0.3178
 9330TIP3    H249482   5.611   0.896   0.974  1.5818  0.3510 -0.7436
 9331TIP3   OH249483   3.023   2.985   1.453 -0.7125  0.2855  0.5376
 9331TIP3    H149484   2.953   2.929   1.420 -0.4456  0.3896 -0.2428
 9331TIP3    H249485   3.021   2.974   1.548 -1.4252 -0.1318  0.4793
 9332TIP3   OH249486   2.576   6.414  14.487  0.2682 -0.0704  0.4586
 9332TIP3    H149487   2.484   6.397  14.507  0.5634 -1.4915  0.7357
 9332TIP3    H249488   2.623   6.344  14.532  1.3986 -0.0075 -0.5819
 9333TIP3   OH249489   4.163   3.024   5.073 -0.3422  0.3726  0.3167
 9333TIP3    H149490   4.219   2.971   5.017  1.3475  2.3288  0.0490
 9333TIP3    H249491   4.194   3.007   5.162  0.6022  1.3179  0.1831
 9334TIP3   OH249492   1.387   0.269   0.584 -0.6843  0.0524 -0.1673
 9334TIP3    H149493   1.310   0.260   0.640 -1.4573  2.0013 -0.8469
 9334TIP3    H249494   1.418   0.358   0.600 -0.4709  0.3974 -2.2332
 9335TIP3   OH249495   5.904   4.474  11.793  0.3939  0.3485 -0.6617
 9335TIP3    H149496   5.809   4.483  11.793  0.4522  1.3471  1.1046
 9335TIP3    H249497   5.919   4.382  11.772 -1.0415 -0.2886  0.8934
 9336TIP3   OH249498   5.378   6.425   3.155 -0.0594 -0.4653 -0.4468
 9336TIP3    H149499   5.445   6.415   3.087  0.2106 -1.7170 -0.0229
 9336TIP3    H249500   5.417   6.484   3.219 -0.4111  0.9341 -1.4620
 9337TIP3   OH249501   5.512   4.168  13.283  0.4328  0.0752 -0.4863
 9337TIP3    H149502   5.472   4.229  13.221  2.2357  0.0301 -1.7654
 9337TIP3    H249503   5.443   4.151  13.348 -1.3581  0.5184 -2.1816
 9338TIP3   OH249504   2.853   6.720  14.215 -0.2699 -0.2345 -0.0697
 9338TIP3    H149505   2.817   6.693  14.299  0.0176  1.5116  0.6420
 9338TIP3    H249506   2.778   6.754  14.166 -0.5116 -1.6141 -0.7149
 9339TIP3   OH249507   6.481   0.316  12.094 -0.0464 -0.1852  0.0015
 9339TIP3    H149508   6.448   0.368  12.167  0.9354  1.8641 -0.9369
 9339TIP3    H249509   6.553   0.265  12.131 -1.3628 -1.4011  1.0552
 9340TIP3   OH249510   6.829   6.347  10.879 -0.0502  1.2036 -0.3783
 9340TIP3    H149511   6.882   6.418  10.844  0.5893  1.4083  0.9569
 9340TIP3    H249512   6.794   6.303  10.801  0.1203  2.5277 -1.2324
 9341TIP3   OH249513   5.841   3.036   2.419 -0.2227 -0.1021  0.0543
 9341TIP3    H149514   5.858   2.995   2.334 -0.7067  1.3333 -0.7639
 9341TIP3    H249515   5.750   3.065   2.414  0.0839  1.0069  0.6276
 9342TIP3   OH249516   2.530   1.613   1.773 -0.4226  0.0831 -0.5419
 9342TIP3    H149517   2.484   1.644   1.695 -0.2745  4.3614  0.8470
 9342TIP3    H249518   2.584   1.687   1.800  2.2314 -2.4391  1.7140
 9343TIP3   OH249519   5.718   6.080   2.914  0.3648  0.2166 -0.4405
 9343TIP3    H149520   5.683   6.034   2.991  2.7738  0.0030  0.6291
 9343TIP3    H249521   5.777   6.146   2.951  1.8940 -0.1504 -2.1203
 9344TIP3   OH249522   5.731   3.009  14.407 -0.1322 -0.0984 -0.4924
 9344TIP3    H149523   5.698   2.959  14.332 -0.7211 -0.2301 -0.1485
 9344TIP3    H249524   5.810   3.052  14.374 -0.8631  0.5484 -1.4545
 9345TIP3   OH249525   0.987   2.857   0.466 -0.4283  0.3029  0.3410
 9345TIP3    H149526   1.032   2.942   0.460 -0.5547  0.3732  0.3898
 9345TIP3    H249527   0.981   2.840   0.560  1.5562 -0.7978  0.3231
 9346TIP3   OH249528   4.899   0.178   5.597  0.5014  0.0619 -0.4776
 9346TIP3    H149529   4.885   0.242   5.528 -0.3107  0.3011 -0.1061
 9346TIP3    H249530   4.811   0.148   5.620  0.8523 -0.9900 -0.4564
 9347TIP3   OH249531   0.191   0.170  16.830  0.1698  0.0026  0.0203
 9347TIP3    H149532   0.236   0.194  16.911 -1.2254 -0.5643  0.9960
 9347TIP3    H249533   0.134   0.245  16.811 -0.4969 -0.4213  0.3177
 9348TIP3   OH249534   4.156   6.063  16.881  0.6141  0.3144  0.3742
 9348TIP3    H149535   4.186   6.040  16.969  1.3961 -0.2137 -0.0171
 9348TIP3    H249536   4.154   6.159  16.881 -2.7599  0.3815  2.0487
 9349TIP3   OH249537   6.483   0.965  16.970  0.9716 -0.2002 -0.2233
 9349TIP3    H149538   6.456   0.904  17.039 -1.3458  0.8883 -0.0659
 9349TIP3    H249539   6.481   1.050  17.013  1.8715  0.2364 -1.0419
 9350TIP3   OH249540   4.827   2.904  11.841 -0.3456 -0.3283 -0.0019
 9350TIP3    H149541   4.741   2.862  11.846 -1.5201  2.0414  1.3166
 9350TIP3    H249542   4.836   2.953  11.923  1.8535  0.2620 -0.5094
 9351TIP3   OH249543   6.483   3.335   0.894 -0.5225  0.2224 -0.1555
 9351TIP3    H149544   6.474   3.262   0.832 -1.7235  0.5216 -0.3714
 9351TIP3    H249545   6.443   3.410   0.848  0.4570  0.9583  0.1616
 9352TIP3   OH249546   5.983   1.037   1.742  0.3694 -0.8811  0.6276
 9352TIP3    H149547   6.010   1.023   1.652 -0.0120 -0.3432  0.4265
 9352TIP3    H249548   5.931   0.960   1.764 -0.4664 -0.5044  0.0185
 9353TIP3   OH249549   6.301   3.512   0.203  0.1658 -0.2772  0.4715
 9353TIP3    H149550   6.359   3.582   0.231  0.3028  0.2628 -1.0701
 9353TIP3    H249551   6.291   3.525   0.109 -0.8347 -1.5706  0.3665
 9354TIP3   OH249552   3.844   1.373  15.070 -0.6108 -0.1058 -0.4432
 9354TIP3    H149553   3.872   1.328  14.991  1.3921  0.9346 -0.3914
 9354TIP3    H249554   3.816   1.460  15.040  1.2022  0.7041  0.0087
 9355TIP3   OH249555   4.106   5.037  11.829  0.2310  0.0065  0.5873
 9355TIP3    H149556   4.021   5.037  11.785  0.1828 -0.6753  0.6688
 9355TIP3    H249557   4.131   5.129  11.835  0.6690  0.0856 -1.7015
 9356TIP3   OH249558   6.383   0.754   4.373  0.1854  0.2956 -0.2673
 9356TIP3    H149559   6.455   0.726   4.316 -1.1847 -2.9423 -0.6067
 9356TIP3    H249560   6.420   0.753   4.461  0.8102 -0.3861 -0.5312
 9357TIP3   OH249561   2.889   4.223  11.157 -0.3729 -0.5724 -0.0931
 9357TIP3    H149562   2.955   4.160  11.128  0.3178 -0.9181  2.0796
 9357TIP3    H249563   2.820   4.170  11.198  0.3058  0.0051  1.9264
 9358TIP3   OH249564   3.244   4.863   1.313  0.0116 -0.3308 -0.1347
 9358TIP3    H149565   3.311   4.795   1.322 -0.0743 -0.6255 -1.5580
 9358TIP3    H249566   3.288   4.944   1.338  0.7900 -0.5806 -0.6838
 9359TIP3   OH249567   4.801   2.610  16.923  0.4937  0.7119 -0.2237
 9359TIP3    H149568   4.874   2.564  16.882 -0.2870 -0.0009 -0.8466
 9359TIP3    H249569   4.827   2.703  16.920 -0.1244  0.9377 -3.8147
 9360TIP3   OH249570   6.160   5.143  14.616 -0.3162  0.0857 -0.2306
 9360TIP3    H149571   6.212   5.213  14.657  1.2825 -1.3670  0.3372
 9360TIP3    H249572   6.204   5.127  14.533 -2.9400  2.3008 -2.2492
 9361TIP3   OH249573   6.661   5.338  11.288  0.3979  0.3730 -0.2162
 9361TIP3    H149574   6.695   5.402  11.351  0.3428 -1.4294  1.7562
 9361TIP3    H249575   6.734   5.322  11.227  1.1090  0.7905  0.5121
 9362TIP3   OH249576   4.121   5.795   4.188  0.1050 -0.0123  0.1002
 9362TIP3    H149577   4.209   5.763   4.170 -0.5283 -1.0827 -1.2658
 9362TIP3    H249578   4.101   5.761   4.276  0.1677 -1.8516 -0.5519
 9363TIP3   OH249579   2.830   1.693  11.304  0.0320  0.1019 -0.2634
 9363TIP3    H149580   2.880   1.773  11.290 -1.0612  1.0541  1.0067
 9363TIP3    H249581   2.895   1.628  11.329  0.6943  1.2510  1.1513
 9364TIP3   OH249582   6.504   6.031   5.398  0.0020 -0.3797 -0.1151
 9364TIP3    H149583   6.445   6.030   5.322  0.6345  2.5798 -0.7786
 9364TIP3    H249584   6.589   6.056   5.362  0.0777  2.2727  1.6110
 9365TIP3   OH249585   4.971   1.028  10.737  0.1253  0.3188 -0.3423
 9365TIP3    H149586   4.901   1.038  10.673  0.3413 -1.0115 -0.8185
 9365TIP3    H249587   5.005   1.116  10.750 -3.1164  1.4383  1.6641
 9366TIP3   OH249588   5.306   2.661  11.697 -0.5672  0.4941  0.2598
 9366TIP3    H149589   5.214   2.649  11.671 -0.3745  0.9918 -0.6906
 9366TIP3    H249590   5.331   2.578  11.736 -1.8260  0.7893  1.8011
 9367TIP3   OH249591   4.876   3.874   4.186 -0.1993 -0.2183  0.3118
 9367TIP3    H149592   4.844   3.961   4.164  1.4977  0.0930 -1.2161
 9367TIP3    H249593   4.903   3.836   4.102  0.7389 -1.5016  1.1442
 9368TIP3   OH249594   5.798   0.328   5.484 -0.3215 -0.4168 -0.2119
 9368TIP3    H149595   5.786   0.407   5.433 -1.8958  0.3021  1.1730
 9368TIP3    H249596   5.719   0.276   5.469  1.3027 -2.5266 -2.2828
 9369TIP3   OH249597   4.273   4.128   5.663 -0.1089 -0.0343  0.3775
 9369TIP3    H149598   4.285   4.114   5.757  0.3861  0.5816  0.4135
 9369TIP3    H249599   4.254   4.041   5.628  1.9005 -0.6619  0.7161
 9370TIP3   OH249600   5.417   2.459   1.634 -0.2697 -0.2783  0.3726
 9370TIP3    H149601   5.431   2.412   1.551  0.9275  0.0128  0.3841
 9370TIP3    H249602   5.323   2.453   1.650 -0.5840 -0.0367 -1.1994
 9371TIP3   OH249603   1.860   0.496   4.145 -0.0980 -0.0204 -0.0533
 9371TIP3    H149604   1.863   0.546   4.064 -0.0306 -2.0592 -1.3794
 9371TIP3    H249605   1.950   0.464   4.157  0.2860  1.5411  1.7334
 9372TIP3   OH249606   0.571   2.972   5.069  0.1374  1.1713 -0.3631
 9372TIP3    H149607   0.618   2.889   5.061 -2.0974 -0.7337  3.1872
 9372TIP3    H249608   0.624   3.023   5.131 -0.7835  0.3235  1.1820
 9373TIP3   OH249609   5.349   3.106   1.209  1.0333  0.9894  0.4054
 9373TIP3    H149610   5.359   3.178   1.270 -1.6490  0.0679  2.1050
 9373TIP3    H249611   5.261   3.117   1.173  0.3708 -1.5889  1.0333
 9374TIP3   OH249612   5.174   3.056  13.232  0.7684  0.3081  0.1213
 9374TIP3    H149613   5.129   3.134  13.266  2.3132  1.7580 -0.9469
 9374TIP3    H249614   5.262   3.063  13.267  1.0722 -0.6808 -0.4377
 9375TIP3   OH249615   4.271   4.929   5.976  0.0785 -0.2274 -0.3682
 9375TIP3    H149616   4.206   4.859   5.979 -0.5728  0.3529 -0.5959
 9375TIP3    H249617   4.354   4.886   5.996  0.2953 -1.7108 -3.7636
 9376TIP3   OH249618   2.697   0.983   0.473 -0.1129  0.2265  0.1954
 9376TIP3    H149619   2.618   0.930   0.464 -0.2951  0.5556 -0.1860
 9376TIP3    H249620   2.765   0.921   0.501 -0.3527 -0.1837 -0.1123
 9377TIP3   OH249621   4.590   0.415  12.154 -0.2670  0.2358  0.0874
 9377TIP3    H149622   4.614   0.390  12.065 -1.6077  0.5616 -0.3763
 9377TIP3    H249623   4.578   0.331  12.200  1.4613  0.0575  0.2828
 9378TIP3   OH249624   0.382   5.696   5.407  0.1314 -0.1027  0.3605
 9378TIP3    H149625   0.476   5.712   5.404  0.1834 -0.3435  0.7162
 9378TIP3    H249626   0.362   5.655   5.323  0.1995  0.7041 -0.0642
 9379TIP3   OH249627   0.131   2.571   0.433  0.0420  0.1169 -0.1265
 9379TIP3    H149628   0.094   2.521   0.506  2.3872 -0.0860  1.0025
 9379TIP3    H249629   0.162   2.505   0.372 -2.3088  0.2830 -1.6261
 9380TIP3   OH249630   1.346   5.627   6.550  0.5778 -0.0572  0.0636
 9380TIP3    H149631   1.268   5.624   6.606  1.3003  1.9011  1.2850
 9380TIP3    H249632   1.313   5.609   6.462 -0.8595 -1.6058  0.8552
 9381TIP3   OH249633   3.476   2.305  13.253 -0.2579 -0.1280  0.5869
 9381TIP3    H149634   3.517   2.382  13.291  0.7183 -0.6122  0.5531
 9381TIP3    H249635   3.393   2.337  13.218 -0.1529  0.7728  1.1215
 9382TIP3   OH249636   0.449   1.471  15.971  0.0548  0.0741 -0.0274
 9382TIP3    H149637   0.543   1.490  15.965  0.2110 -0.1611  1.3204
 9382TIP3    H249638   0.408   1.536  15.914  1.0451 -0.0061 -0.8686
 9383TIP3   OH249639   4.642   0.240   3.133 -0.3032  0.0010 -0.5729
 9383TIP3    H149640   4.621   0.330   3.159  1.3794  0.1747  0.2786
 9383TIP3    H249641   4.735   0.230   3.150 -0.1064 -1.4325 -2.1209
 9384TIP3   OH249642   5.393   4.809   5.151  0.0255  0.9777 -0.5701
 9384TIP3    H149643   5.350   4.795   5.235  0.6892 -0.2738 -0.4116
 9384TIP3    H249644   5.347   4.883   5.112  0.0597  1.9426  1.1232
 9385TIP3   OH249645   2.133   6.500  15.522 -0.2762  0.0159  0.3020
 9385TIP3    H149646   2.161   6.592  15.516 -0.5388  0.1111  0.5144
 9385TIP3    H249647   2.136   6.480  15.615 -2.7135  0.6105  0.5903
 9386TIP3   OH249648   0.205   0.764  13.929  0.2537 -0.2403 -0.1797
 9386TIP3    H149649   0.210   0.852  13.966 -0.5345  0.0047 -0.6165
 9386TIP3    H249650   0.180   0.779  13.837 -3.5500 -0.9991  0.5676
 9387TIP3   OH249651   2.021   2.661  12.666 -0.4305 -0.0984  0.2069
 9387TIP3    H149652   2.107   2.668  12.707 -0.9790 -1.4447  1.6948
 9387TIP3    H249653   2.009   2.745  12.621  1.3519  0.3771  0.5334
 9388TIP3   OH249654   1.125   1.095   4.045 -0.1127  0.1512  0.3768
 9388TIP3    H149655   1.196   1.080   4.107  0.4140  1.4744  0.1177
 9388TIP3    H249656   1.048   1.107   4.100 -0.3897 -2.2787  0.6383
 9389TIP3   OH249657   5.115   2.590  13.479  0.0898  0.7545  0.3280
 9389TIP3    H149658   5.067   2.672  13.465 -1.4461  0.3968  2.8194
 9389TIP3    H249659   5.046   2.523  13.487  1.2664 -0.6538 -0.7985
 9390TIP3   OH249660   0.633   6.119   5.643  0.0643 -0.3979  0.2956
 9390TIP3    H149661   0.714   6.148   5.687  0.5368  1.8846 -1.8928
 9390TIP3    H249662   0.563   6.166   5.688 -0.1213 -2.1526  1.9978
 9391TIP3   OH249663   2.396   6.514  13.441  0.0762  0.2352 -0.4375
 9391TIP3    H149664   2.336   6.441  13.429  1.9741 -1.3029 -1.1869
 9391TIP3    H249665   2.382   6.543  13.531 -1.4509 -0.3393 -0.4667
 9392TIP3   OH249666   0.980   2.252   0.014  0.3656 -0.7413 -0.0972
 9392TIP3    H149667   0.931   2.226  -0.065  2.2059 -0.6752 -1.3133
 9392TIP3    H249668   0.965   2.346   0.020  0.2002 -0.7470 -0.3531
 9393TIP3   OH249669   1.692   1.932  11.776 -0.1110 -0.3631  0.5764
 9393TIP3    H149670   1.660   1.866  11.715 -0.1753 -1.4764  1.7564
 9393TIP3    H249671   1.673   1.895  11.863  1.8146  0.2070  1.2924
 9394TIP3   OH249672   5.541   2.651  16.171 -0.0635  0.2003 -0.0215
 9394TIP3    H149673   5.573   2.574  16.124 -1.2424  0.6213 -1.6006
 9394TIP3    H249674   5.583   2.725  16.128 -0.5577  0.5577  0.0994
 9395TIP3   OH249675   1.622   4.684   5.683  0.0040  0.2702  0.6801
 9395TIP3    H149676   1.559   4.699   5.611 -0.7233  1.2492  1.4844
 9395TIP3    H249677   1.586   4.610   5.731  1.9798 -2.3369 -1.5171
 9396TIP3   OH249678   3.512   3.363  14.917 -0.0989 -0.4848 -0.0010
 9396TIP3    H149679   3.489   3.367  14.824 -0.1055  0.1692  0.0224
 9396TIP3    H249680   3.467   3.285  14.950  1.8972 -2.2211 -1.0888
 9397TIP3   OH249681   5.357   0.791  15.902 -0.3685  0.1464  0.1273
 9397TIP3    H149682   5.355   0.775  15.997  0.3305 -1.3879 -0.0795
 9397TIP3    H249683   5.298   0.725  15.866 -2.0881  1.8800 -0.4249
 9398TIP3   OH249684   0.767   1.617   3.813 -0.5240  0.2813  0.4846
 9398TIP3    H149685   0.767   1.703   3.854 -1.2305  0.3529  0.3536
 9398TIP3    H249686   0.678   1.607   3.778 -0.3688 -0.3838  0.2590
 9399TIP3   OH249687   3.163   0.270  11.617  0.1635 -0.4455 -0.3558
 9399TIP3    H149688   3.253   0.272  11.652 -0.4513 -0.9888  1.3964
 9399TIP3    H249689   3.145   0.176  11.606 -0.8144 -0.4660  1.1428
 9400TIP3   OH249690   1.902   1.210  16.808 -0.5940 -0.6764  0.0752
 9400TIP3    H149691   1.924   1.117  16.806 -0.8612 -0.7295 -0.7676
 9400TIP3    H249692   1.823   1.215  16.862  0.0561 -0.7897  1.0509
 9401TIP3   OH249693   2.407   3.346   1.851 -0.4086 -0.8164  0.4341
 9401TIP3    H149694   2.490   3.315   1.889 -0.6344 -0.4380  1.2651
 9401TIP3    H249695   2.432   3.382   1.766  0.0416 -2.1085  0.0036
 9402TIP3   OH249696   3.257   4.839  13.069 -0.2790  0.2771 -0.1893
 9402TIP3    H149697   3.262   4.929  13.036 -0.6443  0.2352 -0.3700
 9402TIP3    H249698   3.343   4.802  13.050 -0.7710 -0.0476 -2.0218
 9403TIP3   OH249699   2.256   0.876   0.120 -0.1425 -0.2630 -0.0324
 9403TIP3    H149700   2.245   0.885   0.215 -2.3713  1.0082 -0.3286
 9403TIP3    H249701   2.313   0.800   0.109 -0.6015 -1.0287  2.3088
 9404TIP3   OH249702   4.192   5.146   1.625  0.2033 -0.5330  0.5947
 9404TIP3    H149703   4.236   5.061   1.624  2.2779  0.4625  1.5378
 9404TIP3    H249704   4.255   5.205   1.665 -0.8236  1.6816 -0.8813
 9405TIP3   OH249705   2.114   2.557  16.342  0.1577 -0.0072 -0.0355
 9405TIP3    H149706   2.196   2.593  16.308 -0.1302  1.0571  0.3567
 9405TIP3    H249707   2.053   2.632  16.343 -0.9178 -0.8365 -0.6127
 9406TIP3   OH249708   1.251   0.384   5.190  0.2468 -0.4954  0.1856
 9406TIP3    H149709   1.317   0.444   5.154  0.6188 -0.2147  1.3038
 9406TIP3    H249710   1.272   0.299   5.149  1.2261 -0.3793  0.4195
 9407TIP3   OH249711   3.299   0.033   2.024 -0.4539 -0.4763 -0.6051
 9407TIP3    H149712   3.249   0.076   2.093 -0.3910  0.6122 -1.2127
 9407TIP3    H249713   3.266   0.071   1.943  1.1489  0.0810 -1.0381
 9408TIP3   OH249714   3.841   2.949   5.951  0.2814 -0.6869  0.0042
 9408TIP3    H149715   3.822   2.858   5.927  1.2310 -1.3194  1.4753
 9408TIP3    H249716   3.909   2.977   5.890  1.1662 -1.5392  0.5809
 9409TIP3   OH249717   5.276   4.028  12.522 -0.2526  0.4751  0.5678
 9409TIP3    H149718   5.259   3.936  12.500  0.0667  0.2338  1.3096
 9409TIP3    H249719   5.336   4.057  12.453  0.6963 -0.2564  1.0649
 9410TIP3   OH249720   6.479   4.561   6.900  0.9658 -0.0023 -0.4702
 9410TIP3    H149721   6.572   4.574   6.918  0.9495  1.3167 -1.1624
 9410TIP3    H249722   6.463   4.612   6.820 -0.4748  0.3349 -0.0025
 9411TIP3   OH249723   1.825   4.050  13.647 -0.5949 -0.0810  0.1663
 9411TIP3    H149724   1.907   4.033  13.692  1.2634  3.0237 -1.7633
 9411TIP3    H249725   1.758   4.019  13.708  1.8839 -0.9502  2.6599
 9412TIP3   OH249726   0.219   3.362  15.516  0.1616  0.1716  0.7964
 9412TIP3    H149727   0.177   3.398  15.438 -0.8802 -1.0915  0.7460
 9412TIP3    H249728   0.205   3.428  15.584  1.4819  1.4966 -0.1473
 9413TIP3   OH249729   4.333   2.114  16.200 -0.0948  0.1694  0.2555
 9413TIP3    H149730   4.351   2.194  16.151  2.9030  0.8360  2.1711
 9413TIP3    H249731   4.353   2.043  16.139  0.2355  0.9190 -0.5193
 9414TIP3   OH249732   3.691   0.986   5.029  0.2414  0.3330 -0.3372
 9414TIP3    H149733   3.675   0.933   4.951 -0.3648  1.7715 -1.2309
 9414TIP3    H249734   3.619   0.965   5.088  0.1974 -0.0943 -0.5395
 9415TIP3   OH249735   2.170   4.115  11.736  0.3736  0.5535  0.1674
 9415TIP3    H149736   2.178   4.194  11.681 -1.4654  0.3839 -0.4270
 9415TIP3    H249737   2.174   4.148  11.825  2.5923  0.9319 -0.0024
 9416TIP3   OH249738   2.368   5.500   1.358  0.7797  0.4960  1.0200
 9416TIP3    H149739   2.365   5.514   1.452  0.7157 -0.6212  1.1947
 9416TIP3    H249740   2.279   5.477   1.333  0.9763 -0.0600  0.8248
 9417TIP3   OH249741   1.324   0.492  13.535  0.2391 -0.1419  0.5012
 9417TIP3    H149742   1.235   0.491  13.498 -0.1538  1.8560  1.2545
 9417TIP3    H249743   1.328   0.414  13.589 -0.9923 -0.3952  0.2616
 9418TIP3   OH249744   0.458   5.491  17.203 -0.2527 -0.9567 -0.0065
 9418TIP3    H149745   0.548   5.509  17.230 -0.4522  0.6064 -0.2826
 9418TIP3    H249746   0.443   5.550  17.130 -2.9551  2.4018  2.8838
 9419TIP3   OH249747   6.729   2.436  15.868  0.0283 -0.2339 -0.0836
 9419TIP3    H149748   6.806   2.429  15.924  0.7913  0.3953 -1.0269
 9419TIP3    H249749   6.671   2.367  15.899  1.1722 -1.0408  0.3285
 9420TIP3   OH249750   5.868   6.111  13.351 -0.2260  0.3727  0.3890
 9420TIP3    H149751   5.781   6.141  13.378 -0.2685 -1.3042  2.4099
 9420TIP3    H249752   5.880   6.028  13.397  0.9681 -1.3488 -2.7244
 9421TIP3   OH249753   1.743   1.064   0.452  0.4666 -0.0010  0.4800
 9421TIP3    H149754   1.786   1.011   0.384 -0.2529 -0.2480  0.2070
 9421TIP3    H249755   1.740   1.152   0.415  0.1963 -0.1086  0.2402
 9422TIP3   OH249756   4.741   0.769   2.637  0.2800  0.6750 -0.2495
 9422TIP3    H149757   4.834   0.785   2.654  0.0495  1.0579  0.7454
 9422TIP3    H249758   4.715   0.707   2.706  0.6163 -2.3710 -2.6156
 9423TIP3   OH249759   2.377   4.660   3.947 -0.2475 -0.0092 -0.0530
 9423TIP3    H149760   2.300   4.619   3.985  0.5573  0.2024  1.8954
 9423TIP3    H249761   2.374   4.634   3.855 -1.5156 -1.6953  0.4055
 9424TIP3   OH249762   3.468   1.426   1.593  0.2989 -0.3075 -0.4431
 9424TIP3    H149763   3.432   1.409   1.506 -0.8866  1.4104 -0.3341
 9424TIP3    H249764   3.463   1.521   1.603  0.7507 -0.4426  1.3573
 9425TIP3   OH249765   3.369   5.184  13.238  0.7185  0.2393  0.6991
 9425TIP3    H149766   3.322   5.267  13.242 -2.6949 -1.4648 -0.1770
 9425TIP3    H249767   3.340   5.145  13.155  3.8641 -0.9882  0.0622
 9426TIP3   OH249768   5.812   1.517  11.275  0.0632  0.5653  0.2153
 9426TIP3    H149769   5.737   1.493  11.221 -0.0081 -2.6787  1.5588
 9426TIP3    H249770   5.860   1.581  11.221 -3.1701  2.2488 -0.9659
 9427TIP3   OH249771   0.849   0.534  15.692 -0.8659  0.0100 -0.4067
 9427TIP3    H149772   0.757   0.529  15.667 -1.0408 -0.1301  0.2423
 9427TIP3    H249773   0.869   0.448  15.730 -0.8585  0.4802  0.7083
 9428TIP3   OH249774   0.485   2.332   2.813 -0.2083 -0.1953 -0.9016
 9428TIP3    H149775   0.554   2.396   2.798 -0.0920  0.4312  1.6954
 9428TIP3    H249776   0.523   2.249   2.786  1.0008  0.3451 -0.9382
 9429TIP3   OH249777   3.819   6.687  16.949 -0.0117  0.1356  0.5888
 9429TIP3    H149778   3.911   6.702  16.925  0.0442  1.1833  1.3864
 9429TIP3    H249779   3.771   6.755  16.901 -0.3960 -0.4976  0.0645
 9430TIP3   OH249780   2.578   4.903   1.796  0.3997  0.1743  0.5489
 9430TIP3    H149781   2.631   4.874   1.722  0.6242  0.1025  0.7361
 9430TIP3    H249782   2.622   4.983   1.827  0.6199 -0.0921  0.9388
 9431TIP3   OH249783   4.563   6.695   0.223  0.8154 -0.1089  0.0674
 9431TIP3    H149784   4.624   6.749   0.273  0.4928 -0.1684  0.5316
 9431TIP3    H249785   4.496   6.669   0.286  0.1165  0.2393 -0.5065
 9432TIP3   OH249786   3.603   2.882   0.803  0.0305  0.0816  0.3469
 9432TIP3    H149787   3.677   2.828   0.831  0.8183  0.9248 -0.0760
 9432TIP3    H249788   3.643   2.955   0.756 -1.0197  1.0588  0.9426
 9433TIP3   OH249789   2.659   1.504  15.111 -0.5337  0.4918 -0.0042
 9433TIP3    H149790   2.708   1.584  15.127  1.1401 -0.4746 -0.1077
 9433TIP3    H249791   2.611   1.522  15.029 -0.2238  1.3958  0.0003
 9434TIP3   OH249792   3.925   4.116  17.024  0.0051  0.4957  0.7798
 9434TIP3    H149793   3.923   4.185  16.957  1.2811  0.2386  0.4601
 9434TIP3    H249794   3.969   4.156  17.098 -0.3966  0.4149  1.0652
 9435TIP3   OH249795   2.707   1.231  13.854 -0.0544  0.3250  0.4832
 9435TIP3    H149796   2.787   1.284  13.849  0.0004  0.1610 -1.3462
 9435TIP3    H249797   2.639   1.289  13.819 -0.2747 -0.2827 -0.1261
 9436TIP3   OH249798   5.638   1.797   5.557  0.6327 -0.3679 -0.3662
 9436TIP3    H149799   5.641   1.701   5.560  0.2510 -0.4069 -1.0670
 9436TIP3    H249800   5.638   1.818   5.464  1.4902  0.3478 -0.2177
 9437TIP3   OH249801   1.591   3.561   3.234  0.5192 -0.5316  0.2460
 9437TIP3    H149802   1.528   3.553   3.162 -1.4582 -0.7919  1.8993
 9437TIP3    H249803   1.652   3.628   3.205 -1.0884  0.4427 -1.0793
 9438TIP3   OH249804   2.186   3.147   3.222 -0.5491  0.2692 -0.2626
 9438TIP3    H149805   2.237   3.164   3.143  0.1560 -0.5355  0.0036
 9438TIP3    H249806   2.098   3.129   3.190  0.1539 -2.1126 -1.1017
 9439TIP3   OH249807   3.927   4.930   6.012  0.2344  0.3110  0.2174
 9439TIP3    H149808   3.891   4.941   5.924 -1.0481 -0.8784  0.5561
 9439TIP3    H249809   3.965   4.842   6.011  0.6834  0.4940  0.7198
 9440TIP3   OH249810   3.286   4.318  13.464 -0.6422  0.0532 -0.4200
 9440TIP3    H149811   3.343   4.313  13.387 -1.6587  0.7966 -1.2442
 9440TIP3    H249812   3.321   4.391  13.515  0.2044 -0.6195 -0.0130
 9441TIP3   OH249813   0.458   0.843   4.061  0.2443 -0.2757 -0.8109
 9441TIP3    H149814   0.460   0.790   3.982  2.0303  0.5201 -1.3673
 9441TIP3    H249815   0.476   0.781   4.132  0.2221 -0.7399 -1.2070
 9442TIP3   OH249816   3.369   3.285   4.532  0.2697  0.3388  0.6483
 9442TIP3    H149817   3.296   3.278   4.594 -0.7176 -1.8541 -0.6646
 9442TIP3    H249818   3.392   3.195   4.512  1.6825  1.0037 -0.9009
 9443TIP3   OH249819   6.054   1.905  15.379  0.5293  0.3335  0.4178
 9443TIP3    H149820   6.018   1.936  15.462  0.5430 -0.5550  0.7677
 9443TIP3    H249821   6.133   1.857  15.403 -1.9213 -4.2173  0.5375
 9444TIP3   OH249822   3.663   3.432  13.322 -0.5407  0.2689 -0.4675
 9444TIP3    H149823   3.654   3.392  13.236  1.8967 -0.7956 -0.3023
 9444TIP3    H249824   3.745   3.396  13.357  0.4640  3.4497  0.7775
 9445TIP3   OH249825   1.116   1.945  17.151  0.7275  0.0571 -0.0715
 9445TIP3    H149826   1.083   2.032  17.132  1.5627  0.1883 -1.0350
 9445TIP3    H249827   1.077   1.889  17.083 -0.9542 -0.6235  1.3854
 9446TIP3   OH249828   3.516   4.536  14.727 -0.1158 -0.2081  0.6131
 9446TIP3    H149829   3.435   4.537  14.778 -0.8545 -2.4623 -0.4169
 9446TIP3    H249830   3.577   4.483  14.779 -0.4907 -1.5144 -0.2307
 9447TIP3   OH249831   2.840   6.454  12.043 -0.2839  0.0165  0.6397
 9447TIP3    H149832   2.773   6.511  12.005 -0.4097 -1.0511 -0.8267
 9447TIP3    H249833   2.808   6.365  12.026  2.2076 -0.5601 -1.5136
 9448TIP3   OH249834   6.496   3.395  12.619  0.3990  0.1013 -0.1846
 9448TIP3    H149835   6.429   3.392  12.688 -0.0429  1.3702 -0.5331
 9448TIP3    H249836   6.486   3.311  12.573 -1.4187  0.5134 -0.6445
 9449TIP3   OH249837   0.637   2.718  16.755 -0.7220  0.2989 -0.3326
 9449TIP3    H149838   0.709   2.725  16.692  1.3337 -1.4125  1.6565
 9449TIP3    H249839   0.632   2.804  16.796 -1.8992  1.3472 -2.5182
 9450TIP3   OH249840   6.307   3.062   4.842  0.9385  0.0803  0.1715
 9450TIP3    H149841   6.302   3.139   4.898  3.2238  0.1589  0.3543
 9450TIP3    H249842   6.299   2.988   4.902  3.5296  0.1608  0.7375
 9451TIP3   OH249843   2.740   2.233  14.420 -0.1555 -0.7158 -0.6846
 9451TIP3    H149844   2.809   2.297  14.405 -0.1732 -0.5324 -0.0172
 9451TIP3    H249845   2.659   2.282  14.405 -0.1485 -0.9757 -1.6382
 9452TIP3   OH249846   1.847   1.814  12.976  0.4505 -0.1886  0.4027
 9452TIP3    H149847   1.829   1.814  12.882 -0.0192  1.2677  0.4625
 9452TIP3    H249848   1.837   1.722  13.002  0.3860 -0.5861 -0.9177
 9453TIP3   OH249849   5.620   3.465   2.395 -0.1289  0.1856  0.6378
 9453TIP3    H149850   5.542   3.452   2.448 -1.0326  0.2799 -0.6232
 9453TIP3    H249851   5.625   3.560   2.381 -0.4453  0.0836 -0.2203
 9454TIP3   OH249852   2.011   4.836  12.988  0.8863  0.0087  0.4733
 9454TIP3    H149853   1.940   4.901  12.989  1.1852  0.3877 -0.6652
 9454TIP3    H249854   2.062   4.855  13.066  1.1259  1.3594  0.0315
 9455TIP3   OH249855   2.863   4.758   4.657  0.0135 -0.4810  0.0159
 9455TIP3    H149856   2.885   4.848   4.681 -1.1401 -0.2238  0.1363
 9455TIP3    H249857   2.807   4.726   4.727 -1.6439 -0.4388 -1.2298
 9456TIP3   OH249858   3.146   1.070   0.846  0.5457  0.0918  0.4756
 9456TIP3    H149859   3.204   1.053   0.771  0.0881 -0.7370  0.3001
 9456TIP3    H249860   3.107   0.985   0.866  0.1373  0.4454  1.2252
 9457TIP3   OH249861   4.275   5.253  14.058 -0.3862  0.1870 -0.8621
 9457TIP3    H149862   4.210   5.290  13.998 -1.0606 -1.1094 -0.9659
 9457TIP3    H249863   4.355   5.303  14.041 -1.4882  2.2968 -0.2650
 9458TIP3   OH249864   5.747   3.054  10.831  0.2365 -1.0426  0.0713
 9458TIP3    H149865   5.761   2.976  10.778  0.4541  0.4429 -2.1575
 9458TIP3    H249866   5.684   3.106  10.782  0.8843  0.6758  0.9871
 9459TIP3   OH249867   4.294   1.678  15.723  0.0567 -0.1583 -0.3313
 9459TIP3    H149868   4.344   1.609  15.682  0.6454 -0.7828  1.3391
 9459TIP3    H249869   4.224   1.633  15.770 -0.9382  0.5620 -1.0815
 9460TIP3   OH249870   0.591   3.188   0.302  0.4636 -0.2556 -0.0712
 9460TIP3    H149871   0.598   3.206   0.396  0.5177 -0.4420 -0.0376
 9460TIP3    H249872   0.498   3.170   0.288 -0.2862  3.3446 -0.7254
 9461TIP3   OH249873   3.869   6.708   1.568 -0.1201  0.2463 -0.1848
 9461TIP3    H149874   3.779   6.680   1.582 -0.2983  0.9559  0.0881
 9461TIP3    H249875   3.917   6.674   1.644  0.1987 -1.6153 -1.1466
 9462TIP3   OH249876   1.279   2.385  17.087  0.6200 -0.5402 -0.3317
 9462TIP3    H149877   1.345   2.409  17.022  1.6521 -1.4919  0.3206
 9462TIP3    H249878   1.278   2.289  17.085 -0.8134 -0.5345 -0.3750
 9463TIP3   OH249879   5.068   3.837   2.022 -0.3937  0.0846 -0.1414
 9463TIP3    H149880   5.139   3.902   2.022 -0.5340  0.2636 -1.1149
 9463TIP3    H249881   5.109   3.757   1.990  0.1765 -0.8234  2.6402
 9464TIP3   OH249882   2.071   3.028  12.323 -0.2263  0.0100 -0.7087
 9464TIP3    H149883   2.022   3.082  12.385 -0.6205 -0.8535 -0.2561
 9464TIP3    H249884   2.023   2.946  12.318  0.6495 -0.5096 -0.9804
 9465TIP3   OH249885   2.014   2.497  12.273  0.3575 -0.6364  0.1602
 9465TIP3    H149886   2.034   2.584  12.306 -0.0532 -0.5974  0.3174
 9465TIP3    H249887   1.965   2.513  12.192 -0.5082 -0.6989  0.6533
 9466TIP3   OH249888   2.115   3.209  13.438 -0.1750 -0.0219  0.1654
 9466TIP3    H149889   2.074   3.217  13.525  0.1609  0.9491  0.2460
 9466TIP3    H249890   2.081   3.284  13.389 -0.1619 -0.4235 -0.4583
 9467TIP3   OH249891   1.388   1.727   4.077  0.1931 -0.5903 -0.1452
 9467TIP3    H149892   1.317   1.663   4.065 -0.1344 -0.5716  1.4460
 9467TIP3    H249893   1.393   1.738   4.172  1.0842  0.8264 -0.3447
 9468TIP3   OH249894   5.838   4.087   3.867 -0.5832  0.5149 -0.5079
 9468TIP3    H149895   5.851   4.027   3.793 -0.7236  0.7532 -0.7268
 9468TIP3    H249896   5.759   4.056   3.909 -0.0670 -0.1126  0.0239
 9469TIP3   OH249897   5.925   3.772  15.361  0.3214  0.2965 -0.4265
 9469TIP3    H149898   5.931   3.861  15.396 -0.4580  0.5661 -0.9500
 9469TIP3    H249899   5.831   3.752  15.362  0.3872 -0.1033 -1.3126
 9470TIP3   OH249900   0.894   0.925   0.119 -0.4478 -0.5051  0.6250
 9470TIP3    H149901   0.902   0.986   0.046 -0.7097  0.5605  1.4592
 9470TIP3    H249902   0.877   0.981   0.195  0.0099 -1.5703  1.5367
 9471TIP3   OH249903   2.704   3.740   1.618 -0.5050  0.3066 -0.1831
 9471TIP3    H149904   2.729   3.719   1.708 -1.6883 -0.7054 -0.0615
 9471TIP3    H249905   2.753   3.679   1.564 -0.3575  0.4105 -0.1653
 9472TIP3   OH249906   6.542   5.845   5.911 -0.3173 -0.0288 -0.3219
 9472TIP3    H149907   6.559   5.905   5.838 -0.6179 -1.6168 -1.7646
 9472TIP3    H249908   6.577   5.761   5.882 -1.0274 -0.8567  1.1026
 9473TIP3   OH249909   5.529   1.365   3.713  0.0650  0.1811 -0.1510
 9473TIP3    H149910   5.550   1.453   3.682 -1.2781  0.8515  0.7366
 9473TIP3    H249911   5.441   1.349   3.680  0.4381 -1.0089 -0.6232
 9474TIP3   OH249912   2.303   6.334   2.740  0.1434  0.5307  0.2464
 9474TIP3    H149913   2.327   6.426   2.745  1.6997  0.1307  0.5212
 9474TIP3    H249914   2.224   6.327   2.794  0.2889  1.6060  0.6175
 9475TIP3   OH249915   3.033   3.741  12.464 -0.1617  0.0159  0.1209
 9475TIP3    H149916   3.102   3.680  12.490 -0.6922 -0.0651  1.3859
 9475TIP3    H249917   3.049   3.819  12.517 -0.8691  0.0992  0.2229
 9476TIP3   OH249918   3.071   0.128   3.228  0.2220 -0.2188 -0.4971
 9476TIP3    H149919   3.102   0.094   3.144  0.1326  0.4383 -0.8002
 9476TIP3    H249920   3.067   0.223   3.216  0.1409 -0.1232  0.2274
 9477TIP3   OH249921   4.333   5.986  16.616  0.0416  0.3837  0.6645
 9477TIP3    H149922   4.310   5.941  16.535  0.7384 -1.5789  1.4857
 9477TIP3    H249923   4.275   6.062  16.619 -2.7171 -1.5451  0.1478
 9478TIP3   OH249924   5.025   0.188  11.097  0.0115 -0.5008 -0.2577
 9478TIP3    H149925   5.030   0.278  11.131  2.3332 -0.5800 -0.2714
 9478TIP3    H249926   5.094   0.183  11.032 -0.3787 -2.1894 -0.5912
 9479TIP3   OH249927   2.938   3.203  16.591 -0.1895 -0.8164 -0.1976
 9479TIP3    H149928   3.012   3.143  16.597 -0.9289 -1.7096  0.4019
 9479TIP3    H249929   2.866   3.148  16.559 -0.8554 -0.2368  0.2839
 9480TIP3   OH249930   0.634   1.342  15.130  0.3108 -0.0009  0.4218
 9480TIP3    H149931   0.682   1.318  15.051  0.8350 -2.4214  1.3957
 9480TIP3    H249932   0.691   1.404  15.175  0.1577  1.1335 -0.8965
 9481TIP3   OH249933   3.331   1.623  16.136  0.0647  0.1892 -1.0173
 9481TIP3    H149934   3.322   1.532  16.165 -0.1883  0.3980 -0.4157
 9481TIP3    H249935   3.241   1.656  16.135  0.3380  1.3619  1.9295
 9482TIP3   OH249936   5.832   1.260   3.472  0.1839 -0.3552  0.1420
 9482TIP3    H149937   5.748   1.218   3.456  0.0729  0.5432 -1.9467
 9482TIP3    H249938   5.897   1.197   3.443  0.0811  0.2303 -1.4127
 9483TIP3   OH249939   4.285   1.911  13.663 -0.1833 -0.3791  0.5087
 9483TIP3    H149940   4.275   1.816  13.674  0.1479 -0.3276  1.2954
 9483TIP3    H249941   4.379   1.927  13.669 -0.2430  0.0122  0.4552
 9484TIP3   OH249942   5.759   5.289   1.297  0.1762  0.4481  0.7675
 9484TIP3    H149943   5.773   5.261   1.207 -1.9169 -1.1986  0.8595
 9484TIP3    H249944   5.669   5.320   1.299  0.6467  1.8463  1.9999
 9485TIP3   OH249945   5.349   5.367   2.044  0.3476  0.1664  0.7336
 9485TIP3    H149946   5.303   5.357   2.128 -1.8446 -0.4513 -0.4608
 9485TIP3    H249947   5.410   5.294   2.041 -1.7445 -1.6996  0.5346
 9486TIP3   OH249948   3.373   4.381  12.231 -0.3047 -0.4199  0.3096
 9486TIP3    H149949   3.396   4.302  12.280 -0.2341  0.4335  1.7021
 9486TIP3    H249950   3.436   4.384  12.159  1.3346 -0.3110  1.6996
 9487TIP3   OH249951   1.021   6.601  12.963 -0.7753  0.0048 -0.1241
 9487TIP3    H149952   1.025   6.555  13.047 -0.8916 -0.2439 -0.2547
 9487TIP3    H249953   1.076   6.678  12.975 -1.5113  0.4546  0.4808
 9488TIP3   OH249954   2.325   1.255  15.184  0.1279 -0.1829  0.6716
 9488TIP3    H149955   2.352   1.324  15.122  1.8093 -0.2623  1.2635
 9488TIP3    H249956   2.239   1.284  15.215 -0.9583 -0.3071 -1.9127
 9489TIP3   OH249957   1.790   0.671  12.323  0.2345 -0.2618 -0.0103
 9489TIP3    H149958   1.874   0.642  12.357  1.3486  0.8028 -1.7103
 9489TIP3    H249959   1.795   0.656  12.229 -1.5371 -0.2888 -0.1441
 9490TIP3   OH249960   6.147   3.080   0.980 -0.8151 -0.5287 -0.1567
 9490TIP3    H149961   6.076   3.016   0.978 -1.1019 -0.2753  1.1726
 9490TIP3    H249962   6.134   3.133   0.901 -1.8777 -0.7165 -0.1108
 9491TIP3   OH249963   5.609   2.147  13.297 -0.8028  0.0100  0.4931
 9491TIP3    H149964   5.550   2.145  13.222 -1.0769 -1.2659  0.7061
 9491TIP3    H249965   5.572   2.213  13.355 -1.1680  0.2828 -0.0382
 9492TIP3   OH249966   4.242   2.290   2.246  0.2833  1.0341  0.1222
 9492TIP3    H149967   4.303   2.217   2.234 -0.3103  0.8076 -1.8770
 9492TIP3    H249968   4.270   2.356   2.182 -1.7292  0.7776 -1.1155
 9493TIP3   OH249969   5.537   4.114   5.829  0.4570  0.5109 -0.1147
 9493TIP3    H149970   5.563   4.026   5.856  0.2243  0.2934 -0.5979
 9493TIP3    H249971   5.559   4.169   5.904  1.3155  0.1638 -0.0965
 9494TIP3   OH249972   2.124   3.906   6.565  0.4380 -0.3002 -0.3991
 9494TIP3    H149973   2.076   3.958   6.501  0.9167 -0.9561 -1.3145
 9494TIP3    H249974   2.057   3.867   6.620 -0.1391 -1.5042 -1.8783
 9495TIP3   OH249975   1.524   3.710  14.580 -0.1042 -0.4819 -0.0253
 9495TIP3    H149976   1.533   3.796  14.621 -1.3145  0.0665 -0.8633
 9495TIP3    H249977   1.609   3.669  14.593  0.6040  0.9574  0.1312
 9496TIP3   OH249978   6.621   0.683   0.198  0.2528 -0.1358  0.1643
 9496TIP3    H149979   6.694   0.732   0.238  1.6162 -0.4177 -1.8295
 9496TIP3    H249980   6.664   0.617   0.143 -1.5178  0.1124 -1.6141
 9497TIP3   OH249981   4.174   1.620  12.735  0.3423  0.6161 -0.3305
 9497TIP3    H149982   4.177   1.601  12.829 -0.9151  0.9154 -0.2032
 9497TIP3    H249983   4.233   1.556  12.696 -0.5889 -0.8337  0.4966
 9498TIP3   OH249984   4.322   2.326   5.465  0.3557 -0.3726 -0.6272
 9498TIP3    H149985   4.355   2.245   5.503  0.0783 -0.0215  0.3816
 9498TIP3    H249986   4.355   2.325   5.375  1.1375 -1.1570 -0.3467
 9499TIP3   OH249987   4.932   3.464   5.680 -0.4233 -0.4068  0.1186
 9499TIP3    H149988   4.938   3.400   5.610  1.0292  0.5276 -0.6527
 9499TIP3    H249989   5.008   3.447   5.735  0.5747  1.2757 -0.6770
 9500TIP3   OH249990   5.193   4.634  13.897 -0.2856  0.5677 -0.1446
 9500TIP3    H149991   5.281   4.672  13.898  0.4348 -1.0082 -0.3928
 9500TIP3    H249992   5.158   4.650  13.985  1.0189 -0.4668  0.5916
 9501TIP3   OH249993   5.667   4.702  10.774  0.2948 -0.2392  0.7261
 9501TIP3    H149994   5.710   4.784  10.798  0.8973  0.1462 -1.4441
 9501TIP3    H249995   5.641   4.715  10.682  0.1688 -2.3769  0.4135
 9502TIP3   OH249996   3.310   6.792   4.278  0.5104 -0.2967  0.0462
 9502TIP3    H149997   3.376   6.776   4.209 -0.0041 -2.5234 -0.0131
 9502TIP3    H249998   3.234   6.741   4.250 -1.1099  1.8296  0.3697
 9503TIP3   OH249999   1.028   5.427  13.103 -0.2118 -0.0605  0.6663
 9503TIP3    H150000   1.122   5.413  13.088 -0.3224  0.4429 -0.6164
 9503TIP3    H250001   1.021   5.521  13.121 -0.5300  0.0286  0.1153
 9504TIP3   OH250002   5.477   5.058   1.227 -0.2373  0.1329  0.3161
 9504TIP3    H150003   5.546   4.993   1.244 -1.5536 -1.2724  0.4884
 9504TIP3    H250004   5.524   5.132   1.189  1.0822 -1.8008 -2.1788
 9505TIP3   OH250005   5.613   0.033   2.870 -0.3931 -0.3795 -0.5693
 9505TIP3    H150006   5.582   0.018   2.959  0.0313  0.6553 -0.2248
 9505TIP3    H250007   5.547   0.090   2.830 -0.7607 -1.1239 -1.0378
 9506TIP3   OH250008   4.488   0.697   4.781 -0.0158 -0.1684  0.6014
 9506TIP3    H150009   4.517   0.632   4.844 -0.4823 -1.3218 -0.3279
 9506TIP3    H250010   4.432   0.648   4.720 -0.7930  1.2042  0.1613
 9507TIP3   OH250011   1.985   5.561  11.089  0.5527 -0.3291 -0.2909
 9507TIP3    H150012   2.045   5.504  11.041  0.8136  0.1761 -0.5814
 9507TIP3    H250013   2.041   5.628  11.127  0.2888 -0.4547  0.3270
 9508TIP3   OH250014   0.659   4.317  14.464 -0.0885  0.3987  0.7819
 9508TIP3    H150015   0.578   4.333  14.417  0.5632  1.5610  0.0035
 9508TIP3    H250016   0.668   4.392  14.524 -0.3351 -0.4848  1.9757
 9509TIP3   OH250017   1.955   0.578   4.692 -0.0933  0.0775  0.6970
 9509TIP3    H150018   1.936   0.484   4.683 -0.5024  0.3340 -2.0061
 9509TIP3    H250019   2.020   0.595   4.624 -2.1333  2.2419 -0.8570
 9510TIP3   OH250020   0.279   1.453   0.166 -0.6624 -0.2275  0.2415
 9510TIP3    H150021   0.215   1.392   0.129 -0.4396 -1.2535  1.4885
 9510TIP3    H250022   0.363   1.422   0.132 -0.7469  0.8981 -1.0969
 9511TIP3   OH250023   6.112   2.467  13.915 -0.2817 -0.9146  0.4286
 9511TIP3    H150024   6.136   2.554  13.947 -2.7697  0.3473 -0.7748
 9511TIP3    H250025   6.019   2.459  13.935 -1.0965 -1.5669 -2.9073
 9512TIP3   OH250026   1.043   3.391  16.745 -0.7417  0.5844 -0.1896
 9512TIP3    H150027   1.032   3.429  16.832 -2.3437  2.4740 -1.1573
 9512TIP3    H250028   1.071   3.463  16.690 -1.4447 -0.1681 -1.5954
 9513TIP3   OH250029   6.137   5.250   5.079 -0.8354  0.2349  0.1231
 9513TIP3    H150030   6.230   5.230   5.077 -1.0662 -0.7881 -0.7081
 9513TIP3    H250031   6.131   5.326   5.138  0.5898  0.7788 -0.3776
 9514TIP3   OH250032   4.848   5.709  16.241 -0.2863 -0.1927 -0.2707
 9514TIP3    H150033   4.778   5.761  16.201 -0.3942 -1.8585 -2.4339
 9514TIP3    H250034   4.812   5.680  16.325 -1.8607 -0.3141 -0.9665
 9515TIP3   OH250035   0.455   4.325  11.399 -0.0571  0.4560 -0.1045
 9515TIP3    H150036   0.474   4.238  11.435 -1.1362  1.0258  2.0040
 9515TIP3    H250037   0.533   4.347  11.348 -0.8171 -2.8382 -3.0935
 9516TIP3   OH250038   0.568   2.666  16.031  0.2884  0.2623 -0.1698
 9516TIP3    H150039   0.581   2.585  16.082  0.6796  1.3971  1.6283
 9516TIP3    H250040   0.547   2.635  15.943  0.8530 -1.7978  0.3494
 9517TIP3   OH250041   1.153   1.624   4.562 -0.1595  0.5190  0.4271
 9517TIP3    H150042   1.127   1.565   4.491 -0.4523  1.0411  0.0939
 9517TIP3    H250043   1.235   1.662   4.532  1.0247 -1.0739  1.4473
 9518TIP3   OH250044   5.916   0.745  15.519 -0.0764  0.1083 -0.2922
 9518TIP3    H150045   5.851   0.675  15.519  1.1071 -1.0185 -0.1124
 9518TIP3    H250046   5.887   0.804  15.589  0.0891 -1.3719  1.0973
 9519TIP3   OH250047   4.485   1.819   1.526  0.3674  0.0992  0.4732
 9519TIP3    H150048   4.440   1.737   1.504 -0.5373  0.7531 -0.1844
 9519TIP3    H250049   4.419   1.870   1.573  0.8173  0.5942  0.5680
 9520TIP3   OH250050   2.246   4.079  14.415 -0.7893 -0.0717 -0.8378
 9520TIP3    H150051   2.249   4.061  14.321  1.9305 -1.2779 -0.6117
 9520TIP3    H250052   2.183   4.016  14.450  1.2331 -2.5720 -1.3970
 9521TIP3   OH250053   3.813   3.387  11.007  0.3824 -0.1988 -0.4799
 9521TIP3    H150054   3.767   3.470  11.009 -0.3596 -0.5662 -1.6789
 9521TIP3    H250055   3.888   3.402  10.950  0.3996 -0.2793 -0.4787
 9522TIP3   OH250056   3.857   0.742   2.791  0.8842 -0.1979  0.4024
 9522TIP3    H150057   3.777   0.705   2.753  0.2184  1.7463 -0.1758
 9522TIP3    H250058   3.919   0.669   2.791 -0.3153 -1.2736 -0.7884
 9523TIP3   OH250059   6.068   5.303   4.800 -0.2643 -0.0109  0.1590
 9523TIP3    H150060   6.053   5.291   4.893 -0.7836  0.0560  0.0833
 9523TIP3    H250061   6.162   5.323   4.794 -0.1304 -0.4596  0.6194
 9524TIP3   OH250062   2.336   3.191  15.017  0.4076  0.0689  0.2482
 9524TIP3    H150063   2.249   3.161  14.991  0.0190  0.0797  1.4917
 9524TIP3    H250064   2.393   3.167  14.943 -0.6272  0.0046 -0.5426
 9525TIP3   OH250065   1.887   6.343  13.581 -0.2298  0.3357 -0.9178
 9525TIP3    H150066   1.924   6.357  13.494  0.0991  1.7490 -0.5641
 9525TIP3    H250067   1.803   6.388  13.579 -0.5213 -0.1852 -0.6941
 9526TIP3   OH250068   5.636   1.505   4.889 -0.1514 -0.0756  0.2289
 9526TIP3    H150069   5.718   1.544   4.858 -0.5127 -0.2302 -0.9600
 9526TIP3    H250070   5.635   1.524   4.983 -0.2780  2.7203 -0.2434
 9527TIP3   OH250071   5.153   6.336   5.459 -0.0075  0.5156 -0.3286
 9527TIP3    H150072   5.068   6.381   5.459 -0.8627 -1.0075 -1.1461
 9527TIP3    H250073   5.132   6.245   5.441  1.9084  0.3011 -1.8753
 9528TIP3   OH250074   4.597   2.716  12.628 -0.3678  0.0912 -0.0485
 9528TIP3    H150075   4.562   2.683  12.545 -1.9484 -0.2823  0.7317
 9528TIP3    H250076   4.521   2.723  12.685  0.5449  1.2726  1.0820
 9529TIP3   OH250077   0.875   4.123   3.934  0.0207 -0.0012 -0.2114
 9529TIP3    H150078   0.933   4.161   4.001 -0.0029 -0.2513 -0.0464
 9529TIP3    H250079   0.918   4.042   3.909 -0.0832 -0.0155 -0.3407
 9530TIP3   OH250080   0.504   0.781  13.935 -0.1368 -0.2859 -0.0904
 9530TIP3    H150081   0.535   0.796  13.845  0.4433 -0.4964  0.0731
 9530TIP3    H250082   0.446   0.705  13.928 -1.4792  0.7377 -0.5767
 9531TIP3   OH250083   1.177   2.348   3.624  0.8095 -0.5379 -0.4699
 9531TIP3    H150084   1.139   2.261   3.617 -1.0868  0.1785  0.2455
 9531TIP3    H250085   1.147   2.381   3.708  3.4970 -0.0672  0.4022
 9532TIP3   OH250086   2.671   6.248   6.238 -0.2655  0.1681 -0.3891
 9532TIP3    H150087   2.600   6.226   6.298 -1.9474  0.5446 -2.1446
 9532TIP3    H250088   2.664   6.343   6.226 -0.5933 -0.0282 -1.9080
 9533TIP3   OH250089   3.172   5.964  16.254  0.0942 -0.2002  0.4971
 9533TIP3    H150090   3.174   6.000  16.166 -1.5016 -0.5515  0.2944
 9533TIP3    H250091   3.087   5.921  16.261  0.1823 -0.1751  2.2042
 9534TIP3   OH250092   6.282   6.640  16.208  0.1708 -0.0381  0.3138
 9534TIP3    H150093   6.248   6.632  16.119  2.2285  1.0432 -0.6288
 9534TIP3    H250094   6.223   6.702  16.250 -0.5111 -0.1524 -0.4340
 9535TIP3   OH250095   2.330   2.725  12.144 -0.4545 -0.0538  0.5515
 9535TIP3    H150096   2.424   2.727  12.126 -0.4692 -1.1545  0.2598
 9535TIP3    H250097   2.293   2.674  12.071 -1.3681  0.9437  0.3056
 9536TIP3   OH250098   3.669   3.622   5.887  0.0960 -0.6131 -0.1978
 9536TIP3    H150099   3.737   3.569   5.928  1.4283  0.4144 -0.9957
 9536TIP3    H250100   3.633   3.674   5.959  0.0160 -1.3013  0.2664
 9537TIP3   OH250101   0.994   2.995  12.659 -0.0785  0.2542  0.6866
 9537TIP3    H150102   1.039   2.914  12.638 -1.3641 -0.0752 -1.0500
 9537TIP3    H250103   0.906   2.968  12.687 -0.5370  1.0324  0.0461
 9538TIP3   OH250104   3.992   6.707  13.357 -0.4375 -0.2419 -0.2208
 9538TIP3    H150105   3.903   6.726  13.386 -0.3061  0.8081 -0.4582
 9538TIP3    H250106   4.004   6.614  13.376 -0.9331  0.0059  1.5613
 9539TIP3   OH250107   4.772   5.711  10.846 -0.0242  0.7761  0.2608
 9539TIP3    H150108   4.835   5.712  10.775 -0.2751 -1.6087 -0.0549
 9539TIP3    H250109   4.775   5.801  10.881  2.3044  1.1877 -0.7737
 9540TIP3   OH250110   1.035   5.167   5.779  0.3075 -0.1157 -0.1640
 9540TIP3    H150111   1.016   5.113   5.855 -1.5250  0.1807 -0.3857
 9540TIP3    H250112   1.059   5.252   5.815  0.0297 -0.1459  0.0880
 9541TIP3   OH250113   6.696   2.859  10.519 -0.0941  0.0462 -0.1760
 9541TIP3    H150114   6.714   2.944  10.479  0.3515  0.6051  1.1490
 9541TIP3    H250115   6.628   2.877  10.584 -1.3898 -0.9917 -1.2145
 9542TIP3   OH250116   2.727   1.772  11.535 -0.4174  0.4911  0.0691
 9542TIP3    H150117   2.758   1.749  11.447 -0.0082 -0.6303  0.4882
 9542TIP3    H250118   2.800   1.819  11.575 -0.1267 -0.1138  0.2493
 9543TIP3   OH250119   2.950   2.123  16.005 -0.0835  0.6316 -0.1102
 9543TIP3    H150120   2.880   2.187  16.017  0.2059  0.8652  0.3694
 9543TIP3    H250121   2.944   2.098  15.912 -1.5774 -0.2631  0.1816
 9544TIP3   OH250122   6.717   5.626   2.848 -0.3848  0.4435 -0.0369
 9544TIP3    H150123   6.753   5.617   2.936  1.2240  2.6920 -0.3749
 9544TIP3    H250124   6.630   5.665   2.861 -0.3162  0.3980  0.5659
 9545TIP3   OH250125   2.963   5.534   2.073 -0.3645  0.1869 -0.4963
 9545TIP3    H150126   3.039   5.485   2.105  0.7765  2.0389 -0.2021
 9545TIP3    H250127   2.889   5.474   2.084  1.1451 -2.0034 -1.6237
 9546TIP3   OH250128   3.162   4.274  17.168  0.2865  0.5753  0.1073
 9546TIP3    H150129   3.256   4.287  17.180  0.0533  0.8215  1.8728
 9546TIP3    H250130   3.150   4.179  17.171  0.4814  0.5424 -0.1644
 9547TIP3   OH250131   4.948   2.159   4.707 -0.4406  0.0957  0.1996
 9547TIP3    H150132   4.975   2.082   4.658  0.5293  2.0099 -2.5254
 9547TIP3    H250133   4.858   2.141   4.733 -0.1726 -1.9918 -0.1588
 9548TIP3   OH250134   2.505   2.776   3.842 -0.6826  0.5934 -0.3849
 9548TIP3    H150135   2.512   2.854   3.787  0.1845 -0.9954 -2.6899
 9548TIP3    H250136   2.422   2.786   3.889 -0.2495  3.1956 -0.0628
 9549TIP3   OH250137   4.453   0.903   2.102  0.2531 -0.1292  0.2840
 9549TIP3    H150138   4.518   0.854   2.152  0.3650  0.2234  0.4848
 9549TIP3    H250139   4.388   0.837   2.077  0.5351 -0.4280  0.3319
 9550TIP3   OH250140   3.162   2.303   3.517 -0.2242  0.3991 -0.0584
 9550TIP3    H150141   3.107   2.376   3.546  1.3361  0.8057  2.1449
 9550TIP3    H250142   3.100   2.232   3.499 -1.6240  1.6003 -0.1008
 9551TIP3   OH250143   3.216   6.829  11.495  0.5490 -0.0450  0.0455
 9551TIP3    H150144   3.122   6.840  11.477  0.9187 -0.3737 -2.4580
 9551TIP3    H250145   3.254   6.806  11.410  3.4154  3.2655  0.2212
 9552TIP3   OH250146   1.395   6.724   3.448 -0.2116 -0.3365  0.1064
 9552TIP3    H150147   1.464   6.658   3.442  1.5884  1.2887  1.5108
 9552TIP3    H250148   1.434   6.803   3.411 -1.0947  0.7698  1.4292
 9553TIP3   OH250149   4.602   0.798   0.328  0.0456 -0.1969  0.6945
 9553TIP3    H150150   4.651   0.764   0.254  0.2962  1.9943 -0.2241
 9553TIP3    H250151   4.516   0.756   0.321 -0.6018  1.3459 -2.0321
 9554TIP3   OH250152   4.141   3.882   0.907  0.4078 -0.0616 -0.3120
 9554TIP3    H150153   4.082   3.953   0.933  0.2542 -0.3427  0.1230
 9554TIP3    H250154   4.158   3.898   0.814  2.6422  2.1809  0.3796
 9555TIP3   OH250155   5.701   1.286  13.262  0.2326 -0.1600 -0.0755
 9555TIP3    H150156   5.678   1.261  13.172 -0.8398  0.2416  0.0760
 9555TIP3    H250157   5.632   1.347  13.288 -0.3622 -1.4435  1.5677
 9556TIP3   OH250158   0.782   2.709  16.252 -0.0270  0.2880 -0.0912
 9556TIP3    H150159   0.720   2.694  16.181 -0.1397  0.2645  0.0114
 9556TIP3    H250160   0.770   2.801  16.276 -0.6017  0.0773  0.4716
 9557TIP3   OH250161   4.907   2.415   5.024  0.0018  0.2313 -0.1339
 9557TIP3    H150162   4.993   2.372   5.023  1.0175  2.1634 -0.8145
 9557TIP3    H250163   4.920   2.495   5.074 -2.2188 -0.8446  2.4028
 9558TIP3   OH250164   2.526   4.507   0.624  0.3668  0.3391  0.6386
 9558TIP3    H150165   2.499   4.488   0.534  1.6988 -1.2639  0.5127
 9558TIP3    H250166   2.548   4.421   0.660  0.0003  0.9767  2.4573
 9559TIP3   OH250167   0.116   1.269  13.606 -0.1878 -0.1733 -0.2166
 9559TIP3    H150168   0.109   1.174  13.599  2.0901 -0.2979 -2.7781
 9559TIP3    H250169   0.165   1.283  13.687 -0.1532 -1.2082 -0.0434
 9560TIP3   OH250170   5.240   5.893   6.123 -0.3929  0.3874 -0.5775
 9560TIP3    H150171   5.162   5.944   6.146 -0.4833  0.7036 -1.5218
 9560TIP3    H250172   5.314   5.951   6.141 -0.3510  0.0067  0.5316
 9561TIP3   OH250173   5.788   5.749   2.386  0.0036  0.3377 -0.1821
 9561TIP3    H150174   5.859   5.811   2.399  0.7622 -0.5226 -0.1149
 9561TIP3    H250175   5.735   5.756   2.465 -0.7957  1.9646 -0.8016
 9562TIP3   OH250176   5.806   4.738  17.157  0.8690 -0.9510  0.0357
 9562TIP3    H150177   5.780   4.773  17.242  0.8149 -0.6019 -0.1256
 9562TIP3    H250178   5.860   4.807  17.118  0.1433 -0.7352 -0.5997
 9563TIP3   OH250179   3.373   2.756  14.940  0.2687 -0.1431  0.2466
 9563TIP3    H150180   3.460   2.796  14.940  1.5802 -2.7166 -0.6115
 9563TIP3    H250181   3.369   2.708  15.023 -0.4546  0.1706  0.3978
 9564TIP3   OH250182   4.950   4.422  16.440  0.0375  0.0836  0.3008
 9564TIP3    H150183   4.995   4.414  16.524 -0.2435 -0.7262  0.3793
 9564TIP3    H250184   4.893   4.498  16.451 -0.6207 -0.5188  1.1362
 9565TIP3   OH250185   6.644   5.063  13.629  0.6376 -0.3432  0.1021
 9565TIP3    H150186   6.612   5.124  13.696 -0.4625 -0.8467  0.0583
 9565TIP3    H250187   6.708   5.114  13.579  0.5421  0.4316  0.7401
 9566TIP3   OH250188   0.777   5.290   0.131  0.1881  0.3319  0.0137
 9566TIP3    H150189   0.860   5.242   0.141 -0.2933 -0.4301  0.5174
 9566TIP3    H250190   0.714   5.223   0.102 -0.4815  0.6649  0.6607
 9567TIP3   OH250191   5.771   0.767  13.166 -0.1616 -0.5355 -0.4923
 9567TIP3    H150192   5.729   0.726  13.090 -1.1881  0.8818 -0.7451
 9567TIP3    H250193   5.741   0.858  13.163  2.1326  0.3179 -0.0699
 9568TIP3   OH250194   1.979   3.498   0.980  0.1479 -0.7342  0.4244
 9568TIP3    H150195   2.035   3.446   1.038  2.2115  0.8444 -0.0342
 9568TIP3    H250196   1.890   3.471   1.003  1.0003 -2.3027  2.2279
 9569TIP3   OH250197   4.526   2.361  16.684 -0.1328  0.2612  0.0943
 9569TIP3    H150198   4.514   2.319  16.599 -1.4873 -0.8727  0.8015
 9569TIP3    H250199   4.438   2.392  16.708 -0.0187 -0.5198  1.6035
 9570TIP3   OH250200   1.374   4.296  12.066  0.1003  0.2027  0.0734
 9570TIP3    H150201   1.287   4.299  12.106 -0.0485  0.0621 -0.2362
 9570TIP3    H250202   1.378   4.211  12.023  0.2676  0.3425 -0.1902
 9571TIP3   OH250203   0.855   6.100  17.023  0.3095  0.3821 -0.2112
 9571TIP3    H150204   0.785   6.165  17.021  0.9169  1.0768  0.3841
 9571TIP3    H250205   0.918   6.134  17.087  1.8586  0.4808 -1.7152
 9572TIP3   OH250206   1.315   2.754  11.674 -0.4020 -0.6380 -0.1743
 9572TIP3    H150207   1.383   2.751  11.741  0.0102 -0.9048 -0.5989
 9572TIP3    H250208   1.240   2.709  11.713 -0.3824 -0.2198  0.3468
 9573TIP3   OH250209   1.770   0.935   4.471  0.0358 -0.7064 -0.3371
 9573TIP3    H150210   1.735   0.970   4.389 -0.1080 -0.4416 -0.1620
 9573TIP3    H250211   1.831   0.867   4.443  0.4502 -0.2023 -0.6826
 9574TIP3   OH250212   2.005   4.320   1.069  0.6689 -0.1635  0.2687
 9574TIP3    H150213   2.048   4.398   1.106  1.3456  0.9540 -2.5869
 9574TIP3    H250214   2.077   4.265   1.038  0.1442 -1.3052  1.0044
 9575TIP3   OH250215   6.059   4.669   3.796  0.7081  0.1056  0.0111
 9575TIP3    H150216   6.120   4.612   3.845 -0.5181 -0.4520  0.9394
 9575TIP3    H250217   6.015   4.610   3.735  0.2086  0.2554  0.2213
 9576TIP3   OH250218   4.189   3.173   0.009 -0.4883 -0.2653  0.3151
 9576TIP3    H150219   4.139   3.114  -0.048  1.9492  0.8189 -3.3608
 9576TIP3    H250220   4.127   3.241   0.034 -1.9108 -1.2488 -0.4011
 9577TIP3   OH250221   2.347   4.504   4.936 -0.1138 -0.2019 -0.7033
 9577TIP3    H150222   2.414   4.570   4.957 -0.0940  0.0562 -1.5340
 9577TIP3    H250223   2.353   4.493   4.841 -1.7089  0.3340 -0.9004
 9578TIP3   OH250224   1.658   1.659  12.527  0.2110 -0.4438  0.5536
 9578TIP3    H150225   1.698   1.715  12.460 -0.3368 -0.1804  0.4408
 9578TIP3    H250226   1.642   1.576  12.482  1.0682 -0.7094  0.7341
 9579TIP3   OH250227   0.585   3.997  13.512 -0.1142 -0.1772 -0.0133
 9579TIP3    H150228   0.573   4.091  13.502 -4.2604 -0.5246  0.2485
 9579TIP3    H250229   0.607   3.966  13.424 -2.1525  0.7025 -0.8919
 9580TIP3   OH250230   5.965   2.560   5.011 -0.5400 -0.2443  0.5388
 9580TIP3    H150231   5.958   2.468   4.985 -0.8700 -0.3140  0.8808
 9580TIP3    H250232   6.025   2.598   4.946 -1.6195 -0.3403 -0.5447
 9581TIP3   OH250233   2.565   3.756   6.327 -0.0815  0.0598  0.0818
 9581TIP3    H150234   2.563   3.775   6.234 -0.5738  1.1471  0.2961
 9581TIP3    H250235   2.493   3.808   6.364  2.0496  2.2283  1.4897
 9582TIP3   OH250236   4.754   3.598   0.390 -0.2058 -0.2624 -0.8207
 9582TIP3    H150237   4.703   3.550   0.325 -2.3886  1.6622 -0.6663
 9582TIP3    H250238   4.694   3.608   0.464  0.6539  1.3957 -0.3064
 9583TIP3   OH250239   0.965   6.450  11.058 -0.3492 -0.0896 -0.6402
 9583TIP3    H150240   0.945   6.504  10.982  1.8863  0.6842 -0.7755
 9583TIP3    H250241   1.049   6.409  11.037 -0.1363 -0.5986  1.0256
 9584TIP3   OH250242   1.089   3.514  15.904  0.2000 -0.1914 -0.4483
 9584TIP3    H150243   1.184   3.518  15.917 -0.0953 -1.0820  2.6015
 9584TIP3    H250244   1.063   3.430  15.940 -1.8398  0.2564 -0.7616
 9585TIP3   OH250245   6.133   1.947   0.295  0.6015 -0.2634  0.1412
 9585TIP3    H150246   6.085   1.995   0.228 -0.4814 -3.1323 -1.3069
 9585TIP3    H250247   6.210   1.914   0.251  0.0034 -1.9872  0.3210
 9586TIP3   OH250248   5.970   4.475  16.426  0.4249  0.1746  0.2280
 9586TIP3    H150249   6.010   4.483  16.512  0.1050 -0.2869  0.4247
 9586TIP3    H250250   6.027   4.525  16.368  0.3977  0.8603  0.7824
 9587TIP3   OH250251   1.650   1.500  13.942  0.5819 -0.1345  0.2022
 9587TIP3    H150252   1.672   1.407  13.943  1.8262  0.0808 -2.0784
 9587TIP3    H250253   1.615   1.516  13.855  1.7648  1.8120  0.0242
 9588TIP3   OH250254   1.315   0.075   6.540  0.1278  0.2093 -0.3916
 9588TIP3    H150255   1.240   0.077   6.482 -0.5627  1.1790  0.4950
 9588TIP3    H250256   1.344   0.166   6.545  2.4205 -0.3516 -2.0170
 9589TIP3   OH250257   6.640   0.633   4.836 -0.1120  0.0636  0.2082
 9589TIP3    H150258   6.666   0.567   4.900 -1.5289  0.6536  1.4798
 9589TIP3    H250259   6.552   0.606   4.808 -0.8412  1.5103  0.9727
 9590TIP3   OH250260   2.663   2.589  13.841 -0.5734  0.0055  0.3289
 9590TIP3    H150261   2.622   2.524  13.899 -0.0278 -0.0170  0.6987
 9590TIP3    H250262   2.647   2.673  13.885 -1.5906  0.1767 -0.3292
 9591TIP3   OH250263   5.508   3.533   5.321  0.1725  0.5643 -0.2204
 9591TIP3    H150264   5.494   3.594   5.393 -0.1753  0.6187 -0.3348
 9591TIP3    H250265   5.522   3.448   5.364 -0.0362  0.5957 -0.0909
 9592TIP3   OH250266   4.381   3.791   3.000  0.0874 -0.1275  0.4782
 9592TIP3    H150267   4.407   3.836   2.920  1.5534 -2.1790 -0.2820
 9592TIP3    H250268   4.385   3.859   3.068 -0.6503  1.5248 -1.0455
 9593TIP3   OH250269   4.184   1.104  11.324  0.4990  0.0735 -0.1870
 9593TIP3    H150270   4.277   1.124  11.317  0.1911  1.4519 -0.5574
 9593TIP3    H250271   4.143   1.153  11.253 -0.4480 -0.9991 -0.4051
 9594TIP3   OH250272   1.189   4.699  14.194  0.5464  0.3624  0.3697
 9594TIP3    H150273   1.179   4.651  14.112 -1.6065 -1.4617  1.6013
 9594TIP3    H250274   1.265   4.660  14.236 -0.0203 -0.6577  0.4727
 9595TIP3   OH250275   6.541   5.217   1.129  0.0582 -0.0742  0.4561
 9595TIP3    H150276   6.621   5.226   1.077  0.3442 -1.0230  0.7115
 9595TIP3    H250277   6.483   5.164   1.075 -0.5579  0.9580  0.1006
 9596TIP3   OH250278   5.584   6.180  13.691  0.2839 -0.1860 -0.5880
 9596TIP3    H150279   5.491   6.160  13.698  0.6669 -1.7681  0.6885
 9596TIP3    H250280   5.598   6.198  13.598 -1.4490  1.0791 -0.6384
 9597TIP3   OH250281   5.687   5.576   5.000  0.0363 -0.2219 -0.4796
 9597TIP3    H150282   5.770   5.548   4.961 -0.3248 -0.4032 -1.1366
 9597TIP3    H250283   5.627   5.503   4.983  0.1068 -0.7438  1.2843
 9598TIP3   OH250284   6.046   0.866   3.190 -0.2109  0.3275  0.1657
 9598TIP3    H150285   6.084   0.815   3.261  0.1760 -0.3035 -0.4771
 9598TIP3    H250286   5.954   0.841   3.188  0.1206 -0.8871 -0.5887
 9599TIP3   OH250287   6.117   2.790   3.836  0.1038 -0.3232 -0.3459
 9599TIP3    H150288   6.128   2.731   3.761 -0.4871  0.1502 -0.8113
 9599TIP3    H250289   6.207   2.809   3.865  0.3016 -2.0131  0.2685
 9600TIP3   OH250290   2.603   3.613   4.316 -0.4939  0.0251 -0.3297
 9600TIP3    H150291   2.560   3.685   4.362 -2.2635 -1.3984  0.3657
 9600TIP3    H250292   2.609   3.543   4.381 -0.6807 -1.1583 -1.5447
 9601TIP3   OH250293   4.901   0.474  11.889  0.3008 -0.2444 -0.0510
 9601TIP3    H150294   4.809   0.447  11.889  0.3828 -0.5283 -0.1033
 9601TIP3    H250295   4.949   0.394  11.910  0.7148 -0.7922 -2.6520
 9602TIP3   OH250296   5.356   2.764  14.977 -0.3803 -0.1463  0.1744
 9602TIP3    H150297   5.268   2.798  14.993  0.1410  1.0637  0.6095
 9602TIP3    H250298   5.359   2.750  14.882 -0.7696  0.6250  0.0379
 9603TIP3   OH250299   1.072   4.443  14.726  0.0575  0.2908 -0.2640
 9603TIP3    H150300   1.167   4.447  14.740  0.5338 -1.2939 -2.4858
 9603TIP3    H250301   1.058   4.483  14.640 -1.2906  0.4585  0.0045
 9604TIP3   OH250302   0.845   4.479   5.564  0.1212  0.0169  0.3425
 9604TIP3    H150303   0.879   4.404   5.612  1.3723  0.1814 -0.2487
 9604TIP3    H250304   0.916   4.504   5.505  0.1000  2.2196  1.1459
 9605TIP3   OH250305   3.061   0.082   1.370  0.2982 -0.1012 -0.0676
 9605TIP3    H150306   3.021   0.104   1.454 -1.5473  3.9982 -1.7517
 9605TIP3    H250307   3.041  -0.011   1.359 -2.9036  0.1028  2.3173
 9606TIP3   OH250308   4.525   0.424  11.641  0.1684  0.0088  0.9910
 9606TIP3    H150309   4.576   0.412  11.561 -0.1340  1.5057  0.5534
 9606TIP3    H250310   4.464   0.350  11.642  1.1750 -0.8492  0.6311
 9607TIP3   OH250311   4.004   3.373  10.805  0.1428  0.6659  0.2305
 9607TIP3    H150312   3.948   3.304  10.771 -0.0034  0.7016  0.3997
 9607TIP3    H250313   4.093   3.338  10.797 -0.0617 -0.7017  2.8626
 9608TIP3   OH250314   1.356   1.249   4.244  0.1736  0.4166 -0.0644
 9608TIP3    H150315   1.325   1.245   4.334 -0.7835  0.3157 -0.3933
 9608TIP3    H250316   1.407   1.168   4.233 -0.6524 -0.1322  0.0507
 9609TIP3   OH250317   3.944   2.831  12.024 -0.5389  0.1533 -0.0208
 9609TIP3    H150318   3.925   2.775  11.948  1.1916 -0.7474  0.1763
 9609TIP3    H250319   3.882   2.904  12.015 -0.3057  0.1607 -2.3907
 9610TIP3   OH250320   2.351   2.511   0.337  0.3435  0.4176 -0.1629
 9610TIP3    H150321   2.434   2.485   0.377 -0.6891  0.6305  2.2706
 9610TIP3    H250322   2.296   2.538   0.411 -1.2957  2.0019 -1.8670
 9611TIP3   OH250323   4.867   3.130   2.452  0.4834 -0.9238 -0.2374
 9611TIP3    H150324   4.917   3.067   2.401 -1.6601 -1.3668 -1.9330
 9611TIP3    H250325   4.857   3.089   2.538  3.6039 -0.4481  0.4963
 9612TIP3   OH250326   3.569   4.377  11.979 -0.4707 -0.2484 -0.2757
 9612TIP3    H150327   3.639   4.360  12.042 -0.9966  1.2292  0.7559
 9612TIP3    H250328   3.613   4.423  11.907 -0.8298  4.6375  2.2025
 9613TIP3   OH250329   5.095   3.622  10.529 -0.4124  0.0636  0.5150
 9613TIP3    H150330   5.049   3.567  10.467 -0.5229  0.3291  0.3616
 9613TIP3    H250331   5.184   3.587  10.531 -0.1428  0.6448 -0.5254
 9614TIP3   OH250332   6.633   4.774   4.578  0.0107 -0.1252 -0.2154
 9614TIP3    H150333   6.616   4.850   4.522  0.5756 -0.9213 -1.5197
 9614TIP3    H250334   6.707   4.800   4.632  0.1686  0.2765 -0.6227
 9615TIP3   OH250335   0.642   3.933   1.190  0.1784  0.4815  0.3312
 9615TIP3    H150336   0.656   3.881   1.269  0.1453 -0.4224 -0.2502
 9615TIP3    H250337   0.548   3.925   1.173  0.4700 -0.8093 -0.7990
 9616TIP3   OH250338   0.748   1.133  11.385 -0.0075 -0.0026  0.1046
 9616TIP3    H150339   0.772   1.220  11.352  0.4353  0.4796  1.6358
 9616TIP3    H250340   0.831   1.086  11.393 -0.2271 -0.5205 -0.5392
 9617TIP3   OH250341   6.536   1.140  15.270  0.4194 -0.1821 -0.0956
 9617TIP3    H150342   6.591   1.217  15.256  2.0403 -1.5407 -1.7846
 9617TIP3    H250343   6.455   1.159  15.222 -0.4882  1.6364  1.9956
 9618TIP3   OH250344   3.001   6.485  16.574  0.2521 -0.1776  0.2502
 9618TIP3    H150345   2.935   6.532  16.525  0.6346 -0.8576 -0.9663
 9618TIP3    H250346   3.083   6.529  16.552  0.0464  2.5160  3.9579
 9619TIP3   OH250347   3.161   5.564  15.682  0.3910  0.0407 -0.1933
 9619TIP3    H150348   3.166   5.496  15.615  1.2805  0.5195 -0.6301
 9619TIP3    H250349   3.252   5.585  15.702  0.1782  1.9456 -0.9587
 9620TIP3   OH250350   0.173   1.691   2.326 -0.5228 -0.1949  0.3315
 9620TIP3    H150351   0.100   1.712   2.385 -0.3055  0.7659  0.2725
 9620TIP3    H250352   0.244   1.665   2.384 -0.7963 -0.7850  0.4074
 9621TIP3   OH250353   0.357   4.615  10.800  0.0648 -0.1689  0.1360
 9621TIP3    H150354   0.265   4.612  10.774 -0.3804 -0.8402  1.6886
 9621TIP3    H250355   0.384   4.705  10.782 -1.4717  0.6247  1.5180
 9622TIP3   OH250356   0.124   6.319  14.165  0.1468 -0.5076  0.3255
 9622TIP3    H150357   0.164   6.309  14.078  0.1757 -2.4395  0.5016
 9622TIP3    H250358   0.120   6.229  14.199 -0.3366  0.1552  2.1148
 9623TIP3   OH250359   0.206   6.504   5.479  0.0040  0.5094  0.5361
 9623TIP3    H150360   0.240   6.472   5.395 -2.3108 -1.3290  0.2008
 9623TIP3    H250361   0.265   6.465   5.545 -0.1250 -0.8116 -0.1020
 9624TIP3   OH250362   5.282   2.926   5.073  0.0360  0.2478  0.0848
 9624TIP3    H150363   5.187   2.933   5.065  0.2335  1.5184 -1.4649
 9624TIP3    H250364   5.311   2.892   4.989  0.8936 -1.1268  0.9012
 9625TIP3   OH250365   5.280   5.259   1.762 -0.1053  0.1054 -0.2269
 9625TIP3    H150366   5.294   5.333   1.822 -0.5485 -1.2762  1.6482
 9625TIP3    H250367   5.231   5.195   1.813 -0.1127 -1.3400 -1.9455
 9626TIP3   OH250368   5.362   2.164  16.406  0.1069 -0.2860  0.5150
 9626TIP3    H150369   5.445   2.117  16.399  0.4749  0.3981  0.2037
 9626TIP3    H250370   5.337   2.184  16.316 -0.7257 -1.0423  0.5657
 9627TIP3   OH250371   6.503   1.335   6.347  0.3328  0.5530 -0.0134
 9627TIP3    H150372   6.475   1.295   6.430 -1.3053 -0.2160 -0.8879
 9627TIP3    H250373   6.599   1.337   6.353  0.2832  0.0131  1.6588
 9628TIP3   OH250374   3.649   0.002   3.094 -0.3859  0.0717  0.2691
 9628TIP3    H150375   3.634  -0.085   3.131 -0.6579  0.4054  0.9748
 9628TIP3    H250376   3.635  -0.009   3.000 -0.1399 -0.7028  0.3174
 9629TIP3   OH250377   0.375   2.082   0.144  0.2473  0.5619 -0.0226
 9629TIP3    H150378   0.463   2.077   0.180 -0.0231  1.5264  0.8147
 9629TIP3    H250379   0.364   2.000   0.096  1.2668  0.0336  0.6125
 9630TIP3   OH250380   5.603   3.147  15.227 -0.2543  0.2229  0.1590
 9630TIP3    H150381   5.513   3.137  15.258  0.0888  0.1845  1.1897
 9630TIP3    H250382   5.640   3.059  15.230 -0.2229  0.2118 -0.4149
 9631TIP3   OH250383   3.118   1.365  15.992  0.0460  0.3938 -0.3770
 9631TIP3    H150384   3.033   1.324  16.006  1.1058 -1.5372  0.8830
 9631TIP3    H250385   3.117   1.392  15.900 -1.4127 -0.8296 -0.7577
 9632TIP3   OH250386   5.419   4.682   5.616  0.4173  0.1803 -0.4016
 9632TIP3    H150387   5.495   4.733   5.589  0.0988  1.0076  0.2181
 9632TIP3    H250388   5.444   4.591   5.600  0.5822  0.5621 -2.5979
 9633TIP3   OH250389   1.428   0.559   2.290 -0.0468  0.0677  0.1884
 9633TIP3    H150390   1.334   0.568   2.276 -0.3221  0.1982  1.8891
 9633TIP3    H250391   1.467   0.626   2.235 -0.9757  0.3885 -0.1062
 9634TIP3   OH250392   1.900   3.693   4.224  0.3143  0.4195 -0.3248
 9634TIP3    H150393   1.806   3.705   4.217  0.0043 -0.6763  1.4463
 9634TIP3    H250394   1.914   3.601   4.204  1.1981  0.8255 -1.7783
 9635TIP3   OH250395   5.496   2.466  13.665  0.4179  0.4707  0.5022
 9635TIP3    H150396   5.405   2.482  13.691  0.1140  0.3676 -0.4735
 9635TIP3    H250397   5.544   2.464  13.748  0.0504  3.6526  0.8916
 9636TIP3   OH250398   0.998   1.614  14.540 -0.0843 -0.2621 -0.6358
 9636TIP3    H150399   1.043   1.655  14.467  0.0129 -0.8877 -0.9403
 9636TIP3    H250400   0.916   1.582  14.503  0.1866 -1.0244 -0.5981
 9637TIP3   OH250401   4.516   0.470  16.401  0.0652  0.2067  0.4887
 9637TIP3    H150402   4.552   0.389  16.439 -0.3573 -1.0589 -1.6226
 9637TIP3    H250403   4.551   0.472  16.312 -0.0242  2.3459  0.4596
 9638TIP3   OH250404   4.599   0.795   3.161  0.1790  0.7249  0.2265
 9638TIP3    H150405   4.658   0.836   3.224  0.1912  1.1924 -0.0816
 9638TIP3    H250406   4.519   0.847   3.165  0.1419  0.6916 -0.0611
 9639TIP3   OH250407   4.350   1.690  13.415  0.3104  0.5476 -0.0447
 9639TIP3    H150408   4.424   1.676  13.356  1.0223  0.0506  0.9311
 9639TIP3    H250409   4.382   1.662  13.501 -0.9856  0.3970  0.4183
 9640TIP3   OH250410   5.709   2.102   4.323  0.3463  0.8706 -0.1104
 9640TIP3    H150411   5.726   2.180   4.375 -0.2279  0.6196  0.4675
 9640TIP3    H250412   5.645   2.129   4.258 -0.6835  0.6294  0.7765
 9641TIP3   OH250413   3.844   0.616  15.067 -0.2325  0.1766 -0.2726
 9641TIP3    H150414   3.804   0.666  14.995  1.1748  1.3566 -0.2912
 9641TIP3    H250415   3.928   0.586  15.031 -0.5926 -1.3315  0.0948
 9642TIP3   OH250416   5.058   3.627  15.210 -0.2704 -0.1986  0.0139
 9642TIP3    H150417   5.023   3.577  15.284  0.5693 -2.3409 -0.9692
 9642TIP3    H250418   5.150   3.602  15.205 -0.2725  0.0057 -1.6557
 9643TIP3   OH250419   4.391   6.528   2.802 -0.2575  0.5566  0.2821
 9643TIP3    H150420   4.391   6.624   2.792  0.0904  0.4191 -1.2918
 9643TIP3    H250421   4.453   6.497   2.736 -2.2003 -0.9033 -0.9907
 9644TIP3   OH250422   0.227   2.302   3.892 -0.0677 -0.0943 -0.2220
 9644TIP3    H150423   0.252   2.228   3.948 -1.0525 -0.9944 -0.9256
 9644TIP3    H250424   0.309   2.351   3.879  1.2931 -2.5992 -1.9650
 9645TIP3   OH250425   4.442   2.580  13.972  0.3199 -0.4341  0.4564
 9645TIP3    H150426   4.478   2.614  14.054  2.2635  0.0389 -0.5144
 9645TIP3    H250427   4.510   2.521  13.938  0.2091  0.4682 -1.4872
 9646TIP3   OH250428   0.443   0.601  10.887  0.2406 -0.1563 -0.0350
 9646TIP3    H150429   0.484   0.560  10.810 -0.7825  2.8674 -2.4158
 9646TIP3    H250430   0.513   0.654  10.926  0.4371 -0.7179  0.3871
 9647TIP3   OH250431   1.069   3.538   4.878  0.5591 -0.3245 -0.1898
 9647TIP3    H150432   1.095   3.575   4.962  0.7931  0.4094 -0.5756
 9647TIP3    H250433   1.046   3.614   4.824  0.2316 -0.7960 -0.7283
 9648TIP3   OH250434   0.563   6.582  16.348 -0.4555 -0.0804  0.3279
 9648TIP3    H150435   0.550   6.603  16.256  0.5016  1.8045  0.5723
 9648TIP3    H250436   0.487   6.621  16.392 -0.1764  0.2967  0.4801
 9649TIP3   OH250437   2.355   1.325   0.667 -0.5435 -0.0749  0.1022
 9649TIP3    H150438   2.349   1.407   0.618 -3.1334  0.1753  0.6867
 9649TIP3    H250439   2.408   1.347   0.744 -0.0091  0.6508 -0.4656
 9650TIP3   OH250440   6.088   6.504  13.611  0.0727  0.8078 -0.3389
 9650TIP3    H150441   6.059   6.477  13.698 -0.2992  1.7995 -0.1442
 9650TIP3    H250442   6.035   6.452  13.550  0.7448 -0.3211  0.0109
 9651TIP3   OH250443   6.207   3.588   5.649  0.0442  0.4245  0.3789
 9651TIP3    H150444   6.245   3.652   5.710 -0.6307 -0.6335  1.9566
 9651TIP3    H250445   6.118   3.619   5.635 -0.2874 -0.1599  1.1551
 9652TIP3   OH250446   5.999   5.303   2.205  0.5211  0.0961 -0.3800
 9652TIP3    H150447   5.918   5.253   2.201  1.0095 -0.6941 -0.7865
 9652TIP3    H250448   5.973   5.390   2.234 -0.5727  0.0747 -1.2443
 9653TIP3   OH250449   1.640   1.399   0.913 -0.3983  0.3290 -0.4250
 9653TIP3    H150450   1.628   1.328   0.976 -1.0109  0.2414 -0.6328
 9653TIP3    H250451   1.569   1.387   0.849  0.4851  0.1364 -1.3905
 9654TIP3   OH250452   5.405   5.571   2.382 -0.1088  0.5890  0.1302
 9654TIP3    H150453   5.337   5.552   2.447 -1.0708 -0.2588 -1.0776
 9654TIP3    H250454   5.468   5.627   2.428 -0.1432 -0.9377  2.1327
 9655TIP3   OH250455   2.193   3.718  11.380  0.2271 -0.5036 -0.2600
 9655TIP3    H150456   2.151   3.756  11.457  0.5950 -1.6395  0.5259
 9655TIP3    H250457   2.285   3.744  11.388  0.3018 -0.7778 -0.2097
 9656TIP3   OH250458   1.397   2.446  16.293  0.0591 -0.5128  0.2489
 9656TIP3    H150459   1.364   2.372  16.344  2.1502 -1.4757  0.3031
 9656TIP3    H250460   1.477   2.472  16.338 -0.1011  1.1363 -0.3616
 9657TIP3   OH250461   3.004   1.132  12.371 -0.1350  0.3253 -0.2239
 9657TIP3    H150462   2.942   1.064  12.398  0.4030 -0.5667 -1.1629
 9657TIP3    H250463   2.952   1.193  12.320 -0.4909  0.2362  0.0305
 9658TIP3   OH250464   2.267   3.674  14.435  0.0836 -0.2304  0.1222
 9658TIP3    H150465   2.201   3.722  14.385  0.2146 -0.6956 -0.5117
 9658TIP3    H250466   2.312   3.620  14.370 -1.3479 -2.6860  1.0514
 9659TIP3   OH250467   6.337   5.286   5.773 -0.0417 -0.1376  0.3288
 9659TIP3    H150468   6.433   5.285   5.776 -0.0265 -1.7932 -0.1388
 9659TIP3    H250469   6.316   5.353   5.709  0.7142  1.8129  1.9914
 9660TIP3   OH250470   1.423   2.881   3.297  0.0670 -0.1793  0.2932
 9660TIP3    H150471   1.510   2.850   3.269  0.7090  0.9459  0.9408
 9660TIP3    H250472   1.385   2.919   3.218  1.4562  2.0732  0.6123
 9661TIP3   OH250473   1.702   5.017   4.618 -0.2393 -0.3094  0.0185
 9661TIP3    H150474   1.737   4.961   4.549  1.7491 -0.4201  1.0497
 9661TIP3    H250475   1.649   5.081   4.572  2.1117  0.4645 -1.8150
 9662TIP3   OH250476   5.107   4.970  15.427 -0.2143  0.5308  0.1381
 9662TIP3    H150477   5.033   5.019  15.462 -0.6313 -1.2498  1.9513
 9662TIP3    H250478   5.067   4.906  15.368  0.0773  0.7488 -0.2986
 9663TIP3   OH250479   4.561   6.523  16.447  0.4509 -0.3195  0.3435
 9663TIP3    H150480   4.532   6.445  16.399  0.7993 -0.9184  1.0804
 9663TIP3    H250481   4.551   6.499  16.539 -0.8861  1.0728  0.5877
 9664TIP3   OH250482   1.595   5.053  16.056  0.1046  0.0251  0.0874
 9664TIP3    H150483   1.654   5.028  16.127  0.8624  0.8018 -0.2539
 9664TIP3    H250484   1.512   5.013  16.079  0.3139  0.3333  1.4570
 9665TIP3   OH250485   0.896   1.676   2.334  0.4528 -0.3047  0.4185
 9665TIP3    H150486   0.978   1.677   2.284  1.0898  1.2627  1.4106
 9665TIP3    H250487   0.901   1.596   2.387  1.2456 -0.3404  0.3031
 9666TIP3   OH250488   1.645   2.574  14.689 -0.5110 -0.5847 -0.7879
 9666TIP3    H150489   1.575   2.631  14.722  1.1135  1.6728 -1.0311
 9666TIP3    H250490   1.719   2.591  14.747  0.0664 -2.4876 -0.9012
 9667TIP3   OH250491   4.825   4.659  13.545 -0.4758 -0.4605  0.4739
 9667TIP3    H150492   4.878   4.678  13.622 -0.2153 -1.9530  0.6871
 9667TIP3    H250493   4.885   4.669  13.471 -0.2963 -0.6208  0.5982
 9668TIP3   OH250494   6.562   5.133  14.805 -0.2393  0.6429  0.1813
 9668TIP3    H150495   6.603   5.201  14.858 -0.9718  0.8878  0.4601
 9668TIP3    H250496   6.606   5.138  14.720  0.2253  0.9571  0.4386
 9669TIP3   OH250497   5.995   2.865  12.047 -0.2579 -0.0804 -0.1395
 9669TIP3    H150498   5.956   2.944  12.009 -0.7768 -0.3529 -0.1791
 9669TIP3    H250499   5.989   2.879  12.142  0.7454  0.4568 -0.1481
 9670TIP3   OH250500   0.115   6.190  16.083 -0.0681  0.1521 -0.4993
 9670TIP3    H150501   0.154   6.262  16.034  0.1802  0.7315  0.5060
 9670TIP3    H250502   0.180   6.120  16.079 -0.3558 -0.0726 -1.5707
 9671TIP3   OH250503   2.443   5.581  14.728  0.3070  0.2028  0.3075
 9671TIP3    H150504   2.369   5.536  14.769 -0.1254  2.3180  1.9973
 9671TIP3    H250505   2.419   5.673  14.729  2.2614  0.7773 -0.6676
 9672TIP3   OH250506   4.529   3.696  13.062  0.1640  0.3776 -0.7103
 9672TIP3    H150507   4.594   3.703  13.132 -0.4655 -1.0827  0.0622
 9672TIP3    H250508   4.536   3.605  13.032 -1.6403  0.1410 -0.4947
 9673TIP3   OH250509   0.660   2.133  13.828 -0.5193 -0.3726  0.0799
 9673TIP3    H150510   0.713   2.058  13.854  1.5322  1.6044  1.9987
 9673TIP3    H250511   0.687   2.204  13.886 -0.8399  2.4696 -2.9309
 9674TIP3   OH250512   4.192   5.570   0.172  0.1345  0.2114 -0.0778
 9674TIP3    H150513   4.217   5.632   0.241  2.8487 -2.0347  1.1737
 9674TIP3    H250514   4.145   5.500   0.217 -0.6272  0.0741 -1.0347
 9675TIP3   OH250515   5.681   5.579   3.650 -0.1347 -0.4464  0.3058
 9675TIP3    H150516   5.727   5.619   3.576 -0.9552 -0.7413 -0.3876
 9675TIP3    H250517   5.610   5.641   3.670 -0.6018 -0.9094  0.1011
 9676TIP3   OH250518   1.142   4.055   1.265  1.0570 -0.4691 -0.2157
 9676TIP3    H150519   1.178   4.139   1.237  1.3042 -0.4195  0.2302
 9676TIP3    H250520   1.211   3.991   1.244  2.3608 -0.1070  2.5300
 9677TIP3   OH250521   6.821   3.538  16.648  0.3215 -0.3553  0.1155
 9677TIP3    H150522   6.840   3.530  16.554 -0.1663  0.9474 -0.1288
 9677TIP3    H250523   6.851   3.456  16.686 -0.3667 -1.3414 -1.3322
 9678TIP3   OH250524   6.342   0.776  16.044 -0.5363 -0.0424 -0.1104
 9678TIP3    H150525   6.426   0.735  16.025 -0.5013 -0.0488  0.0574
 9678TIP3    H250526   6.290   0.708  16.088 -0.6089 -0.0206 -0.1622
 9679TIP3   OH250527   3.513   0.808  15.077 -0.5573 -0.6745 -0.4037
 9679TIP3    H150528   3.427   0.831  15.111 -0.6600  0.1119 -1.1740
 9679TIP3    H250529   3.546   0.888  15.036 -0.0671 -1.3474 -1.3685
 9680TIP3   OH250530   2.993   2.606   0.626  0.6287 -0.3614 -0.7254
 9680TIP3    H150531   2.962   2.596   0.536  0.2431 -0.8770 -0.5386
 9680TIP3    H250532   3.036   2.523   0.646 -0.3954 -0.7385 -0.0058
 9681TIP3   OH250533   0.035   3.839   1.812  0.1075  0.1655 -0.4371
 9681TIP3    H150534   0.084   3.919   1.832 -0.0628  0.2857 -0.4927
 9681TIP3    H250535   0.055   3.821   1.720  0.2322  0.0835 -0.3934
 9682TIP3   OH250536   3.958   0.388   2.388 -0.6203  0.1483 -0.2924
 9682TIP3    H150537   4.021   0.399   2.317 -0.7727  0.0299 -0.4491
 9682TIP3    H250538   3.991   0.313   2.438  0.3464  1.2025  0.6992
 9683TIP3   OH250539   4.505   1.333  17.115  1.0047  0.5794 -0.6285
 9683TIP3    H150540   4.423   1.376  17.138  0.4789  0.0534 -1.4648
 9683TIP3    H250541   4.508   1.255  17.170  1.4161  1.0911  0.0863
 9684TIP3   OH250542   2.768   6.802   4.982 -0.3644 -0.1391  0.4165
 9684TIP3    H150543   2.771   6.894   4.954 -2.6064 -0.2524 -0.3743
 9684TIP3    H250544   2.789   6.805   5.075 -0.5778  1.2117  0.4410
 9685TIP3   OH250545   2.035   4.009  16.004 -0.2747  0.7695 -0.1182
 9685TIP3    H150546   1.966   3.946  16.026 -0.7612  0.9806 -1.0130
 9685TIP3    H250547   2.116   3.959  16.008 -0.8498 -0.6333 -3.3844
 9686TIP3   OH250548   2.982   2.485   3.576 -0.2896 -0.2962  0.0200
 9686TIP3    H150549   2.963   2.541   3.501 -0.0051 -0.3090 -0.0646
 9686TIP3    H250550   2.917   2.509   3.642  0.0700  0.4110  0.1281
 9687TIP3   OH250551   4.142   4.284  10.887 -0.2254  0.3654 -0.3475
 9687TIP3    H150552   4.229   4.323  10.883 -0.0853 -0.0314 -1.6526
 9687TIP3    H250553   4.111   4.304  10.975  0.1390  2.7530 -0.6921
 9688TIP3   OH250554   1.927   6.301   1.536  0.2092 -0.1005  0.0901
 9688TIP3    H150555   1.945   6.347   1.454  0.6475 -1.4272 -0.5970
 9688TIP3    H250556   2.010   6.259   1.559  0.0807  0.2405  1.2099
 9689TIP3   OH250557   0.211   2.682  15.860  0.0351  0.6061 -0.1709
 9689TIP3    H150558   0.279   2.740  15.894 -0.5039  1.3585 -0.3311
 9689TIP3    H250559   0.218   2.690  15.765  0.4285 -0.1641 -0.2116
 9690TIP3   OH250560   4.821   0.979   2.861  0.8080 -0.0748  0.4051
 9690TIP3    H150561   4.898   0.963   2.808  1.1128 -1.3323  1.1835
 9690TIP3    H250562   4.793   0.892   2.891 -0.3589  0.4391  0.8869
 9691TIP3   OH250563   2.392   6.058   1.353  0.2453  0.1460  0.0810
 9691TIP3    H150564   2.425   5.972   1.380  0.3190  0.7054  1.9114
 9691TIP3    H250565   2.300   6.042   1.330  0.0915 -0.3283  0.9779
 9692TIP3   OH250566   0.483   5.782  15.650  0.6001 -0.1434 -0.2865
 9692TIP3    H150567   0.496   5.687  15.644  2.6330  0.0973 -0.3864
 9692TIP3    H250568   0.539   5.809  15.723 -1.1012  0.8186  0.7223
 9693TIP3   OH250569   3.971   1.316  13.338  0.1858 -0.5819  0.6376
 9693TIP3    H150570   3.981   1.260  13.261  1.1165  0.6637 -0.1782
 9693TIP3    H250571   4.013   1.268  13.409  1.8526 -0.4981 -0.2624
 9694TIP3   OH250572   4.031   5.008  12.105 -0.0895  0.8222 -0.0661
 9694TIP3    H150573   3.950   4.964  12.132  0.7050 -0.7963 -0.1689
 9694TIP3    H250574   4.035   4.993  12.011  2.2251 -2.7012  0.3917
 9695TIP3   OH250575   6.828   3.611  14.034 -0.1205 -0.4261 -0.0891
 9695TIP3    H150576   6.760   3.560  14.076 -0.0954  0.5310  1.1908
 9695TIP3    H250577   6.782   3.685  13.993  0.0015 -0.6037 -0.5577
 9696TIP3   OH250578   2.767   1.316   4.174 -0.2297 -0.3506 -0.1637
 9696TIP3    H150579   2.721   1.293   4.093  0.5562 -2.2491 -0.1174
 9696TIP3    H250580   2.850   1.270   4.169  1.1154  1.8523  0.4287
 9697TIP3   OH250581   1.912   0.377   0.500  1.0662 -0.0843 -0.6274
 9697TIP3    H150582   1.820   0.352   0.508  0.7512  1.1732  0.0717
 9697TIP3    H250583   1.960   0.294   0.502  0.0063 -0.7119  0.0581
 9698TIP3   OH250584   2.131   1.802   3.973 -0.0909  0.4566 -0.1415
 9698TIP3    H150585   2.134   1.864   3.900 -0.1192 -0.6131 -1.0864
 9698TIP3    H250586   2.210   1.821   4.023 -0.4261  1.6729 -0.0452
 9699TIP3   OH250587   6.477   2.200   3.073 -0.4298  0.3948 -0.2788
 9699TIP3    H150588   6.491   2.124   3.129  1.0388  1.7810  1.3638
 9699TIP3    H250589   6.458   2.272   3.133  2.4912  2.2404 -1.3170
 9700TIP3   OH250590   4.527   2.796   3.649 -0.0106  0.2918 -0.0511
 9700TIP3    H150591   4.586   2.732   3.610  0.8586  1.1330 -0.1635
 9700TIP3    H250592   4.534   2.781   3.743  0.2093  0.2368 -0.0752
 9701TIP3   OH250593   3.384   0.925   0.061  0.3001 -0.2588 -0.3325
 9701TIP3    H150594   3.474   0.891   0.053  1.5502  1.3115  3.9718
 9701TIP3    H250595   3.386   1.010   0.017  0.2705 -1.0630 -1.9534
 9702TIP3   OH250596   3.770   3.969   3.278  0.0345 -0.0945 -0.2364
 9702TIP3    H150597   3.679   3.961   3.250  0.3174 -0.5835 -1.0592
 9702TIP3    H250598   3.766   3.981   3.372 -0.8599 -0.5812 -0.2058
 9703TIP3   OH250599   3.919   3.823   1.258 -0.6643 -0.4208 -0.1840
 9703TIP3    H150600   3.843   3.821   1.316  0.7336 -0.8418  1.6925
 9703TIP3    H250601   3.984   3.875   1.304  0.1164  0.1740 -1.8908
 9704TIP3   OH250602   5.213   3.712   0.887  0.3157  0.1914 -0.7534
 9704TIP3    H150603   5.136   3.761   0.858  1.1112  1.4062 -0.8876
 9704TIP3    H250604   5.207   3.713   0.982  0.2587  0.4413 -0.7578
 9705TIP3   OH250605   2.892   1.257  11.594  0.1482 -0.1546  0.6455
 9705TIP3    H150606   2.857   1.340  11.625  0.7877  0.9617 -1.4304
 9705TIP3    H250607   2.817   1.198  11.592 -0.4523  0.5543  1.5023
 9706TIP3   OH250608   1.931   6.218   6.049 -0.1813 -0.3605  0.2951
 9706TIP3    H150609   1.907   6.295   6.101  0.6690 -0.3305  0.6611
 9706TIP3    H250610   1.855   6.161   6.055 -0.7751  0.3919  0.1260
 9707TIP3   OH250611   2.589   3.249   2.480  0.4415 -0.0335  0.0128
 9707TIP3    H150612   2.601   3.280   2.569  0.2827  2.6099 -0.7899
 9707TIP3    H250613   2.615   3.324   2.425 -0.0880 -1.3349 -2.1375
 9708TIP3   OH250614   5.610   3.741   3.845  0.6751  0.0234  0.7085
 9708TIP3    H150615   5.608   3.649   3.818  0.5283 -0.1970  1.4656
 9708TIP3    H250616   5.539   3.749   3.908  1.3569  0.4041  1.4458
 9709TIP3   OH250617   0.734   3.304  13.669 -0.3836  0.3097  0.2331
 9709TIP3    H150618   0.823   3.279  13.696  0.1629  1.9255  0.0459
 9709TIP3    H250619   0.684   3.223  13.675  0.6244 -0.2453  2.2936
 9710TIP3   OH250620   1.867   3.342   0.217 -0.2360  0.4834 -0.7034
 9710TIP3    H150621   1.827   3.255   0.223 -2.1961  1.3117 -0.9060
 9710TIP3    H250622   1.936   3.342   0.284 -0.3986 -1.1101 -0.4978
 9711TIP3   OH250623   1.969   0.596   0.722  0.2617  0.0795 -0.7895
 9711TIP3    H150624   1.985   0.572   0.630  4.4493 -0.4401 -0.1330
 9711TIP3    H250625   1.945   0.514   0.764  1.1713 -0.2844 -0.9524
 9712TIP3   OH250626   5.867   3.851   1.785 -0.1288  0.3474  0.3437
 9712TIP3    H150627   5.873   3.785   1.854  0.9466 -1.2867 -1.2231
 9712TIP3    H250628   5.905   3.930   1.823 -0.1270 -0.3257  1.8007
 9713TIP3   OH250629   3.459   0.217   1.491 -0.3108  0.2629 -0.0024
 9713TIP3    H150630   3.463   0.237   1.397  1.9794 -0.4751 -0.1207
 9713TIP3    H250631   3.416   0.132   1.496 -0.0049  0.0815 -0.4293
 9714TIP3   OH250632   6.167   2.668   4.288 -0.7687  0.3373  0.2604
 9714TIP3    H150633   6.127   2.582   4.285 -0.1465  0.0573 -0.3899
 9714TIP3    H250634   6.163   2.694   4.380 -1.4439 -0.1478  0.3710
 9715TIP3   OH250635   1.746   0.687  16.425 -0.1341  0.1387  0.1966
 9715TIP3    H150636   1.774   0.748  16.493  0.6542  0.0952 -0.0756
 9715TIP3    H250637   1.748   0.601  16.467  2.0768 -0.1281 -0.3189
 9716TIP3   OH250638   1.584   0.900   3.826 -0.4160  0.0039 -0.0139
 9716TIP3    H150639   1.665   0.904   3.877 -1.2528  0.7828  1.2978
 9716TIP3    H250640   1.556   0.809   3.833  0.2947 -0.2553 -0.4182
 9717TIP3   OH250641   1.435   6.792  11.820  0.0764 -0.0055 -0.3691
 9717TIP3    H150642   1.427   6.838  11.903 -1.7082  1.0958 -1.0948
 9717TIP3    H250643   1.529   6.781  11.807  0.5064  2.0778  0.5871
 9718TIP3   OH250644   6.704   4.043  10.914  0.0745  0.4675  0.4028
 9718TIP3    H150645   6.690   4.119  10.858 -0.7623  0.8107  1.0516
 9718TIP3    H250646   6.799   4.036  10.923  0.1978  0.7552 -0.5713
 9719TIP3   OH250647   2.474   1.228   1.836  0.6367  0.1301 -0.1328
 9719TIP3    H150648   2.463   1.282   1.758 -1.4710  0.0959  0.0815
 9719TIP3    H250649   2.514   1.147   1.804  2.1568  1.0694 -0.7336
 9720TIP3   OH250650   0.049   0.381   6.094 -0.2462  0.3361  0.4689
 9720TIP3    H150651   0.109   0.402   6.166  0.5560  0.5232 -0.2397
 9720TIP3    H250652  -0.025   0.337   6.137  1.5758 -2.3829  1.0880
 9721TIP3   OH250653   1.647   5.649  16.728  0.0642 -0.7555  0.1104
 9721TIP3    H150654   1.688   5.615  16.807  2.6467  1.3683 -0.1652
 9721TIP3    H250655   1.638   5.574  16.671  0.7587 -1.8340  1.3715
 9722TIP3   OH250656   4.323   1.124   2.059 -0.2549  0.0460  0.5130
 9722TIP3    H150657   4.382   1.058   2.093 -0.8359 -0.3869  0.6958
 9722TIP3    H250658   4.255   1.074   2.012  0.7159  0.6234 -1.6181
 9723TIP3   OH250659   0.761   3.905  16.413 -0.1342  0.1851  0.7839
 9723TIP3    H150660   0.762   3.874  16.322  0.8320  0.9860  0.4905
 9723TIP3    H250661   0.685   3.963  16.418  0.4591  1.0457  0.1369
 9724TIP3   OH250662   2.403   6.453  16.435  0.6875  0.5627  0.3032
 9724TIP3    H150663   2.408   6.366  16.394  0.8390  0.6256  0.1889
 9724TIP3    H250664   2.397   6.435  16.529 -2.4989  0.2908  0.1686
 9725TIP3   OH250665   2.922   0.959  12.774  0.4465 -0.5004  0.4820
 9725TIP3    H150666   3.009   0.968  12.815  1.3265 -0.2064 -1.3581
 9725TIP3    H250667   2.936   0.895  12.704 -1.0959 -1.2389  0.8158
 9726TIP3   OH250668   0.791   3.391  11.361  0.0487 -0.2405  0.2857
 9726TIP3    H150669   0.752   3.437  11.435  0.1664  1.3087 -0.5885
 9726TIP3    H250670   0.724   3.327  11.335 -2.3616  2.7891 -1.6177
 9727TIP3   OH250671   2.415   6.004   5.277  0.6067 -0.1860 -0.1244
 9727TIP3    H150672   2.405   5.962   5.362  1.1833  1.4720  0.8016
 9727TIP3    H250673   2.504   5.984   5.250  1.2193  1.1682  0.7736
 9728TIP3   OH250674   3.965   2.826  15.949 -0.1545  0.1786 -0.3340
 9728TIP3    H150675   3.900   2.860  15.888 -1.2036  2.0894  1.7081
 9728TIP3    H250676   3.915   2.773  16.011  0.6104 -0.2309 -0.0408
 9729TIP3   OH250677   1.614   0.787   5.174  0.6270 -0.0185 -0.2812
 9729TIP3    H150678   1.667   0.830   5.107 -0.9420  1.0794 -0.8772
 9729TIP3    H250679   1.595   0.857   5.237  1.3235 -0.8190  0.8479
 9730TIP3   OH250680   2.909   1.180  15.942 -0.1917 -0.3973  0.1497
 9730TIP3    H150681   2.911   1.129  15.861  2.5354  0.4419 -0.4169
 9730TIP3    H250682   2.939   1.118  16.009  1.2472 -0.1143 -0.1994
 9731TIP3   OH250683   4.828   2.034  11.005  0.2410  0.2506  0.3011
 9731TIP3    H150684   4.895   2.032  10.936  0.8521 -0.8149  0.8861
 9731TIP3    H250685   4.767   2.102  10.978 -0.8311 -1.6529 -2.5177
 9732TIP3   OH250686   5.878   5.091   4.532  0.5590  0.0403 -0.4488
 9732TIP3    H150687   5.807   5.057   4.478 -1.4790  3.2252 -0.0464
 9732TIP3    H250688   5.836   5.116   4.614  2.5745  0.0968  0.6283
 9733TIP3   OH250689   2.499   2.144   1.258 -0.3982  0.5683 -0.0177
 9733TIP3    H150690   2.532   2.103   1.338  0.1291 -0.5360 -0.7919
 9733TIP3    H250691   2.426   2.199   1.289  0.9075  1.5630  1.4501
 9734TIP3   OH250692   4.332   3.639  16.465  0.7449 -0.5216  0.1390
 9734TIP3    H150693   4.325   3.619  16.371  1.8097 -3.8093  0.6327
 9734TIP3    H250694   4.253   3.603  16.503  0.3415  0.7595  0.5630
 9735TIP3   OH250695   4.496   1.180  12.729  0.4410 -0.4996  0.0542
 9735TIP3    H150696   4.413   1.137  12.748 -0.4140  0.4116 -1.4146
 9735TIP3    H250697   4.522   1.221  12.812 -0.5971 -0.7678  0.5224
 9736TIP3   OH250698   5.123   3.642   0.237 -0.4407  0.3081  0.1295
 9736TIP3    H150699   5.035   3.668   0.264 -0.7506 -0.5536  0.0067
 9736TIP3    H250700   5.115   3.549   0.217  0.4206  0.3000 -0.2365
 9737TIP3   OH250701   6.697   6.762  12.395  0.1258  0.4991  0.7521
 9737TIP3    H150702   6.760   6.690  12.392 -3.1208 -2.7012  1.6101
 9737TIP3    H250703   6.647   6.754  12.314 -0.5204  1.5677  1.0198
 9738TIP3   OH250704   1.628   6.831   6.078  0.0796  0.8787  0.2805
 9738TIP3    H150705   1.696   6.765   6.079  0.2130  0.9458  2.8952
 9738TIP3    H250706   1.673   6.913   6.098 -0.7112  0.8943  2.2437
 9739TIP3   OH250707   4.260   6.332  16.175 -0.0456 -0.2009  0.3969
 9739TIP3    H150708   4.317   6.307  16.248 -1.0724 -2.3825  0.5156
 9739TIP3    H250709   4.188   6.380  16.216  0.6494  0.8045  0.4799
 9740TIP3   OH250710   0.951   3.608   1.578 -0.1222  0.1687 -0.1637
 9740TIP3    H150711   1.032   3.646   1.544 -0.4264 -0.3811 -1.5611
 9740TIP3    H250712   0.893   3.683   1.588  0.4590  0.5359  0.6133
 9741TIP3   OH250713   4.603   2.278   6.039 -0.2370  0.5869 -0.2607
 9741TIP3    H150714   4.552   2.228   5.975 -2.9350  4.3237 -1.3709
 9741TIP3    H250715   4.572   2.247   6.124  0.0927 -1.3199 -0.7953
 9742TIP3   OH250716   2.322   0.948   3.683  0.2852 -0.4797 -0.5304
 9742TIP3    H150717   2.347   0.927   3.772  0.1944 -0.9990 -0.6217
 9742TIP3    H250718   2.325   1.044   3.678 -0.5534 -0.3955  0.2812
 9743TIP3   OH250719   0.784   2.832  12.747 -0.4179 -0.1103 -0.2984
 9743TIP3    H150720   0.827   2.751  12.774 -3.3808 -1.4974  0.7448
 9743TIP3    H250721   0.767   2.878  12.829 -2.5929 -0.5923 -0.4254
 9744TIP3   OH250722   0.699   4.246  16.179 -0.7112 -0.2391 -0.3188
 9744TIP3    H150723   0.748   4.168  16.153  0.9439  0.2090  1.3127
 9744TIP3    H250724   0.751   4.286  16.248 -3.5705  0.0574  1.8655
 9745TIP3   OH250725   2.028   3.998   2.533 -0.4749  0.0473  0.1828
 9745TIP3    H150726   1.946   4.046   2.527 -1.0302 -1.0301 -1.5533
 9745TIP3    H250727   2.007   3.922   2.588 -0.6197 -0.1468 -0.1347
 9746TIP3   OH250728   5.021   5.581   4.461 -0.5892 -0.5244  0.6365
 9746TIP3    H150729   4.938   5.593   4.415 -0.2370  1.2512  0.4134
 9746TIP3    H250730   5.002   5.603   4.552 -0.3916 -0.2884  0.6194
 9747TIP3   OH250731   5.154   2.737  17.145 -0.3049  0.1575 -0.4421
 9747TIP3    H150732   5.178   2.795  17.072 -1.1285  0.9352 -0.1163
 9747TIP3    H250733   5.203   2.771  17.220 -1.3014  0.8760 -0.0968
 9748TIP3   OH250734   6.294   6.074   1.261 -0.1347 -0.1578  0.2395
 9748TIP3    H150735   6.209   6.034   1.241  0.0637 -0.7958  0.6630
 9748TIP3    H250736   6.280   6.167   1.247 -0.6038 -0.3669 -0.7695
 9749TIP3   OH250737   1.244   0.654  13.104 -0.0391 -0.3016 -0.4168
 9749TIP3    H150738   1.228   0.568  13.064 -1.9821 -0.1386 -0.0920
 9749TIP3    H250739   1.309   0.695  13.047 -0.4567 -1.2800 -1.6492
 9750TIP3   OH250740   2.917   6.284   5.929  0.2684 -0.5493  0.3456
 9750TIP3    H150741   2.929   6.373   5.895  2.1956 -0.9867 -0.2723
 9750TIP3    H250742   2.883   6.234   5.855  0.3862 -0.5795  0.3106
 9751TIP3   OH250743   3.506   1.269  13.978  0.0173 -0.0654  0.4193
 9751TIP3    H150744   3.451   1.334  13.935 -1.7872 -1.4217  0.5599
 9751TIP3    H250745   3.444   1.211  14.023  1.7122  0.0820  3.1393
 9752TIP3   OH250746   0.002   2.897   5.231 -0.6670 -0.0323 -0.0077
 9752TIP3    H150747   0.014   2.880   5.138  2.1573 -0.2930  0.3159
 9752TIP3    H250748  -0.029   2.988   5.235 -3.1587 -0.7298 -1.2080
 9753TIP3   OH250749   3.612   4.583  13.865  0.2633 -0.2055  0.8045
 9753TIP3    H150750   3.589   4.568  13.956  1.0335 -1.0947  0.8602
 9753TIP3    H250751   3.606   4.497  13.823  0.5818  0.0719  0.1668
 9754TIP3   OH250752   4.697   3.192  11.571 -0.2255  0.4357 -0.5382
 9754TIP3    H150753   4.707   3.234  11.656  0.0637 -2.7004  1.1287
 9754TIP3    H250754   4.687   3.264  11.509 -0.4479  2.8500  2.1249
 9755TIP3   OH250755   4.487   6.395   0.431 -0.2197 -0.3959  0.4080
 9755TIP3    H150756   4.488   6.491   0.426 -0.7838 -0.4535 -1.6129
 9755TIP3    H250757   4.564   6.373   0.483  0.8912  1.1109 -0.5244
 9756TIP3   OH250758   5.736   2.949   2.933  0.6966  0.3040 -0.3052
 9756TIP3    H150759   5.729   3.021   2.995 -0.1536  0.0050 -0.0318
 9756TIP3    H250760   5.823   2.957   2.895  1.3464  0.3304  1.1307
 9757TIP3   OH250761   1.816   3.849   3.841  1.2619 -0.1817 -0.6522
 9757TIP3    H150762   1.764   3.895   3.907  0.9712  0.3293 -1.2259
 9757TIP3    H250763   1.792   3.757   3.852  0.2450  0.0430 -0.8944
 9758TIP3   OH250764   2.887   1.960   1.677 -0.2616  0.0629 -0.2003
 9758TIP3    H150765   2.934   1.956   1.593 -0.9818  0.0998 -0.6125
 9758TIP3    H250766   2.956   1.951   1.743  0.4160  0.8498 -0.7715
 9759TIP3   OH250767   3.233   6.166  11.650  0.6168  0.2000 -0.3613
 9759TIP3    H150768   3.278   6.237  11.603  0.0829  0.4060 -0.5606
 9759TIP3    H250769   3.211   6.102  11.582 -1.7937  1.3300 -0.7358
 9760TIP3   OH250770   1.291   4.331  10.578 -0.2139 -0.1216 -0.4674
 9760TIP3    H150771   1.226   4.263  10.594 -1.2385  0.5123 -1.6956
 9760TIP3    H250772   1.371   4.298  10.619 -0.7193 -1.9767 -0.8555
 9761TIP3   OH250773   6.179   3.318  13.881  0.4446  0.0015  0.0158
 9761TIP3    H150774   6.226   3.354  13.806  1.8083  0.2538  0.9466
 9761TIP3    H250775   6.178   3.390  13.945 -1.7949  0.2260 -0.1647
 9762TIP3   OH250776   4.282   3.143   1.193 -0.2192 -0.1593  0.2079
 9762TIP3    H150777   4.211   3.080   1.204 -1.0661  0.7839  0.2463
 9762TIP3    H250778   4.288   3.188   1.278 -0.7472  0.9454 -0.3186
 9763TIP3   OH250779   5.203   5.177  16.751 -0.4707  0.0663 -0.0976
 9763TIP3    H150780   5.189   5.106  16.689  1.3943  0.6280 -1.2267
 9763TIP3    H250781   5.246   5.134  16.826 -0.2683 -0.1693 -0.3431
 9764TIP3   OH250782   3.030   6.693   4.924 -0.0707  0.2795 -0.1702
 9764TIP3    H150783   3.104   6.752   4.931 -0.1387  0.6267 -1.8899
 9764TIP3    H250784   2.954   6.750   4.915 -0.3572 -0.0690 -0.0030
 9765TIP3   OH250785   2.411   4.994  16.348 -0.2287  0.4232 -0.0508
 9765TIP3    H150786   2.425   5.055  16.420 -0.9917 -0.5604  0.9669
 9765TIP3    H250787   2.353   5.040  16.288  0.1791  1.1465  0.0945
 9766TIP3   OH250788   1.343   3.219  16.167  0.1173  0.0001  0.1559
 9766TIP3    H150789   1.361   3.267  16.086 -1.5112  0.5363  0.0728
 9766TIP3    H250790   1.271   3.160  16.144  2.3937 -2.9898  0.0984
 9767TIP3   OH250791   2.768   4.469   5.748 -0.1826  0.6754  0.1291
 9767TIP3    H150792   2.850   4.481   5.701 -0.4321  1.2737 -0.1706
 9767TIP3    H250793   2.780   4.389   5.799  0.0176 -0.1400 -1.1441
 9768TIP3   OH250794   3.899   6.374  17.155 -0.4379  0.2282 -0.3884
 9768TIP3    H150795   3.877   6.390  17.063 -1.7181  1.6891  0.1127
 9768TIP3    H250796   3.954   6.448  17.180  0.3855 -0.4618 -0.1115
 9769TIP3   OH250797   3.610   6.351  16.241  0.4549  0.0472 -0.9109
 9769TIP3    H150798   3.597   6.385  16.152 -0.4195  0.7270 -0.5361
 9769TIP3    H250799   3.697   6.312  16.239 -0.4306 -2.0562 -2.7211
 9770TIP3   OH250800   5.255   1.229   3.590 -0.1294  0.1310 -1.2133
 9770TIP3    H150801   5.165   1.260   3.578 -0.1965  0.0873 -0.8557
 9770TIP3    H250802   5.249   1.167   3.663  0.3109  0.7110 -0.6715
 9771TIP3   OH250803   6.494   4.173   1.358  0.3013 -0.1348 -0.0185
 9771TIP3    H150804   6.486   4.078   1.367 -0.3494 -0.0797  0.0085
 9771TIP3    H250805   6.558   4.185   1.288 -1.3246 -0.6157 -1.6360
 9772TIP3   OH250806   3.959   2.762  16.290  0.0508  0.2866  0.1619
 9772TIP3    H150807   4.010   2.821  16.346 -0.3368 -0.0262  0.8602
 9772TIP3    H250808   3.876   2.809  16.276 -1.3038 -1.1009  2.8226
 9773TIP3   OH250809   0.295   6.381  13.918  0.2424 -0.1999 -0.1736
 9773TIP3    H150810   0.281   6.458  13.973  0.7128 -0.7091  0.6708
 9773TIP3    H250811   0.255   6.405  13.834 -0.1409  0.7338  0.2562
 9774TIP3   OH250812   4.817   1.060   6.223  0.2332  0.0667 -0.0245
 9774TIP3    H150813   4.811   1.151   6.254 -0.5096  0.6178 -1.6848
 9774TIP3    H250814   4.883   1.021   6.280  1.0386  1.8234  0.3446
 9775TIP3   OH250815   2.355   2.202   5.194  0.3973 -0.0801  0.0887
 9775TIP3    H150816   2.379   2.120   5.151 -1.4975 -0.2478 -0.7630
 9775TIP3    H250817   2.337   2.263   5.122  0.2902  0.6072  0.6824
 9776TIP3   OH250818   0.448   6.378  16.500  0.1982  0.2131 -0.4080
 9776TIP3    H150819   0.457   6.362  16.406  0.8380 -2.2481  0.0177
 9776TIP3    H250820   0.512   6.447  16.518  1.3002 -0.4754 -1.5048
 9777TIP3   OH250821   0.003   0.202  11.665 -0.0127 -0.0417 -0.0091
 9777TIP3    H150822   0.062   0.153  11.609  0.6239  1.7454 -1.0032
 9777TIP3    H250823   0.053   0.280  11.690 -0.9255  0.0886  1.5891
 9778TIP3   OH250824   4.516   6.822  15.520  0.6546 -0.1256  0.3415
 9778TIP3    H150825   4.585   6.887  15.522 -0.1118  0.8053 -1.5978
 9778TIP3    H250826   4.501   6.800  15.613  0.7037  2.7134  1.1047
 9779TIP3   OH250827   1.416   6.286  12.018  0.0839  0.4166  0.0243
 9779TIP3    H150828   1.466   6.367  12.028 -1.2281  1.2141  0.3672
 9779TIP3    H250829   1.482   6.217  12.019  1.1487  1.4028  0.8582
 9780TIP3   OH250830   3.372   6.622   3.107 -0.1433 -0.1071  0.0758
 9780TIP3    H150831   3.466   6.609   3.117 -0.5300 -3.0672  0.7679
 9780TIP3    H250832   3.333   6.583   3.186 -1.9801  0.3753 -0.5326
 9781TIP3   OH250833   4.272   0.749   5.021 -0.0714  0.1785  0.2482
 9781TIP3    H150834   4.201   0.710   5.071 -0.8237  0.1526 -0.8040
 9781TIP3    H250835   4.294   0.830   5.068  0.6896 -0.8780  1.7758
 9782TIP3   OH250836   2.203   0.850  12.226 -0.7265 -0.8225 -0.2945
 9782TIP3    H150837   2.130   0.870  12.286 -0.1491 -1.8355  0.7767
 9782TIP3    H250838   2.278   0.894  12.266 -0.4513 -1.0206 -0.5979
 9783TIP3   OH250839   5.787   1.556  16.685 -0.4465  0.1996 -0.4062
 9783TIP3    H150840   5.715   1.512  16.731  0.7837  0.8366  2.3414
 9783TIP3    H250841   5.865   1.507  16.711  0.5906  2.1201  0.2885
 9784TIP3   OH250842   0.457   3.975  15.111 -0.2718 -0.1935  0.0474
 9784TIP3    H150843   0.534   4.012  15.069  0.3676 -1.3597  0.1480
 9784TIP3    H250844   0.397   3.957  15.039 -0.1212 -0.0249 -0.1202
 9785TIP3   OH250845   0.893   0.590  12.145 -0.1370 -0.6122  0.0337
 9785TIP3    H150846   0.917   0.677  12.113  0.3077 -0.5563  0.5141
 9785TIP3    H250847   0.966   0.534  12.119  0.1870 -0.5834  0.8703
 9786TIP3   OH250848   1.938   3.914   1.632 -0.4141  0.1944 -0.2793
 9786TIP3    H150849   2.030   3.902   1.652 -0.8400  0.0552  1.7842
 9786TIP3    H250850   1.902   3.826   1.630 -0.7897  0.3200  0.5264
 9787TIP3   OH250851   2.552   5.500   2.264  0.1503 -0.1239  0.3223
 9787TIP3    H150852   2.499   5.573   2.231  3.3628  0.9595 -3.1382
 9787TIP3    H250853   2.549   5.435   2.194  1.2369 -1.1948  1.2348
 9788TIP3   OH250854   1.611   4.493   4.733 -0.2411  0.4156 -0.1246
 9788TIP3    H150855   1.659   4.474   4.653 -1.3117  0.5602 -0.8324
 9788TIP3    H250856   1.607   4.589   4.737  2.4160  0.5650  1.7544
 9789TIP3   OH250857   4.820   2.629   6.175  0.3056  0.6465  0.3482
 9789TIP3    H150858   4.915   2.618   6.177  0.1100 -2.3484 -0.9911
 9789TIP3    H250859   4.791   2.601   6.262  0.4907 -2.3834 -0.4434
 9790TIP3   OH250860   1.527   4.301  15.202  0.0509  0.0755  0.1489
 9790TIP3    H150861   1.543   4.207  15.213  2.0995  0.3867  0.3199
 9790TIP3    H250862   1.543   4.339  15.288  2.6308  0.9185 -0.5957
 9791TIP3   OH250863   2.577   5.162   0.719  0.3477 -0.2445  0.4922
 9791TIP3    H150864   2.624   5.191   0.641  1.6036  0.1821  1.3633
 9791TIP3    H250865   2.558   5.243   0.767 -2.5331 -0.2589 -0.4463
 9792TIP3   OH250866   6.146   4.551   4.624 -0.5029  0.0076 -0.0708
 9792TIP3    H150867   6.238   4.535   4.644 -0.6062  1.0414  1.4116
 9792TIP3    H250868   6.133   4.513   4.537  1.1696 -0.6537 -0.0670
 9793TIP3   OH250869   4.104   6.688   0.375 -0.0248 -0.7462  0.1187
 9793TIP3    H150870   4.023   6.648   0.406 -0.3490  0.0334  0.3094
 9793TIP3    H250871   4.100   6.778   0.407  0.2074 -0.2605 -1.1411
 9794TIP3   OH250872   4.259   5.465   3.515 -0.1299  1.6075 -0.3778
 9794TIP3    H150873   4.296   5.406   3.581 -2.0430  0.8161  0.0607
 9794TIP3    H250874   4.329   5.478   3.452  0.2907 -1.4214 -0.6585
 9795TIP3   OH250875   3.666   4.749   3.703 -0.0697 -0.1953 -0.4527
 9795TIP3    H150876   3.699   4.667   3.742  0.0748 -0.4842 -1.1754
 9795TIP3    H250877   3.663   4.731   3.609 -0.8624  0.3460 -0.5323
 9796TIP3   OH250878   5.310   0.832   4.126 -0.3987  0.3285 -0.7668
 9796TIP3    H150879   5.297   0.761   4.189  1.1624 -1.9654 -2.8507
 9796TIP3    H250880   5.252   0.811   4.054  2.5000 -0.9425 -2.9447
 9797TIP3   OH250881   6.120   6.233  17.005 -0.3877  0.3178 -0.2800
 9797TIP3    H150882   6.123   6.221  16.910  1.9118  1.8293 -0.4781
 9797TIP3    H250883   6.180   6.166  17.039 -2.3474 -1.2317  0.3139
 9798TIP3   OH250884   1.773   5.232   1.274  0.1441  0.1133  0.0200
 9798TIP3    H150885   1.854   5.284   1.275  0.6689 -0.7071  0.3737
 9798TIP3    H250886   1.800   5.147   1.240 -0.3354 -0.5638  1.3033
 9799TIP3   OH250887   2.470   0.048  11.641  0.8096  0.0646 -0.6676
 9799TIP3    H150888   2.391   0.095  11.615  0.5769 -1.7303 -3.6585
 9799TIP3    H250889   2.513   0.106  11.703 -1.2551  2.5096 -1.3438
 9800TIP3   OH250890   4.681   5.223  16.960 -0.0442 -0.1980 -0.1385
 9800TIP3    H150891   4.598   5.248  16.919 -0.3234 -0.9232 -0.0433
 9800TIP3    H250892   4.725   5.306  16.979 -1.0116  0.2168  0.3458
 9801TIP3   OH250893   2.531   2.274  13.499 -0.4753  0.3142  0.0839
 9801TIP3    H150894   2.524   2.366  13.524 -0.3056  0.0529  1.1450
 9801TIP3    H250895   2.604   2.240  13.552 -1.4348 -0.7657  0.7659
 9802TIP3   OH250896   3.511   5.614   1.323 -0.2877  0.0991 -0.3802
 9802TIP3    H150897   3.425   5.651   1.343 -0.0529  0.2521  0.4128
 9802TIP3    H250898   3.496   5.520   1.319 -0.5557  0.1502 -0.5628
 9803TIP3   OH250899   6.388   0.486   1.982  0.1451  0.3044  0.1247
 9803TIP3    H150900   6.431   0.448   2.058 -1.6972 -0.4958  0.8233
 9803TIP3    H250901   6.355   0.411   1.933 -0.7014  0.9005 -0.2383
 9804TIP3   OH250902   0.233   1.367   2.756 -0.1791  0.0486  0.0464
 9804TIP3    H150903   0.181   1.428   2.704 -1.7991 -1.7019 -0.5075
 9804TIP3    H250904   0.204   1.382   2.846 -0.3301  0.3363 -0.0483
 9805TIP3   OH250905   6.108   6.528  13.195 -0.5627  0.0100 -0.0928
 9805TIP3    H150906   6.178   6.590  13.177 -0.7271  0.3848  0.5376
 9805TIP3    H250907   6.148   6.442  13.182 -0.3071  0.2329 -0.8620
 9806TIP3   OH250908   3.599   1.414  16.120  0.3601  0.1346  0.1794
 9806TIP3    H150909   3.587   1.495  16.072 -0.7108  0.0869  0.3516
 9806TIP3    H250910   3.659   1.363  16.066  0.6909  0.8523 -0.1465
 9807TIP3   OH250911   1.144   0.108  11.980 -0.4052 -0.3577  0.0219
 9807TIP3    H150912   1.228   0.112  12.026 -0.6916  0.1362  0.5208
 9807TIP3    H250913   1.168   0.104  11.887  0.1721 -0.7206  0.1778
 9808TIP3   OH250914   6.077   6.606   5.663  0.4929 -0.3993  0.6452
 9808TIP3    H150915   6.155   6.551   5.671  1.1107 -0.1747 -2.4909
 9808TIP3    H250916   6.020   6.558   5.604  0.3891  1.5731 -0.9555
 9809TIP3   OH250917   5.004   5.949   1.422  0.1389 -0.1704  0.3176
 9809TIP3    H150918   5.022   5.855   1.420  1.0992 -0.0377  1.4255
 9809TIP3    H250919   4.912   5.955   1.446 -0.4883 -0.8279 -1.6938
 9810TIP3   OH250920   2.639   4.831  11.768  0.5046  0.7044 -0.0771
 9810TIP3    H150921   2.585   4.843  11.690  1.4593 -2.5226 -1.4124
 9810TIP3    H250922   2.585   4.779  11.827 -0.0102  2.6757  1.2670
 9811TIP3   OH250923   2.135   6.826  12.198  0.1179 -0.0843 -1.3046
 9811TIP3    H150924   2.165   6.737  12.218 -2.2092 -1.0851 -1.9471
 9811TIP3    H250925   2.209   6.866  12.151  1.4851 -1.3960 -0.3899
 9812TIP3   OH250926   4.921   4.881  12.412 -0.4184 -0.0515  0.1639
 9812TIP3    H150927   5.001   4.858  12.458  0.8339 -0.0605 -1.9045
 9812TIP3    H250928   4.853   4.830  12.456  0.7132 -0.2589  1.7806
 9813TIP3   OH250929   5.770   3.542  12.394  0.0453 -0.1338  0.0117
 9813TIP3    H150930   5.831   3.612  12.420 -1.7861  1.0446  1.3579
 9813TIP3    H250931   5.685   3.586  12.389 -1.2120 -2.3406  1.1262
 9814TIP3   OH250932   1.318   1.972   3.143 -0.0838 -0.1997 -0.1857
 9814TIP3    H150933   1.353   1.884   3.141 -0.2666 -0.2729 -1.5569
 9814TIP3    H250934   1.241   1.966   3.199 -0.4451 -1.0630 -0.7508
 9815TIP3   OH250935   3.729   4.672  10.905  0.0583 -0.4602  0.0505
 9815TIP3    H150936   3.699   4.756  10.868  0.5349 -0.5815 -0.6312
 9815TIP3    H250937   3.655   4.642  10.957  0.1993  0.7999  1.0201
 9816TIP3   OH250938   4.292   4.986  15.667 -0.6198 -0.0131 -0.1271
 9816TIP3    H150939   4.244   4.953  15.743  1.7929  0.6387  1.8133
 9816TIP3    H250940   4.378   4.947  15.674  0.3641  1.7861 -1.2778
 9817TIP3   OH250941   2.161   0.140  15.415 -0.0719 -0.2223 -0.5958
 9817TIP3    H150942   2.101   0.176  15.349  1.0625  3.1799  0.0293
 9817TIP3    H250943   2.238   0.113  15.366 -1.1052 -2.3935 -1.1289
 9818TIP3   OH250944   0.453   3.916  13.798  0.4064  0.4305  0.3506
 9818TIP3    H150945   0.483   3.872  13.877 -1.6619 -0.5971  0.6177
 9818TIP3    H250946   0.365   3.882  13.783  1.0404 -0.1147 -2.9317
 9819TIP3   OH250947   1.923   6.151  16.994  0.0692  0.6430  0.0745
 9819TIP3    H150948   2.016   6.173  16.999  0.8410 -1.8854 -1.3838
 9819TIP3    H250949   1.906   6.142  16.900 -1.6867  1.0627  0.3171
 9820TIP3   OH250950   4.328   5.878   5.097  0.0980  0.0470 -0.0889
 9820TIP3    H150951   4.244   5.851   5.060  0.2429 -0.3181 -0.1640
 9820TIP3    H250952   4.306   5.924   5.177 -0.1495 -0.5909  0.2170
 9821TIP3   OH250953   0.631   5.111  12.713  0.0167  0.0195 -0.3868
 9821TIP3    H150954   0.601   5.175  12.648  0.6964  0.4930 -0.2511
 9821TIP3    H250955   0.696   5.159  12.764  2.3252 -1.4265 -1.7898
 9822TIP3   OH250956   5.687   3.069   1.420 -0.3332 -0.0058  0.2102
 9822TIP3    H150957   5.649   2.996   1.371 -1.6918 -0.4705  1.8462
 9822TIP3    H250958   5.698   3.035   1.509 -0.2774  1.5528  0.8280
 9823TIP3   OH250959   6.794   1.369   2.230 -0.3413  0.2821 -0.8331
 9823TIP3    H150960   6.753   1.300   2.283  1.6251  0.0629  0.5385
 9823TIP3    H250961   6.728   1.393   2.165 -2.3119 -0.5241  0.7785
 9824TIP3   OH250962   0.977   4.363  15.673  0.0274  0.5707 -0.2763
 9824TIP3    H150963   1.052   4.423  15.670 -1.2820  2.2789 -1.9284
 9824TIP3    H250964   0.911   4.410  15.724 -0.9900  0.5399 -1.5108
 9825TIP3   OH250965   1.520   0.393  12.235 -0.0707 -0.7217  0.4054
 9825TIP3    H150966   1.605   0.412  12.196  0.1162 -0.5671  0.8784
 9825TIP3    H250967   1.518   0.446  12.315 -0.3646 -1.1803  0.7077
 9826TIP3   OH250968   5.543   1.056   1.607 -0.1776  0.2764 -0.1795
 9826TIP3    H150969   5.451   1.081   1.611  0.3232  2.1336  0.5126
 9826TIP3    H250970   5.591   1.137   1.620  1.5767 -0.7745  0.2615
 9827TIP3   OH250971   3.019   4.605  12.825 -0.0945 -0.3223  0.7299
 9827TIP3    H150972   3.074   4.536  12.788  1.6339  1.2863  0.0821
 9827TIP3    H250973   3.011   4.669  12.754  0.5547  1.3293  2.0816
 9828TIP3   OH250974   2.814   0.674  14.609 -0.0783  0.0160  0.3176
 9828TIP3    H150975   2.805   0.624  14.690 -1.3832 -1.7959 -0.8496
 9828TIP3    H250976   2.770   0.757  14.625 -0.3982 -0.3614  1.4328
 9829TIP3   OH250977   3.565   5.798   1.129 -0.0921 -0.0292  0.1586
 9829TIP3    H150978   3.577   5.734   1.058  1.2634 -0.1549  0.4703
 9829TIP3    H250979   3.527   5.747   1.200 -0.7089 -0.0802 -0.1987
 9830TIP3   OH250980   2.024   5.256  13.480  0.5011 -0.0953  0.0729
 9830TIP3    H150981   1.982   5.342  13.473 -1.5833 -0.7951  2.4502
 9830TIP3    H250982   2.036   5.243  13.575  0.8778 -2.3487 -0.2232
 9831TIP3   OH250983   4.423   1.003  16.548  0.5498  0.0557 -0.1857
 9831TIP3    H150984   4.351   0.957  16.591 -1.2016  0.3013 -2.6235
 9831TIP3    H250985   4.395   1.011  16.456  1.2765  4.7555 -0.2631
 9832TIP3   OH250986   5.514   1.489   2.984  0.0110  0.1427  0.1123
 9832TIP3    H150987   5.570   1.562   3.010  1.0163  0.0615 -1.6518
 9832TIP3    H250988   5.428   1.527   2.971  0.6652  1.2068 -1.4507
 9833TIP3   OH250989   2.663   3.875  14.688  0.0164 -0.1177  0.0449
 9833TIP3    H150990   2.591   3.877  14.626 -1.4665 -0.2437  1.6954
 9833TIP3    H250991   2.629   3.917  14.767  1.0421 -1.9735  1.5762
 9834TIP3   OH250992   3.927   1.036   0.395  0.6298  0.5670  0.0783
 9834TIP3    H150993   3.906   1.082   0.313 -2.6165 -2.4185 -1.0022
 9834TIP3    H250994   3.880   1.084   0.463 -1.5869 -0.2186 -0.8196
 9835TIP3   OH250995   2.539   2.818  13.920 -0.1032 -0.6334 -0.0774
 9835TIP3    H150996   2.589   2.900  13.920 -1.0454  0.1450  3.7172
 9835TIP3    H250997   2.447   2.846  13.924 -0.6369 -1.9860 -1.6001
 9836TIP3   OH250998   4.851   1.801   0.294  0.0093  0.1784 -0.2625
 9836TIP3    H150999   4.772   1.780   0.345 -0.0829  0.9874 -0.0497
 9836TIP3    H251000   4.818   1.845   0.216  0.2840  1.5101  0.3399
 9837TIP3   OH251001   2.732   6.570  16.529  0.1072  0.2780 -0.4745
 9837TIP3    H151002   2.707   6.634  16.595  0.8881  0.7813 -0.6520
 9837TIP3    H251003   2.711   6.611  16.445 -0.3534 -0.1242 -0.5556
 9838TIP3   OH251004   4.638   6.326   4.512  0.1934 -0.1232  0.0149
 9838TIP3    H151005   4.549   6.355   4.491 -0.2713 -1.4012  0.1486
 9838TIP3    H251006   4.626   6.240   4.552  1.3396  0.5851  2.0335
 9839TIP3   OH251007   2.089   3.027   0.366  0.1564 -0.5296  0.2326
 9839TIP3    H151008   2.165   3.084   0.375 -1.0933  1.0637  1.0564
 9839TIP3    H251009   2.031   3.052   0.438 -0.6674 -2.5218  0.3336
 9840TIP3   OH251010   2.883   6.752   3.431  0.0654 -0.3666 -0.5060
 9840TIP3    H151011   2.831   6.682   3.394 -0.2667 -0.7232  0.5972
 9840TIP3    H251012   2.960   6.709   3.467 -0.3668 -0.2490  0.6015
 9841TIP3   OH251013   5.214   3.948  16.174  0.2184  0.4142 -0.1671
 9841TIP3    H151014   5.168   3.917  16.096  0.2105  0.7137 -0.2867
 9841TIP3    H251015   5.296   3.985  16.139 -0.5655  2.1763 -0.2398
 9842TIP3   OH251016   1.215   4.251   4.729 -0.1616  0.2591 -0.6651
 9842TIP3    H151017   1.175   4.258   4.816  0.0657  0.8666 -0.6027
 9842TIP3    H251018   1.140   4.249   4.669 -0.3118  0.1639 -0.4773
 9843TIP3   OH251019   3.798   6.214  14.922 -0.3453 -0.1805 -0.2255
 9843TIP3    H151020   3.740   6.154  14.875  0.5807 -1.1086 -0.2279
 9843TIP3    H251021   3.882   6.168  14.925 -0.5580 -0.5890  3.0817
 9844TIP3   OH251022   4.623   6.126   2.493 -0.1684 -0.4138 -0.1349
 9844TIP3    H151023   4.644   6.060   2.428 -0.1529 -0.7002  0.1595
 9844TIP3    H251024   4.574   6.193   2.445  1.1950  0.1438 -0.7731
 9845TIP3   OH251025   4.213   6.474  13.834  0.2031  0.1401  0.3394
 9845TIP3    H151026   4.274   6.508  13.900  0.6373  0.4818 -0.2323
 9845TIP3    H251027   4.215   6.379  13.847 -0.1719  0.2413  1.2094
 9846TIP3   OH251028   1.658   4.811   0.714 -0.4286 -0.0133  0.2575
 9846TIP3    H151029   1.646   4.792   0.807  0.8627  1.3738  0.7557
 9846TIP3    H251030   1.752   4.824   0.704 -0.8070  2.6434 -0.6182
 9847TIP3   OH251031   3.394   2.537  11.820 -0.1489  0.7537 -0.1720
 9847TIP3    H151032   3.393   2.531  11.916 -0.3584 -2.7722 -0.2663
 9847TIP3    H251033   3.484   2.562  11.799 -0.3595  2.6307  0.8938
 9848TIP3   OH251034   5.500   1.478  17.179  0.7641 -0.4794  0.1747
 9848TIP3    H151035   5.522   1.561  17.136  2.4006 -1.3049 -0.6863
 9848TIP3    H251036   5.429   1.442  17.126 -0.5741  0.7474  1.0743
 9849TIP3   OH251037   5.008   4.675   2.232  0.4655  0.0464  0.6490
 9849TIP3    H151038   4.932   4.691   2.287  0.2721  0.3917  0.2904
 9849TIP3    H251039   4.988   4.719   2.150  0.3667 -1.2006 -0.0219
 9850TIP3   OH251040   4.360   4.117  16.255  0.0102  0.8291 -0.5530
 9850TIP3    H151041   4.334   4.135  16.345 -1.2937  0.9220 -0.9261
 9850TIP3    H251042   4.456   4.120  16.256  0.2492 -2.5680  1.5505
 9851TIP3   OH251043   5.071   5.907  14.633  0.4532  0.7081 -0.1962
 9851TIP3    H151044   5.159   5.883  14.661  0.3056  1.4841  1.0180
 9851TIP3    H251045   5.033   5.826  14.600  1.7172  0.4348 -1.0526
 9852TIP3   OH251046   2.416   3.910  14.993 -0.1469  0.0427  0.6667
 9852TIP3    H151047   2.504   3.941  14.973 -0.8278  0.5491 -1.9153
 9852TIP3    H251048   2.426   3.815  15.002  0.5574 -0.0278 -0.5715
 9853TIP3   OH251049   1.654   1.974   6.270 -0.0032  0.2130  0.3746
 9853TIP3    H151050   1.658   1.905   6.337 -0.3266  0.3606  0.5472
 9853TIP3    H251051   1.572   1.958   6.223 -0.4366  0.8933  0.8715
 9854TIP3   OH251052   2.526   1.285  14.429 -0.1316  0.1849 -0.2534
 9854TIP3    H151053   2.507   1.369  14.387 -1.5722 -0.6627 -1.4043
 9854TIP3    H251054   2.591   1.244  14.373  1.7496  1.0985  1.1312
 9855TIP3   OH251055   3.529   0.571  13.054  0.0635 -0.5850 -0.7709
 9855TIP3    H151056   3.527   0.647  12.996  0.1027  0.5434  0.6245
 9855TIP3    H251057   3.596   0.514  13.016  1.4918  1.0101 -0.8132
 9856TIP3   OH251058   3.787   3.845   4.391 -0.4408 -0.3296 -0.0483
 9856TIP3    H151059   3.786   3.770   4.451 -0.3051  1.1417  1.9198
 9856TIP3    H251060   3.880   3.864   4.378 -0.4391  1.0413  1.6137
 9857TIP3   OH251061   2.099   1.618  11.850 -0.1837  0.7630  0.5102
 9857TIP3    H151062   2.082   1.599  11.758 -1.3018  0.5758  0.7402
 9857TIP3    H251063   2.144   1.703  11.849  1.1084  0.0847 -0.2773
 9858TIP3   OH251064   4.634   1.941   1.127 -0.2087  0.1668  0.3958
 9858TIP3    H151065   4.555   1.889   1.112 -1.3096  2.1511 -1.1378
 9858TIP3    H251066   4.615   1.990   1.207 -1.1795  1.6879 -0.7221
 9859TIP3   OH251067   2.414   0.469   3.827 -0.0010 -0.1489  0.1205
 9859TIP3    H151068   2.463   0.508   3.754  1.8256 -2.2553  0.1552
 9859TIP3    H251069   2.468   0.486   3.904  0.3244 -1.8263  0.2811
 9860TIP3   OH251070   4.331   6.619   5.362 -0.4153 -0.1447  0.4505
 9860TIP3    H151071   4.382   6.581   5.433 -0.7942 -1.0889  0.2257
 9860TIP3    H251072   4.328   6.713   5.382  0.9720 -0.1440  0.7289
 9861TIP3   OH251073   4.841   5.015   4.811 -0.1816  0.0517 -0.3398
 9861TIP3    H151074   4.936   5.000   4.804 -0.3599 -0.5350 -1.8633
 9861TIP3    H251075   4.811   5.022   4.721 -1.7239 -0.5649  0.0950
 9862TIP3   OH251076   2.019   0.138  13.211 -0.2611 -0.2983 -0.1091
 9862TIP3    H151077   1.937   0.184  13.228  1.0872  2.8455 -1.2125
 9862TIP3    H251078   2.086   0.194  13.250  1.6148 -0.6945 -2.5015
 9863TIP3   OH251079   5.715   5.831   4.233 -0.8276  0.3409 -0.3592
 9863TIP3    H151080   5.633   5.867   4.199 -1.4891 -0.2482  0.5668
 9863TIP3    H251081   5.697   5.812   4.325 -0.0450 -0.9704 -0.4450
 9864TIP3   OH251082   4.590   4.190  12.997  0.7370  0.1134 -0.4399
 9864TIP3    H151083   4.594   4.193  13.093  0.6548 -0.3562 -0.4163
 9864TIP3    H251084   4.617   4.101  12.975 -1.2534 -0.4691 -0.7389
 9865TIP3   OH251085   4.692   0.155   2.231 -0.2749 -0.1785 -0.0512
 9865TIP3    H151086   4.737   0.166   2.315 -1.1597 -1.2381  0.5820
 9865TIP3    H251087   4.679   0.244   2.199  1.1180  0.2011  0.3568
 9866TIP3   OH251088   0.359   4.297  14.664 -0.4590 -0.3922  0.2788
 9866TIP3    H151089   0.288   4.355  14.636  0.7588  0.7158 -0.6154
 9866TIP3    H251090   0.326   4.209  14.645 -1.7467  0.0573  0.2828
 9867TIP3   OH251091   3.238   5.715   0.536 -0.5452  0.1060  0.3320
 9867TIP3    H151092   3.169   5.761   0.489 -1.4701 -1.1350  0.4043
 9867TIP3    H251093   3.196   5.633   0.564  0.6466 -0.1811  1.3367
 9868TIP3   OH251094   6.669   3.640   1.271  0.8740  0.2055  0.2928
 9868TIP3    H151095   6.595   3.583   1.249  0.8734 -0.1921  1.2582
 9868TIP3    H251096   6.736   3.618   1.206  0.5098 -0.1765  0.0399
 9869TIP3   OH251097   0.333   3.507  12.242  0.4727 -0.1251 -0.3064
 9869TIP3    H151098   0.327   3.603  12.233  0.0949 -0.1512 -0.3703
 9869TIP3    H251099   0.326   3.492  12.337 -2.0361 -0.2245 -0.4208
 9870TIP3   OH251100   5.005   2.063  14.244  0.3594 -0.1292 -0.2979
 9870TIP3    H151101   5.075   1.998  14.256  0.0376 -0.4560 -0.1553
 9870TIP3    H251102   5.031   2.112  14.166  1.3785  0.5719  0.4420
 9871TIP3   OH251103   1.901   2.117   0.818  0.0028  0.0823 -0.1532
 9871TIP3    H151104   1.923   2.027   0.796 -0.1124  0.5326 -2.3416
 9871TIP3    H251105   1.809   2.114   0.845  0.0054 -0.4542 -0.2044
 9872TIP3   OH251106   2.128   4.924  11.792  0.2840  0.8201 -1.1300
 9872TIP3    H151107   2.136   4.883  11.878  1.8924 -0.7114 -1.9324
 9872TIP3    H251108   2.081   4.860  11.739  0.7005  1.0327 -1.7798
 9873TIP3   OH251109   0.359   2.119  13.161 -0.1918  0.7722 -0.0380
 9873TIP3    H151110   0.433   2.139  13.104 -0.0581 -0.1751 -0.2035
 9873TIP3    H251111   0.396   2.120  13.249 -0.1544  1.0579 -0.0534
 9874TIP3   OH251112   6.003   2.465  15.594  0.1356  0.5292  0.3056
 9874TIP3    H151113   5.920   2.444  15.551  0.4518  0.7795 -0.4547
 9874TIP3    H251114   5.984   2.541  15.648 -0.1020  0.6695  0.0287
 9875TIP3   OH251115   5.666   0.595   5.610  0.2390  0.3864 -0.5851
 9875TIP3    H151116   5.657   0.679   5.565  0.1333  0.7288  0.0633
 9875TIP3    H251117   5.728   0.546   5.557  0.5923  1.0195 -0.7639
 9876TIP3   OH251118   4.621   5.451  11.110  0.1655  0.1456 -0.0538
 9876TIP3    H151119   4.682   5.459  11.037  0.2274  0.8452  0.0714
 9876TIP3    H251120   4.601   5.357  11.114  1.0476 -0.0572 -0.2358
 9877TIP3   OH251121   1.669   4.015  16.723 -0.3607  0.3609  0.4682
 9877TIP3    H151122   1.626   4.055  16.798  0.2570  1.8547  0.0546
 9877TIP3    H251123   1.685   3.924  16.751 -1.9360  0.3235  1.3573
 9878TIP3   OH251124   6.637   5.791  10.977  0.0489  0.0240 -0.2405
 9878TIP3    H151125   6.659   5.862  10.916 -1.5203 -0.4463 -1.4600
 9878TIP3    H251126   6.614   5.718  10.919 -1.0210 -0.5954  0.9352
 9879TIP3   OH251127   2.573   2.189   3.191  0.3290 -0.0646  0.1686
 9879TIP3    H151128   2.553   2.097   3.173 -0.1020  0.0203  0.2110
 9879TIP3    H251129   2.537   2.237   3.117  0.9828  0.0295 -0.0937
 9880TIP3   OH251130   1.496   1.826  13.397  0.0458  0.1856 -0.4820
 9880TIP3    H151131   1.475   1.909  13.353 -2.0496 -0.7643 -1.3951
 9880TIP3    H251132   1.563   1.786  13.341  0.9439  1.1572 -0.1304
 9881TIP3   OH251133   0.740   4.603  11.237  0.1832  0.7184  0.6425
 9881TIP3    H151134   0.760   4.690  11.273  1.3819  1.1008 -0.8548
 9881TIP3    H251135   0.821   4.576  11.194 -0.5632 -0.6136  0.0243
 9882TIP3   OH251136   4.092   5.444   0.868  0.0718 -0.3334 -0.5193
 9882TIP3    H151137   4.120   5.355   0.891 -1.8370 -1.1724 -1.2845
 9882TIP3    H251138   4.163   5.477   0.812  1.1185 -1.0951  0.3026
 9883TIP3   OH251139   0.424   2.876  11.650 -0.5117  0.0459  0.1388
 9883TIP3    H151140   0.332   2.868  11.626 -0.2022  2.1042 -2.2421
 9883TIP3    H251141   0.468   2.807  11.600 -0.6733 -0.5711  0.8325
 9884TIP3   OH251142   4.723   1.238   1.189  0.1760 -0.1678  0.1069
 9884TIP3    H151143   4.779   1.163   1.172  0.4073 -0.1656  0.8342
 9884TIP3    H251144   4.759   1.278   1.269 -1.6915 -1.0134  1.4507
 9885TIP3   OH251145   4.446   2.041   5.125  0.7385  0.1181  0.4174
 9885TIP3    H151146   4.440   2.007   5.035 -0.4767  0.2746  0.4200
 9885TIP3    H251147   4.441   2.136   5.114  2.1674  0.2391  0.5575
 9886TIP3   OH251148   4.525   4.871  13.156  0.1601  0.3242  0.1989
 9886TIP3    H151149   4.525   4.775  13.162 -1.4506  0.3030  0.4012
 9886TIP3    H251150   4.615   4.896  13.173  0.3602 -1.0913  1.5078
 9887TIP3   OH251151   0.196   2.687   5.709  0.0696 -0.6359  0.0107
 9887TIP3    H151152   0.205   2.670   5.616 -1.5489  0.2363 -0.3442
 9887TIP3    H251153   0.121   2.746   5.716 -0.2182 -1.1430  1.9108
 9888TIP3   OH251154   2.020   3.389   5.766 -0.4791 -0.2489 -0.1600
 9888TIP3    H151155   2.008   3.465   5.709 -0.6466  0.2970  0.5909
 9888TIP3    H251156   1.973   3.319   5.721  1.8820 -0.6482 -2.2298
 9889TIP3   OH251157   1.527   3.051   5.393  0.2082 -0.4228 -0.0545
 9889TIP3    H151158   1.608   3.001   5.384  1.1203  1.0486 -0.2981
 9889TIP3    H251159   1.506   3.045   5.486  1.5593  0.5706  0.3547
 9890TIP3   OH251160   5.160   1.761   1.388 -0.4120  0.0670  0.6364
 9890TIP3    H151161   5.129   1.851   1.400 -1.3055  0.1123 -1.4703
 9890TIP3    H251162   5.129   1.737   1.301 -0.7077 -2.5058  1.3667
 9891TIP3   OH251163   2.927   5.497   5.073 -0.2165  0.4964  0.0911
 9891TIP3    H151164   2.877   5.564   5.120 -0.5015 -0.9001  1.9059
 9891TIP3    H251165   2.999   5.545   5.033  0.0700  1.8146  2.0308
 9892TIP3   OH251166   2.696   2.946   2.183  0.7524  0.0796  0.1753
 9892TIP3    H151167   2.766   2.881   2.180  0.0661 -0.8402  2.3787
 9892TIP3    H251168   2.687   2.968   2.276  0.3354  2.6729 -0.3962
 9893TIP3   OH251169   2.723   6.563   5.211 -0.3226 -0.4712  0.2248
 9893TIP3    H151170   2.645   6.570   5.266 -0.2087  2.9873  0.1472
 9893TIP3    H251171   2.774   6.641   5.231  0.3161  0.3714 -3.8370
 9894TIP3   OH251172   2.617   4.453  14.503  0.0923 -0.7260  0.5608
 9894TIP3    H151173   2.690   4.394  14.483 -0.5494 -1.3122 -0.0694
 9894TIP3    H251174   2.645   4.537  14.467  0.9692 -0.6400  1.3804
 9895TIP3   OH251175   5.189   5.932  11.609  0.4479 -0.0121 -0.2483
 9895TIP3    H151176   5.106   5.892  11.586  0.6942 -1.7444  1.6003
 9895TIP3    H251177   5.254   5.889  11.553  0.1882  1.1551 -1.5044
 9896TIP3   OH251178   0.738   6.489   2.697 -0.4447  0.1403 -0.1466
 9896TIP3    H151179   0.658   6.437   2.698 -0.6601  0.4150  1.6994
 9896TIP3    H251180   0.807   6.429   2.725 -0.0168 -0.0506 -1.5579
 9897TIP3   OH251181   4.963   4.017   5.080 -0.7351 -0.0237  0.1959
 9897TIP3    H151182   4.991   4.108   5.070 -2.8773  0.5313 -1.5113
 9897TIP3    H251183   4.884   4.021   5.134 -1.7652 -0.6305 -1.2006
 9898TIP3   OH251184   6.508   3.886  14.954  0.6008 -0.1609 -0.2669
 9898TIP3    H151185   6.496   3.910  14.862  0.1956 -1.2001 -0.5024
 9898TIP3    H251186   6.455   3.949  15.002  2.0662  1.4110 -0.5977
 9899TIP3   OH251187   0.197   1.942  12.467 -0.3076  0.4547 -0.3457
 9899TIP3    H151188   0.160   1.859  12.498  3.4737 -1.9130 -1.4998
 9899TIP3    H251189   0.136   1.972  12.399 -0.8739 -2.4718 -1.2623
 9900TIP3   OH251190   5.921   5.053   1.006  0.4082 -0.3770  0.6046
 9900TIP3    H151191   5.905   4.972   0.956  0.1244 -1.6532  2.6352
 9900TIP3    H251192   5.989   5.029   1.070  0.4292  1.0368  1.1498
 9901TIP3   OH251193   4.926   3.417  15.085  0.7891  0.3769  0.2121
 9901TIP3    H151194   4.981   3.484  15.125  3.0418 -1.6128  0.6900
 9901TIP3    H251195   4.862   3.396  15.153 -1.0248  3.0154 -0.5035
 9902TIP3   OH251196   0.729   5.784   3.436 -0.0819  0.0764 -1.1151
 9902TIP3    H151197   0.736   5.735   3.354 -1.7165 -1.2209 -0.5404
 9902TIP3    H251198   0.717   5.717   3.503  0.9185  1.1313  0.1771
 9903TIP3   OH251199   4.825   3.381   0.999 -0.1924  0.3370 -0.2976
 9903TIP3    H151200   4.741   3.426   0.996 -0.1806  0.5474  1.4609
 9903TIP3    H251201   4.815   3.314   1.066  1.5466  1.5294  1.2650
 9904TIP3   OH251202   2.592   3.691   0.105 -0.0304 -0.0626 -0.3408
 9904TIP3    H151203   2.551   3.746   0.037  3.1045  0.5950 -1.8980
 9904TIP3    H251204   2.602   3.605   0.064  1.1665  0.1214 -0.4741
 9905TIP3   OH251205   2.438   5.406   0.367  0.0745  0.1108  0.4579
 9905TIP3    H151206   2.363   5.436   0.418  0.3234 -0.9229  1.4695
 9905TIP3    H251207   2.433   5.456   0.286 -1.0192  0.9245  0.9986
 9906TIP3   OH251208   1.164   1.997   4.252  0.0111 -0.2860 -0.4570
 9906TIP3    H151209   1.168   2.093   4.249 -1.9418 -0.1740 -0.4669
 9906TIP3    H251210   1.136   1.971   4.164 -1.9566 -0.6567  0.2266
 9907TIP3   OH251211   4.753   5.278   4.230  0.1237  0.4211  0.0598
 9907TIP3    H151212   4.784   5.325   4.153  0.5516 -2.0809 -1.4325
 9907TIP3    H251213   4.819   5.210   4.244 -0.1060  0.6136  2.4969
 9908TIP3   OH251214   5.540   2.989   6.123 -0.1709 -0.0559 -0.1596
 9908TIP3    H151215   5.556   3.063   6.064 -1.4628 -0.1336 -0.6295
 9908TIP3    H251216   5.519   3.030   6.207  3.6491  0.0700  0.9338
 9909TIP3   OH251217   4.853   1.901   4.283  0.4388  0.3075  0.1231
 9909TIP3    H151218   4.837   1.809   4.265  1.3672 -0.4718  2.7859
 9909TIP3    H251219   4.829   1.912   4.375 -1.4859  3.2127 -0.5707
 9910TIP3   OH251220   1.066   1.109  12.721  0.1947  0.1603  0.5772
 9910TIP3    H151221   1.146   1.058  12.723  0.9041  1.2212  0.3632
 9910TIP3    H251222   1.032   1.105  12.810  2.3736  2.5307  1.6438
 9911TIP3   OH251223   2.205   3.612  15.280  0.4858  0.3069 -0.2540
 9911TIP3    H151224   2.288   3.585  15.241 -0.2265 -0.7824 -1.0375
 9911TIP3    H251225   2.160   3.659  15.211  0.3290  0.6696  0.0916
 9912TIP3   OH251226   4.586   3.461   1.982 -0.2361 -0.5768 -0.2085
 9912TIP3    H151227   4.554   3.465   2.072 -1.6891 -2.0453 -0.6050
 9912TIP3    H251228   4.641   3.382   1.980 -0.4900 -0.7439 -0.6820
 9913TIP3   OH251229   4.226   5.396  11.737 -0.3776 -0.1463 -0.7534
 9913TIP3    H151230   4.190   5.341  11.807 -0.0329  0.9908  0.3393
 9913TIP3    H251231   4.279   5.461  11.782  2.4322 -1.2263 -2.2464
 9914TIP3   OH251232   3.921   5.204  14.604  0.0390  0.8871 -0.6269
 9914TIP3    H151233   3.967   5.120  14.609  0.9571  1.2133 -2.5723
 9914TIP3    H251234   3.914   5.232  14.695  1.4319 -0.3954 -0.0728
 9915TIP3   OH251235   1.807   5.935  12.063 -0.5602  0.1766  0.3443
 9915TIP3    H151236   1.901   5.950  12.080 -0.6189  0.6858  0.2437
 9915TIP3    H251237   1.787   5.992  11.989 -0.4475 -1.5766 -1.0935
 9916TIP3   OH251238   0.844   1.448  17.015  0.0841  0.2688 -0.5821
 9916TIP3    H151239   0.844   1.529  16.964  2.0654 -0.6861 -2.2860
 9916TIP3    H251240   0.850   1.378  16.950  0.3797 -1.1478  0.8809
 9917TIP3   OH251241   4.352   2.022  13.951 -0.1299  0.2075 -0.1163
 9917TIP3    H151242   4.404   2.002  13.873  1.1159  1.0010  0.4846
 9917TIP3    H251243   4.303   1.941  13.968  1.5923 -0.9066 -0.1809
 9918TIP3   OH251244   2.460   5.865  15.341 -0.3569  0.1252 -0.2034
 9918TIP3    H151245   2.410   5.885  15.420  0.0441 -0.6417  0.2631
 9918TIP3    H251246   2.548   5.899  15.360 -1.0208  2.9382 -1.6581
 9919TIP3   OH251247   0.991   2.427   3.255  0.1078  0.1142 -0.5280
 9919TIP3    H151248   1.019   2.472   3.175 -0.5361  0.5849 -0.5038
 9919TIP3    H251249   1.042   2.468   3.325  1.4635 -1.0412 -0.8068
 9920TIP3   OH251250   5.740   2.636  15.066 -0.4407 -0.5417 -0.7748
 9920TIP3    H151251   5.659   2.596  15.034 -1.0604  0.2764 -0.2854
 9920TIP3    H251252   5.750   2.601  15.155  1.2757 -2.8119 -1.7583
 9921TIP3   OH251253   3.889   1.111   0.113 -0.1502  0.3230  0.0472
 9921TIP3    H151254   3.803   1.148   0.136 -1.5491 -2.2048 -0.6266
 9921TIP3    H251255   3.877   1.077   0.024  1.5827 -0.0708 -0.0713
 9922TIP3   OH251256   5.329   3.843   4.792 -0.1372  0.1011 -0.0503
 9922TIP3    H151257   5.329   3.937   4.809 -0.2336 -0.1368  1.4567
 9922TIP3    H251258   5.349   3.804   4.877 -2.7311 -1.3549 -0.0014
 9923TIP3   OH251259   1.573   6.280   2.515 -0.1688 -0.2518  0.6767
 9923TIP3    H151260   1.517   6.306   2.442  1.1347  1.4199  0.2109
 9923TIP3    H251261   1.650   6.242   2.474  0.6985  0.9496  1.1564
 9924TIP3   OH251262   1.761   1.385   5.027  0.5004 -0.0718  0.5236
 9924TIP3    H151263   1.820   1.395   5.102  0.8239  1.9583  0.0493
 9924TIP3    H251264   1.680   1.428   5.054  0.2753 -0.2042  0.0725
 9925TIP3   OH251265   4.776   6.838  15.778 -0.0757  0.3025  0.6978
 9925TIP3    H151266   4.791   6.931  15.761 -0.6791  0.1875 -0.6036
 9925TIP3    H251267   4.831   6.793  15.714 -1.1556 -0.1952  0.0891
 9926TIP3   OH251268   4.303   4.208   0.625  0.8850  0.4191  0.1844
 9926TIP3    H151269   4.368   4.171   0.566  0.5462  0.9676 -0.5441
 9926TIP3    H251270   4.346   4.208   0.711  1.2233 -0.7804  0.0316
 9927TIP3   OH251271   0.920   2.070   4.869  0.0004  0.2428  0.8810
 9927TIP3    H151272   0.863   1.998   4.843  1.6198 -0.8992  0.2560
 9927TIP3    H251273   0.874   2.149   4.841 -0.3547 -0.7273 -1.5311
 9928TIP3   OH251274   1.284   6.793   1.417  0.1101 -0.3831  0.5571
 9928TIP3    H151275   1.281   6.803   1.512 -1.4957 -1.1307  0.6217
 9928TIP3    H251276   1.251   6.705   1.402 -1.8012  0.4992 -0.7882
 9929TIP3   OH251277   0.605   3.216   1.541  0.0441 -0.3020 -0.1739
 9929TIP3    H151278   0.659   3.294   1.556 -1.2750  0.5903  0.1216
 9929TIP3    H251279   0.579   3.222   1.449 -1.1375  0.3440  0.1838
 9930TIP3   OH251280   6.746   6.354  10.491  0.3540  0.4657  0.8300
 9930TIP3    H151281   6.819   6.407  10.523  0.4341  0.0471  1.3455
 9930TIP3    H251282   6.739   6.282  10.553  1.6000 -1.3324 -0.9873
 9931TIP3   OH251283   6.574   1.007   5.316 -0.1104  0.2231  0.3601
 9931TIP3    H151284   6.505   1.073   5.323 -1.4493 -1.1695  0.8957
 9931TIP3    H251285   6.531   0.931   5.276  1.7373  0.1004 -1.5635
 9932TIP3   OH251286   2.723   1.245   4.662  0.2199  0.8803  0.0653
 9932TIP3    H151287   2.790   1.177   4.662 -1.2808 -0.6638 -0.6159
 9932TIP3    H251288   2.700   1.256   4.754 -0.1931 -0.2477  0.1099
 9933TIP3   OH251289   4.230   6.554  11.492  0.4670  0.5389 -0.2350
 9933TIP3    H151290   4.235   6.623  11.558 -1.2721  1.0001 -0.5508
 9933TIP3    H251291   4.318   6.553  11.453  1.3344  0.6982  1.5997
 9934TIP3   OH251292   4.538   1.492  12.939 -0.1692 -0.1316  0.2108
 9934TIP3    H151293   4.462   1.521  12.989  0.2893  1.8733 -0.1950
 9934TIP3    H251294   4.610   1.545  12.972  0.7078 -0.7597 -0.6458
 9935TIP3   OH251295   2.732   2.711   3.988  0.3843 -0.0953  0.1415
 9935TIP3    H151296   2.782   2.792   3.997 -0.8818  1.0123 -1.9217
 9935TIP3    H251297   2.647   2.739   3.953 -1.7754 -1.8754  3.4325
 9936TIP3   OH251298   3.110   6.179  10.905 -0.3888  0.0374  0.6048
 9936TIP3    H151299   3.202   6.155  10.913 -0.1371  0.6336 -0.3159
 9936TIP3    H251300   3.082   6.142  10.821 -0.2730  1.9660 -0.3439
 9937TIP3   OH251301   2.992   6.368  13.229 -0.5617 -0.7939 -0.3356
 9937TIP3    H151302   3.067   6.350  13.172 -2.1073  0.6179 -3.0551
 9937TIP3    H251303   3.029   6.418  13.302  1.4509 -2.2338 -0.2856
 9938TIP3   OH251304   5.993   6.305   2.660  0.5731  0.1402 -0.2851
 9938TIP3    H151305   6.035   6.332   2.742 -0.0020  1.9769 -0.5471
 9938TIP3    H251306   5.903   6.285   2.684  0.5659  0.0757 -0.3642
 9939TIP3   OH251307   1.490   6.110  13.754 -0.0838 -0.5980 -0.8046
 9939TIP3    H151308   1.584   6.124  13.751 -0.0726 -0.5808 -0.4219
 9939TIP3    H251309   1.471   6.090  13.846 -0.5055 -0.2070 -0.7978
 9940TIP3   OH251310   2.236   3.292  10.663 -0.0446 -0.4762 -0.0045
 9940TIP3    H151311   2.243   3.376  10.617 -0.6081 -0.9282 -0.9461
 9940TIP3    H251312   2.157   3.301  10.717  0.4197 -0.0715  0.6160
 9941TIP3   OH251313   0.213   5.785  13.362  0.2444 -0.8198  0.2547
 9941TIP3    H151314   0.264   5.834  13.297 -1.8682  0.4755 -0.5421
 9941TIP3    H251315   0.263   5.792  13.443 -0.3759  3.7921  0.5033
 9942TIP3   OH251316   1.436   6.374  13.963  0.3282 -0.6635 -0.5416
 9942TIP3    H151317   1.408   6.418  13.883 -1.5462  3.1973  1.9298
 9942TIP3    H251318   1.528   6.398  13.972 -0.2139  1.4945 -0.1405
 9943TIP3   OH251319   3.114   4.155   3.096 -0.2297 -0.4483 -0.2822
 9943TIP3    H151320   3.154   4.154   3.009 -0.4331  2.0732 -0.4827
 9943TIP3    H251321   3.161   4.088   3.145  0.1608 -1.6515 -2.2027
 9944TIP3   OH251322   4.454   5.107   5.213  0.0209 -0.4021  0.1329
 9944TIP3    H151323   4.482   5.175   5.151 -0.2597 -0.0515  0.3912
 9944TIP3    H251324   4.384   5.060   5.167 -0.1578 -0.1696  0.1678
 9945TIP3   OH251325   0.041   6.400   1.139  0.0375 -0.1933  0.4549
 9945TIP3    H151326   0.080   6.313   1.141  0.9614  0.1579 -0.7497
 9945TIP3    H251327   0.093   6.448   1.074 -1.9853  0.5185 -0.7240
 9946TIP3   OH251328   6.826   2.017   5.886  0.0730  0.1856  0.0750
 9946TIP3    H151329   6.798   2.106   5.907 -1.0181  0.2616 -1.5534
 9946TIP3    H251330   6.919   2.026   5.864  0.2419  0.7177  0.9357
 9947TIP3   OH251331   2.162   5.615  14.226  0.0631  1.1128 -0.6520
 9947TIP3    H151332   2.203   5.698  14.251 -0.0564  1.4286 -1.5073
 9947TIP3    H251333   2.207   5.590  14.145  0.6759 -0.0752  0.0236
 9948TIP3   OH251334   2.261   2.036  13.250  0.4757  0.1219 -0.2923
 9948TIP3    H151335   2.297   1.950  13.228  1.4937  0.0757  1.3965
 9948TIP3    H251336   2.336   2.087  13.279 -0.2480  1.3216 -0.4572
 9949TIP3   OH251337   4.047   2.302  14.598 -0.2485  0.5141 -0.0831
 9949TIP3    H151338   4.103   2.379  14.586  0.9209 -0.2792  0.1082
 9949TIP3    H251339   4.061   2.277  14.689  2.1736 -1.9586 -0.9798
 9950TIP3   OH251340   4.743   5.961   4.985 -0.5534  0.1287 -0.1455
 9950TIP3    H151341   4.773   5.872   4.969 -0.7114  0.2434 -1.1345
 9950TIP3    H251342   4.648   5.954   4.993 -0.5210  0.1415  0.2975
 9951TIP3   OH251343   2.673   5.421   2.881  0.3478  0.1716  0.2570
 9951TIP3    H151344   2.696   5.346   2.826 -0.6736 -1.0196  1.3667
 9951TIP3    H251345   2.649   5.490   2.820  2.7915  0.1344 -0.8383
 9952TIP3   OH251346   2.856   3.249  14.258  0.2689  0.1626  0.4369
 9952TIP3    H151347   2.769   3.215  14.281 -0.1453  0.1759 -1.0221
 9952TIP3    H251348   2.847   3.344  14.266  0.9887  0.0862  3.0138
 9953TIP3   OH251349   2.704   5.044   5.453  0.4700 -0.2305 -0.5485
 9953TIP3    H151350   2.777   4.995   5.416 -1.3874 -3.4635 -0.2479
 9953TIP3    H251351   2.702   5.019   5.545  0.2526  1.5758 -0.0069
 9954TIP3   OH251352   3.896   3.304  13.432 -0.5125  0.6244 -0.1627
 9954TIP3    H151353   3.898   3.225  13.487 -3.9108  0.0279 -0.6763
 9954TIP3    H251354   3.912   3.271  13.344 -0.3984  0.7541 -0.1897
 9955TIP3   OH251355   4.459   0.663  11.156 -0.3405  0.3741  0.5602
 9955TIP3    H151356   4.527   0.671  11.223  0.1726  2.4059 -0.1184
 9955TIP3    H251357   4.380   0.699  11.196 -0.6888 -0.6900  0.8703
 9956TIP3   OH251358   4.633   4.840   3.666 -0.1305  0.0320 -0.0580
 9956TIP3    H151359   4.620   4.895   3.589  0.6413  0.5042  0.1338
 9956TIP3    H251360   4.587   4.887   3.736 -1.2519 -0.6470 -0.3161
 9957TIP3   OH251361   0.286   0.044   2.762  0.4100 -0.3132  0.1819
 9957TIP3    H151362   0.218  -0.005   2.809  1.8990 -1.7410  0.9492
 9957TIP3    H251363   0.332  -0.022   2.711  2.2870  0.2919  0.9941
 9958TIP3   OH251364   6.631   5.596  11.636 -0.5087  0.2383 -0.3221
 9958TIP3    H151365   6.572   5.552  11.697 -1.0469 -0.1519 -1.1034
 9958TIP3    H251366   6.578   5.668  11.601  1.0622  3.1467  2.7071
 9959TIP3   OH251367   5.411   4.619  14.627 -0.2098  0.2617  0.4521
 9959TIP3    H151368   5.362   4.542  14.602 -0.3204  0.6096 -0.4362
 9959TIP3    H251369   5.482   4.625  14.563 -0.1442  0.8409  0.5657
 9960TIP3   OH251370   1.906   1.092  16.369 -0.2141  0.0026 -0.5340
 9960TIP3    H151371   1.960   1.121  16.443  1.2937 -1.4121 -1.0194
 9960TIP3    H251372   1.835   1.156  16.365 -0.3150  0.1502  2.0963
 9961TIP3   OH251373   2.698   3.424   3.024 -0.2036  0.4338  0.0179
 9961TIP3    H151374   2.716   3.402   3.116  0.1611  0.9160  0.0667
 9961TIP3    H251375   2.654   3.508   3.028  2.0867  1.7513 -0.3410
 9962TIP3   OH251376   5.658   0.484   2.374  0.2928 -0.5198 -0.4562
 9962TIP3    H151377   5.722   0.479   2.445  0.9335  1.1180 -0.8662
 9962TIP3    H251378   5.642   0.393   2.350  0.8701 -1.0613  1.0555
 9963TIP3   OH251379   2.356   1.915  11.320  0.2739 -0.0070 -0.0715
 9963TIP3    H151380   2.379   1.919  11.413 -0.7237  0.9009  0.1525
 9963TIP3    H251381   2.301   1.992  11.305 -0.4435 -0.7017 -1.1781
 9964TIP3   OH251382   5.333   2.021  13.382 -0.2513  0.1976  0.0187
 9964TIP3    H151383   5.261   2.063  13.335 -1.3415  1.0252  2.2673
 9964TIP3    H251384   5.379   2.093  13.426  0.1687 -0.5865  0.9147
 9965TIP3   OH251385   4.372   2.977   1.728  0.4844 -0.1343 -0.0679
 9965TIP3    H151386   4.337   2.910   1.787  0.4681 -0.9396 -0.9856
 9965TIP3    H251387   4.352   2.946   1.640 -1.2046  1.9718 -0.5157
 9966TIP3   OH251388   2.671   5.499   5.373  0.3261 -0.5548 -0.0662
 9966TIP3    H151389   2.722   5.550   5.309  0.5512 -1.6876 -0.8247
 9966TIP3    H251390   2.582   5.532   5.365  0.4888 -0.2075 -0.4751
 9967TIP3   OH251391   1.905   0.788  11.963 -0.3943  0.0819 -0.5575
 9967TIP3    H151392   1.917   0.711  12.018 -3.1473 -0.3229 -0.4193
 9967TIP3    H251393   1.904   0.754  11.874  0.4778  0.2757 -0.6547
 9968TIP3   OH251394   3.204   4.971  16.180 -0.1568 -0.1394  0.2969
 9968TIP3    H151395   3.252   4.899  16.140  0.1001  0.5801 -0.7020
 9968TIP3    H251396   3.272   5.030  16.213 -0.3642  0.2646 -0.0001
 9969TIP3   OH251397   5.528   5.175   2.040  0.4594 -0.4060  0.1068
 9969TIP3    H151398   5.541   5.101   2.099 -1.1929 -0.6346  0.2347
 9969TIP3    H251399   5.547   5.141   1.953  1.7153 -0.3985  0.3585
 9970TIP3   OH251400   5.721   3.421   5.616 -0.6003  0.2866  0.3474
 9970TIP3    H151401   5.798   3.366   5.629  0.8836  1.8358 -1.2730
 9970TIP3    H251402   5.662   3.368   5.562 -0.6428 -0.8601  1.4828
 9971TIP3   OH251403   0.455   0.287  15.200 -0.1705  0.0341  0.5604
 9971TIP3    H151404   0.534   0.341  15.205  1.7294 -2.2153 -2.0372
 9971TIP3    H251405   0.474   0.211  15.254 -1.2354  0.1592  1.1385
 9972TIP3   OH251406   0.580   1.751  11.641  0.0733 -0.8671  0.5612
 9972TIP3    H151407   0.574   1.668  11.595  0.0069 -0.8779  0.5879
 9972TIP3    H251408   0.655   1.796  11.602  0.1279 -0.9527  0.5692
 9973TIP3   OH251409   3.431   5.155   4.116 -0.8065 -0.2129  0.0446
 9973TIP3    H151410   3.478   5.076   4.086  1.5613  1.1735 -0.1447
 9973TIP3    H251411   3.388   5.188   4.037 -0.2422 -0.2951 -0.3081
 9974TIP3   OH251412   5.487   6.403  14.774  0.5673 -0.6846 -0.2395
 9974TIP3    H151413   5.539   6.329  14.741  1.3853 -0.2591  0.0750
 9974TIP3    H251414   5.535   6.481  14.747  0.9324 -0.3055  1.3581
 9975TIP3   OH251415   5.528   5.031   6.332 -0.0072  0.0486  0.6680
 9975TIP3    H151416   5.507   5.121   6.309 -0.7581 -0.1366  0.5951
 9975TIP3    H251417   5.526   5.030   6.428 -2.0066 -0.3116  0.6759
 9976TIP3   OH251418   3.874   6.489   3.661  0.1286 -0.1833 -0.1942
 9976TIP3    H151419   3.851   6.405   3.699 -2.4261  0.8355  0.7179
 9976TIP3    H251420   3.874   6.474   3.567 -1.7470 -0.9188 -0.1076
 9977TIP3   OH251421   1.665   3.408   0.804  0.2265  0.5408  0.0831
 9977TIP3    H151422   1.598   3.343   0.783  0.3702 -0.2557  1.9291
 9977TIP3    H251423   1.620   3.475   0.854  0.5700  0.6023  0.3155
 9978TIP3   OH251424   2.234   6.126   2.552  0.0274  0.1444 -0.5302
 9978TIP3    H151425   2.304   6.187   2.577 -0.1418  0.4232 -0.7393
 9978TIP3    H251426   2.154   6.177   2.560 -0.2138 -0.3279  0.2366
 9979TIP3   OH251427   5.156   4.911  14.333  0.2156 -0.7554 -0.1760
 9979TIP3    H151428   5.245   4.879  14.319  0.5366  0.3164 -0.7504
 9979TIP3    H251429   5.130   4.946  14.247 -0.4110 -0.2297  0.2216
 9980TIP3   OH251430   3.846   0.693  16.701  0.1223 -0.0960  0.1779
 9980TIP3    H151431   3.833   0.788  16.697 -0.2078 -0.1861 -1.4394
 9980TIP3    H251432   3.760   0.658  16.723  0.5077  0.0157  2.0380
 9981TIP3   OH251433   6.201   0.692  14.359 -0.2024 -0.2053  0.0628
 9981TIP3    H151434   6.133   0.669  14.295 -0.5733 -0.2722  0.4785
 9981TIP3    H251435   6.153   0.714  14.439  0.3298 -3.0225  1.2839
 9982TIP3   OH251436   0.852   2.006  15.384  0.2466  0.5489 -0.5413
 9982TIP3    H151437   0.826   1.959  15.463  0.6309  2.9579  1.1276
 9982TIP3    H251438   0.780   2.065  15.365  0.6317  0.7794 -1.3773
 9983TIP3   OH251439   1.792   3.432   4.766 -0.2971 -0.1669  0.2917
 9983TIP3    H151440   1.701   3.439   4.793 -0.3208  2.0529 -0.1812
 9983TIP3    H251441   1.838   3.498   4.818  0.6612  0.1333 -0.8855
 9984TIP3   OH251442   0.602   0.010   2.817  0.0049 -0.1629 -0.5131
 9984TIP3    H151443   0.560  -0.068   2.852 -0.8692  0.0571 -1.0411
 9984TIP3    H251444   0.632   0.058   2.895 -0.3641 -0.5251 -0.1437
 9985TIP3   OH251445   2.962   4.632   1.732  0.1474  0.4691 -0.0519
 9985TIP3    H151446   2.880   4.662   1.693  1.5443  2.7061 -1.4829
 9985TIP3    H251447   2.997   4.569   1.668  0.8380  1.6138 -0.8271
 9986TIP3   OH251448   0.681   0.277   5.804  0.3194  0.8379  0.3890
 9986TIP3    H151449   0.732   0.350   5.839 -0.1681  1.6569 -0.5573
 9986TIP3    H251450   0.643   0.234   5.881  2.2181  0.3458  1.0938
 9987TIP3   OH251451   4.772   6.370   0.133 -0.3827 -0.0689 -0.3496
 9987TIP3    H151452   4.789   6.276   0.125 -0.6526 -0.2083  0.6049
 9987TIP3    H251453   4.800   6.391   0.222 -0.0850  0.8099 -0.6462
 9988TIP3   OH251454   5.612   0.225   1.418 -0.1158  0.2984  0.4627
 9988TIP3    H151455   5.657   0.248   1.336  0.8142 -0.3108  0.7985
 9988TIP3    H251456   5.589   0.310   1.456  0.6666  0.6189  0.2429
 9989TIP3   OH251457   1.885   5.912  17.187  0.0635  0.2152 -0.2259
 9989TIP3    H151458   1.883   5.876  17.098 -1.1561 -0.9439  0.2377
 9989TIP3    H251459   1.881   6.007  17.174  0.1203  0.0813 -1.3991
 9990TIP3   OH251460   6.135   3.902  16.286 -0.0990  0.4994 -0.1624
 9990TIP3    H151461   6.076   3.871  16.217  1.7361 -2.5973 -0.5598
 9990TIP3    H251462   6.083   3.900  16.366 -1.3511  0.8553 -0.9516
 9991TIP3   OH251463   3.764   6.748  16.304  0.1800  0.0014 -0.0352
 9991TIP3    H151464   3.734   6.838  16.284 -0.8954 -0.2712  0.2672
 9991TIP3    H251465   3.822   6.726  16.232  1.5565  1.4380  0.5867
 9992TIP3   OH251466   2.364   3.305   0.166  0.2308  0.8754  0.0092
 9992TIP3    H151467   2.320   3.385   0.196  1.1799  1.3206  0.2368
 9992TIP3    H251468   2.294   3.254   0.125 -0.3706  1.8715 -0.2474
 9993TIP3   OH251469   0.075   6.138   5.524 -0.4321 -0.3230  0.2156
 9993TIP3    H151470  -0.002   6.175   5.480  1.7356  4.1532 -0.3463
 9993TIP3    H251471   0.122   6.092   5.455 -1.6448 -1.5736  0.1728
 9994TIP3   OH251472   1.499   0.120   3.938 -0.4681 -0.6857  0.0826
 9994TIP3    H151473   1.551   0.093   3.861  0.5805 -0.6699  0.7619
 9994TIP3    H251474   1.557   0.180   3.985 -2.1076  1.5483 -0.5354
 9995TIP3   OH251475   1.001   1.214   0.447 -0.2527 -0.7120 -0.1503
 9995TIP3    H151476   0.972   1.295   0.406  1.4380  0.5656  1.0470
 9995TIP3    H251477   0.922   1.159   0.450 -1.2484  0.5621 -1.6792
 9996TIP3   OH251478   0.830   1.745   5.672  0.4078 -0.0564  0.3337
 9996TIP3    H151479   0.748   1.724   5.627  0.7691 -1.0723  0.1158
 9996TIP3    H251480   0.891   1.677   5.643  1.6070  1.2181 -0.2514
 9997TIP3   OH251481   0.050   4.659  13.157 -0.0945  0.4222  0.1119
 9997TIP3    H151482   0.091   4.698  13.235  1.7051  0.3802 -0.7690
 9997TIP3    H251483   0.060   4.565  13.170 -0.1776  0.4003  0.0212
 9998TIP3   OH251484   3.769   1.048  11.105 -0.3683  0.1352  0.4111
 9998TIP3    H151485   3.716   1.074  11.029 -0.4331 -0.2503  0.3215
 9998TIP3    H251486   3.796   1.131  11.145 -0.8070  0.3397  0.2930
 9999TIP3   OH251487   1.794   5.356  11.065  0.2086 -0.7163 -0.0396
 9999TIP3    H151488   1.871   5.405  11.095  0.7600 -1.2509 -0.5477
 9999TIP3    H251489   1.768   5.400  10.984 -0.0533 -0.5166  0.1475
10000TIP3   OH251490   2.845   1.622   1.352 -0.0193 -0.2463  0.3195
10000TIP3    H151491   2.757   1.585   1.347 -0.6762  1.1385  0.9553
10000TIP3    H251492   2.847   1.691   1.286 -0.2455  1.2802  1.8240
10001TIP3   OH251493   4.461   3.119   0.535  0.1668 -0.1653  0.0007
10001TIP3    H151494   4.476   3.087   0.624  0.0845  0.8479  0.3889
10001TIP3    H251495   4.513   3.199   0.529 -0.9623  0.5657 -0.3733
10002TIP3   OH251496   0.959   1.206   1.521  0.1608 -0.2266  0.0253
10002TIP3    H151497   0.984   1.263   1.593 -1.7729 -0.5270  1.0029
10002TIP3    H251498   0.889   1.253   1.475  1.2661 -0.1034 -1.6058
10003TIP3   OH251499   2.823   0.428   3.411 -0.1841  0.1304  0.3876
10003TIP3    H151500   2.808   0.505   3.466 -1.9322  0.3093 -0.2552
10003TIP3    H251501   2.769   0.359   3.452 -0.9944  0.0930 -0.7001
10004TIP3   OH251502   2.741   2.764  13.395  0.0745  0.0811 -0.3371
10004TIP3    H151503   2.714   2.675  13.419  0.9955 -0.1896 -0.2566
10004TIP3    H251504   2.680   2.790  13.326 -0.5170 -0.4216 -0.0110
10005TIP3   OH251505   6.190   4.858  15.822  0.4797 -0.4074  0.2204
10005TIP3    H151506   6.244   4.804  15.880  1.1821 -0.4759 -0.4738
10005TIP3    H251507   6.233   4.944  15.824  2.0492 -1.0444 -2.1202
10006TIP3   OH251508   5.807   2.502   0.484  0.1688 -0.6533 -0.0045
10006TIP3    H151509   5.851   2.584   0.508 -1.4577 -0.0531  1.0854
10006TIP3    H251510   5.794   2.509   0.390 -1.0178  0.9260  0.2383
10007TIP3   OH251511   3.607   4.283  13.794  0.5366 -0.0833  0.2573
10007TIP3    H151512   3.679   4.234  13.833  0.2328 -0.1246  0.7632
10007TIP3    H251513   3.613   4.264  13.700  1.0985 -0.1979  0.3140
10008TIP3   OH251514   5.874   0.426   4.035 -0.5660 -0.3959 -0.0089
10008TIP3    H151515   5.808   0.466   4.092 -1.3236  1.0953 -1.8411
10008TIP3    H251516   5.956   0.469   4.059 -0.6647 -0.5932  0.7036
10009TIP3   OH251517   6.731   6.804  14.152  0.4302  0.2004 -0.4187
10009TIP3    H151518   6.753   6.739  14.085  1.0865 -0.4348  0.3832
10009TIP3    H251519   6.635   6.806  14.153  0.3854 -1.0261 -0.2324
10010TIP3   OH251520   6.804   6.191  14.522 -0.3475  0.2603 -0.6730
10010TIP3    H151521   6.737   6.125  14.539 -1.3802  1.4273 -0.0193
10010TIP3    H251522   6.801   6.248  14.599  1.3175  0.4139 -0.7032
10011TIP3   OH251523   2.193   6.090  14.582 -0.4734  0.6601  0.0860
10011TIP3    H151524   2.127   6.089  14.513 -2.0141 -3.9528  1.2941
10011TIP3    H251525   2.143   6.106  14.663  0.5046  0.9552  0.6528
10012TIP3   OH251526   1.295   2.585  13.577 -0.1543 -0.0808  0.0676
10012TIP3    H151527   1.328   2.585  13.487  1.8661 -1.2866  0.7450
10012TIP3    H251528   1.201   2.567  13.568 -0.3995  1.6834 -1.8606
10013TIP3   OH251529   4.947   1.305   1.662 -0.5143 -0.4942  0.1737
10013TIP3    H151530   4.874   1.243   1.656 -2.2186  1.3901  0.6704
10013TIP3    H251531   4.906   1.391   1.660  1.8664  0.7237 -2.0093
10014TIP3   OH251532   0.824   1.521   0.783  0.4730  0.0240  0.4498
10014TIP3    H151533   0.842   1.586   0.715  0.9683 -0.3963  0.1701
10014TIP3    H251534   0.761   1.461   0.743  0.5284 -0.0484  0.4706
10015TIP3   OH251535   5.294   2.337  15.017  0.1572  0.3349  0.5016
10015TIP3    H151536   5.241   2.400  15.066 -1.8956 -2.3840  2.0744
10015TIP3    H251537   5.233   2.295  14.956  0.8989 -1.4636  0.9146
10016TIP3   OH251538   4.270   5.874   3.068 -0.0138  0.1915 -0.0975
10016TIP3    H151539   4.316   5.815   3.008 -2.5796 -2.9504  0.7340
10016TIP3    H251540   4.236   5.943   3.012 -0.2635 -1.3196 -1.9037
10017TIP3   OH251541   1.786   1.381  13.322  0.3371 -0.3004 -0.5356
10017TIP3    H151542   1.825   1.388  13.235  1.2793 -0.9973 -0.1938
10017TIP3    H251543   1.810   1.293  13.351 -0.4313 -0.2715  0.2135
10018TIP3   OH251544   4.038   1.368  16.296  0.0777  0.2756  0.1257
10018TIP3    H151545   4.084   1.287  16.276 -1.0925  0.0541 -2.0241
10018TIP3    H251546   3.945   1.345  16.287 -0.2695  1.8709 -0.7209
10019TIP3   OH251547   6.498   1.639   5.136 -0.5648  0.1860 -0.0962
10019TIP3    H151548   6.520   1.630   5.228 -2.2231 -1.7249  0.1854
10019TIP3    H251549   6.444   1.718   5.132 -1.6745 -0.4865  0.8569
10020TIP3   OH251550   6.028   4.476   2.353  0.4211  0.2506 -0.1008
10020TIP3    H151551   5.944   4.440   2.326 -0.3703  1.2477  0.9741
10020TIP3    H251552   6.044   4.549   2.293  0.4466  0.1753 -0.1871
10021TIP3   OH251553   1.897   5.084  17.035  0.4319 -0.0913 -0.2278
10021TIP3    H151554   1.928   5.001  16.999  1.3583 -0.3402  1.0884
10021TIP3    H251555   1.882   5.066  17.128 -3.2835  0.1352 -0.6295
10022TIP3   OH251556   0.604   0.420  11.770 -0.0393  0.3536  0.2053
10022TIP3    H151557   0.587   0.490  11.708 -0.1548 -0.9231 -1.2813
10022TIP3    H251558   0.697   0.426  11.790 -0.1560  1.2375  0.5285
10023TIP3   OH251559   4.875   3.303   2.843  0.2424 -0.5644 -0.4475
10023TIP3    H151560   4.904   3.225   2.891 -0.1454  0.3899  1.4432
10023TIP3    H251561   4.781   3.290   2.832  0.4028 -0.9881 -1.3829
10024TIP3   OH251562   5.269   5.949  12.435 -0.7259  0.0197 -0.2974
10024TIP3    H151563   5.246   5.969  12.526  1.8653  1.8901  0.0631
10024TIP3    H251564   5.185   5.935  12.391 -2.0994  0.1556  2.1288
10025TIP3   OH251565   0.277   0.654  11.192 -0.2163 -0.0194  0.0512
10025TIP3    H151566   0.302   0.693  11.276  0.5220 -1.2691  0.4209
10025TIP3    H251567   0.292   0.724  11.128 -1.4872  1.1964  1.0234
10026TIP3   OH251568   0.449   6.706   2.636  0.5852  0.1327  0.2842
10026TIP3    H151569   0.469   6.716   2.543  1.7969 -1.0993  0.3824
10026TIP3    H251570   0.516   6.759   2.680 -0.2739  1.1019  0.4762
10027TIP3   OH251571   3.643   6.138  12.935 -0.1414  0.8210 -0.4599
10027TIP3    H151572   3.691   6.156  13.016 -1.4175  1.8428  0.0915
10027TIP3    H251573   3.610   6.049  12.946 -0.0387  0.8387  0.0097
10028TIP3   OH251574   5.574   5.021  10.863 -0.3061 -0.4458 -0.1573
10028TIP3    H151575   5.545   5.057  10.780  0.3780 -1.6836 -0.9572
10028TIP3    H251576   5.667   5.000  10.850  0.1759  0.5482  1.3409
10029TIP3   OH251577   2.046   6.692  16.806 -0.2117 -0.1452 -0.0624
10029TIP3    H151578   1.995   6.687  16.725  3.0218 -1.9446 -2.1895
10029TIP3    H251579   2.115   6.755  16.787 -0.0440  0.2977  1.8041
10030TIP3   OH251580   3.015   5.665   2.488  0.4854  0.0332 -0.1925
10030TIP3    H151581   3.069   5.586   2.492  0.7348  0.2105  3.1758
10030TIP3    H251582   2.925   5.633   2.490  0.5807 -0.2052  0.6282
10031TIP3   OH251583   3.479   1.994  12.501 -0.2872  0.1883  0.3113
10031TIP3    H151584   3.394   1.978  12.542 -0.1478  0.4548  0.7019
10031TIP3    H251585   3.537   2.017  12.573  0.0988  0.0935  0.0348
10032TIP3   OH251586   3.042   1.445  12.937  0.0069  0.4056 -0.5202
10032TIP3    H151587   2.961   1.414  12.896  0.6916 -0.4514 -1.2893
10032TIP3    H251588   3.014   1.487  13.018 -1.2749  0.8919 -1.1881
10033TIP3   OH251589   0.747   5.935   6.307 -0.2726  0.4020  0.4215
10033TIP3    H151590   0.659   5.933   6.269 -1.1151 -0.1737  2.2951
10033TIP3    H251591   0.743   6.004   6.373  1.1154  1.3014 -0.3877
10034TIP3   OH251592   0.194   4.819  11.898 -0.2564 -0.5748 -0.0415
10034TIP3    H151593   0.223   4.742  11.946  2.3150  0.6993  0.6286
10034TIP3    H251594   0.265   4.883  11.908 -0.0637  0.2773 -4.4848
10035TIP3   OH251595   1.744   1.268  11.241  0.3156  0.0396  0.1753
10035TIP3    H151596   1.650   1.248  11.237  0.7398 -2.0431 -0.5863
10035TIP3    H251597   1.778   1.206  11.306  1.4046 -0.2850 -0.6919
10036TIP3   OH251598   5.649   1.817   5.292  0.1444  0.4422  0.6645
10036TIP3    H151599   5.739   1.847   5.280  0.3873 -0.3363  0.4792
10036TIP3    H251600   5.613   1.814   5.203  0.1700  0.0596  0.6642
10037TIP3   OH251601   5.197   5.855  12.887  0.2884 -0.1674  1.2434
10037TIP3    H151602   5.158   5.941  12.899 -0.7867 -0.2338 -1.0745
10037TIP3    H251603   5.261   5.867  12.816 -0.3984 -1.3642  0.3728
10038TIP3   OH251604   5.750   5.696   5.620  0.6302  0.1794  0.8174
10038TIP3    H151605   5.677   5.697   5.683  0.5371 -1.1004  0.7624
10038TIP3    H251606   5.823   5.659   5.669  0.7638 -0.1222  0.3986
10039TIP3   OH251607   0.508   0.692   4.280 -0.2841  0.1025  0.7064
10039TIP3    H151608   0.575   0.722   4.341  1.8815 -0.9614 -0.9987
10039TIP3    H251609   0.467   0.617   4.323  0.2362  0.2239  1.4154
10040TIP3   OH251610   5.426   4.314   0.770  0.1968 -0.0271  0.1036
10040TIP3    H151611   5.423   4.409   0.778  0.0754  0.0288 -0.5438
10040TIP3    H251612   5.520   4.294   0.761  0.1073  0.2536 -2.0263
10041TIP3   OH251613   1.295   0.629  16.583  0.0095 -0.6169 -0.3728
10041TIP3    H151614   1.344   0.558  16.624  0.2610 -1.5645 -2.2035
10041TIP3    H251615   1.359   0.673  16.527 -0.1632  1.0459  0.6548
10042TIP3   OH251616   4.576   5.806   5.444  0.0797  0.1554  0.7314
10042TIP3    H151617   4.617   5.891   5.464 -0.8177  0.2988  2.1129
10042TIP3    H251618   4.554   5.770   5.530  0.2368 -1.3941  0.1451
10043TIP3   OH251619   1.930   5.833   1.881  0.2955 -0.0902  0.1013
10043TIP3    H151620   1.842   5.817   1.916  0.3743 -1.2710 -0.1930
10043TIP3    H251621   1.986   5.774   1.931  1.1447  1.5982  1.2023
10044TIP3   OH251622   4.608   1.204  13.004  0.3050  0.0290 -0.3616
10044TIP3    H151623   4.574   1.273  13.061 -1.5103  1.0260 -2.5252
10044TIP3    H251624   4.692   1.237  12.973  0.3582  0.3717  0.1430
10045TIP3   OH251625   2.952   1.003   3.234  0.0810 -0.0927 -0.0140
10045TIP3    H151626   2.923   0.912   3.238  0.0168 -0.0490  0.5627
10045TIP3    H251627   2.985   1.014   3.145 -0.0250 -0.6444 -0.1229
10046TIP3   OH251628   1.086   5.578   4.501  0.3069 -0.4964 -0.1546
10046TIP3    H151629   1.096   5.672   4.493 -0.4542 -0.5498 -2.2397
10046TIP3    H251630   1.175   5.544   4.508  0.5470  0.4143  1.7393
10047TIP3   OH251631   4.629   3.059  16.373  0.4308  0.3694  0.1163
10047TIP3    H151632   4.557   3.006  16.407  0.8591 -0.5951 -0.4215
10047TIP3    H251633   4.704   3.036  16.428  0.4327  1.0531  0.4061
10048TIP3   OH251634   5.140   6.102   4.437  0.6988 -0.7478 -0.1280
10048TIP3    H151635   5.062   6.106   4.492 -0.7799 -1.0323 -2.1030
10048TIP3    H251636   5.135   6.180   4.382  0.9483 -1.5499 -1.3355
10049TIP3   OH251637   0.339   4.430  13.328 -0.1804  0.0349  0.4107
10049TIP3    H151638   0.426   4.415  13.292 -0.0807 -0.1938  0.7441
10049TIP3    H251639   0.353   4.436  13.423 -0.4816  0.3220  0.4389
10050TIP3   OH251640   2.650   4.890   2.691  0.0883  0.0918 -0.5525
10050TIP3    H151641   2.740   4.920   2.677  1.3259 -2.0377  1.8936
10050TIP3    H251642   2.643   4.810   2.639 -1.6863  1.9802 -3.4934
10051TIP3   OH251643   6.325   0.425  16.787 -0.2739  0.3082 -0.4319
10051TIP3    H151644   6.338   0.407  16.880  0.3990 -0.1337 -0.6075
10051TIP3    H251645   6.307   0.339  16.748 -1.5033  0.6068 -0.5681
10052TIP3   OH251646   0.951   3.626   2.489  0.6001 -0.4153  0.5514
10052TIP3    H151647   0.961   3.617   2.583 -0.1390  1.2195  0.8155
10052TIP3    H251648   0.870   3.579   2.469 -1.3036  2.3055  1.3573
10053TIP3   OH251649   5.481   2.267   4.592 -0.2932 -0.0576 -0.0256
10053TIP3    H151650   5.416   2.333   4.569 -0.6313 -0.1009  0.7636
10053TIP3    H251651   5.537   2.259   4.515  0.7490  2.3043  0.4087
10054TIP3   OH251652   2.790   6.203  15.740  0.4880  0.4193  0.3000
10054TIP3    H151653   2.860   6.242  15.688 -0.6731  1.0795 -0.8256
10054TIP3    H251654   2.769   6.268  15.806 -0.3649  1.0651 -0.5828
10055TIP3   OH251655   4.249   2.938   5.323 -0.3892 -0.2285 -0.2552
10055TIP3    H151656   4.174   2.891   5.288  0.8287 -2.9988  0.5442
10055TIP3    H251657   4.228   2.952   5.415 -1.0597  1.6368 -0.6364
10056TIP3   OH251658   2.600   2.385   3.881  0.3406  0.2668 -0.8549
10056TIP3    H151659   2.566   2.384   3.970 -1.1343  1.2922 -1.3665
10056TIP3    H251660   2.529   2.422   3.829  1.6976  1.0086 -2.2424
10057TIP3   OH251661   3.372   3.793   2.447  0.2195  0.4590  0.6293
10057TIP3    H151662   3.379   3.883   2.479  2.0392 -0.3963  2.8810
10057TIP3    H251663   3.445   3.783   2.387 -0.4053  0.6637 -0.1809
10058TIP3   OH251664   5.411   5.202   5.060  0.0591  0.3735 -0.6034
10058TIP3    H151665   5.324   5.190   5.098  1.3668  0.9329  3.0516
10058TIP3    H251666   5.465   5.230   5.135  3.4892 -0.4235 -2.5875
10059TIP3   OH251667   0.461   4.528   0.052 -0.3255 -0.4511  0.5981
10059TIP3    H151668   0.372   4.521   0.086 -1.2464  0.1788 -1.5269
10059TIP3    H251669   0.508   4.580   0.117 -2.4851  2.2684  0.1633
10060TIP3   OH251670   4.263   1.052   4.194 -0.0809  0.6933 -0.5684
10060TIP3    H151671   4.215   0.975   4.162  0.9477 -0.2798  0.1365
10060TIP3    H251672   4.332   1.015   4.249  1.6351  1.9966 -1.7311
10061TIP3   OH251673   4.432   4.149  16.792 -0.2608 -0.4305  0.4679
10061TIP3    H151674   4.434   4.235  16.834  1.1654 -0.4329  0.4681
10061TIP3    H251675   4.392   4.091  16.857  0.4300 -0.1199  1.1833
10062TIP3   OH251676   3.465   4.082   5.633  0.0072  0.9307  0.0183
10062TIP3    H151677   3.462   4.052   5.541  2.7505 -0.0907  0.1629
10062TIP3    H251678   3.446   4.003   5.684  3.7911  0.0437  0.3320
10063TIP3   OH251679   2.401   3.972   3.778 -0.3099  0.1922  0.1523
10063TIP3    H151680   2.323   3.950   3.830 -1.4326 -1.7713 -2.1165
10063TIP3    H251681   2.474   3.936   3.828 -1.0679  0.3824  1.4413
10064TIP3   OH251682   2.428   5.126  15.562  0.1171 -0.2413 -0.1116
10064TIP3    H151683   2.495   5.062  15.541  0.4131  0.3987 -1.2297
10064TIP3    H251684   2.464   5.175  15.636  0.6333 -0.2690 -0.3403
10065TIP3   OH251685   2.470   1.506   0.430  0.0174 -0.1389  0.2849
10065TIP3    H151686   2.561   1.478   0.418  0.4970  1.3118  0.3315
10065TIP3    H251687   2.422   1.463   0.359  0.8043 -0.6178  0.0303
10066TIP3   OH251688   1.017   6.492  16.979  0.2243 -0.1322  0.1485
10066TIP3    H151689   0.993   6.582  16.999 -1.7808 -0.9085  1.4327
10066TIP3    H251690   0.937   6.442  16.991  1.5178 -2.2570  0.4440
10067TIP3   OH251691   3.721   2.028   2.665 -0.9213  0.7380 -0.3214
10067TIP3    H151692   3.751   1.980   2.587 -0.2535 -0.0710  0.4033
10067TIP3    H251693   3.791   2.090   2.684 -0.3669 -0.1010  0.4849
10068TIP3   OH251694   6.251   2.278  15.252  0.5818 -0.1616 -0.3929
10068TIP3    H151695   6.267   2.373  15.252 -0.4432  0.0388  0.4960
10068TIP3    H251696   6.194   2.264  15.328  3.3273 -1.9663  1.5184
10069TIP3   OH251697   0.298   0.027   4.480 -0.3807  0.0624 -0.0813
10069TIP3    H151698   0.279   0.089   4.410 -1.0891 -0.0365  0.0086
10069TIP3    H251699   0.244  -0.050   4.459  0.3874 -0.4808 -0.1259
10070TIP3   OH251700   3.472   6.252  16.909 -0.1413 -0.6552  0.2378
10070TIP3    H151701   3.522   6.199  16.848  2.0901  1.5394 -0.0096
10070TIP3    H251702   3.530   6.262  16.985 -0.3595  1.5168  0.1878
10071TIP3   OH251703   6.582   4.530  12.812 -0.8779 -0.7324 -0.2558
10071TIP3    H151704   6.572   4.442  12.848  0.3712  0.0933  2.3343
10071TIP3    H251705   6.604   4.516  12.720  3.7289 -3.3980  0.9578
10072TIP3   OH251706   2.539   5.317  10.938  0.3584  0.1204 -0.4448
10072TIP3    H151707   2.626   5.285  10.960 -0.2549 -1.3635 -0.0534
10072TIP3    H251708   2.524   5.389  11.000  0.4485 -1.0638  1.0269
10073TIP3   OH251709   2.507   3.128  15.224 -0.0589 -1.3361  0.2883
10073TIP3    H151710   2.468   3.168  15.145 -2.7324 -2.3306  1.0057
10073TIP3    H251711   2.550   3.201  15.268  0.4233 -0.5052 -1.4489
10074TIP3   OH251712   3.429   6.545  13.052 -0.2290 -0.2086 -0.1116
10074TIP3    H151713   3.443   6.465  13.000  0.4603 -0.6669  0.7450
10074TIP3    H251714   3.419   6.513  13.142  2.2563  0.7726  0.5980
10075TIP3   OH251715   3.056   6.275  12.261 -0.1197  0.2911 -0.2356
10075TIP3    H151716   3.029   6.200  12.209 -1.2935  1.2926 -1.1300
10075TIP3    H251717   2.989   6.285  12.328  0.0685  0.4861 -0.0728
10076TIP3   OH251718   4.977   6.153   0.954  0.3914 -0.3798  0.0372
10076TIP3    H151719   4.905   6.093   0.939  0.1662  0.3797 -2.5053
10076TIP3    H251720   5.043   6.102   0.999 -0.6431 -1.8872 -0.1019
10077TIP3   OH251721   4.761   4.591   4.437  0.5447  0.9001  0.2096
10077TIP3    H151722   4.823   4.542   4.491  1.4491  1.7591 -0.0260
10077TIP3    H251723   4.699   4.628   4.500  0.6833  0.6305  0.5108
10078TIP3   OH251724   1.441   0.919  13.414  0.2700  0.5576 -0.5199
10078TIP3    H151725   1.500   0.994  13.406  0.5891  0.3687  0.0422
10078TIP3    H251726   1.485   0.850  13.364  0.6793  0.3263  0.1562
10079TIP3   OH251727   4.916   0.510   2.377  0.3058 -0.2587  0.6502
10079TIP3    H151728   4.976   0.467   2.438  0.1548 -0.0921  0.9231
10079TIP3    H251729   4.930   0.466   2.294 -0.4156 -1.4002  1.1009
10080TIP3   OH251730   2.014   6.753  11.649  0.0250 -0.1320  0.2413
10080TIP3    H151731   2.045   6.671  11.611  0.3488  0.3386 -0.5370
10080TIP3    H251732   1.927   6.732  11.683 -0.4722 -0.4855 -1.1592
10081TIP3   OH251733   3.653   4.022  11.787  0.2079 -0.5443 -0.6459
10081TIP3    H151734   3.626   3.946  11.736 -2.8823 -0.9371  1.3255
10081TIP3    H251735   3.630   4.098  11.732  0.4489 -0.9634 -1.3429
10082TIP3   OH251736   4.308   0.427   0.301  0.2299  0.2289  0.3149
10082TIP3    H151737   4.393   0.418   0.258 -0.1220 -0.0391 -0.3417
10082TIP3    H251738   4.244   0.416   0.230 -0.3347  2.6173  0.3700
10083TIP3   OH251739   6.327   2.075   1.082  0.0224 -0.3157 -0.3792
10083TIP3    H151740   6.329   2.159   1.036  2.3215 -1.2688 -2.2566
10083TIP3    H251741   6.387   2.086   1.155 -1.0129  0.1616  0.4218
10084TIP3   OH251742   2.693   0.477   5.253  0.3820 -0.3151  0.1744
10084TIP3    H151743   2.601   0.468   5.276  0.7027 -1.0346  1.2583
10084TIP3    H251744   2.719   0.561   5.288  0.3284 -0.4522  0.5408
10085TIP3   OH251745   3.419   4.645  14.484 -0.6607 -0.2657 -0.2629
10085TIP3    H151746   3.487   4.699  14.444 -0.3553 -0.6691 -0.2958
10085TIP3    H251747   3.459   4.611  14.564 -1.5143  1.1195  0.7750
10086TIP3   OH251748   4.530   3.755   3.364 -0.3133 -0.0294 -0.0776
10086TIP3    H151749   4.493   3.685   3.417 -3.1003 -0.4418 -2.2491
10086TIP3    H251750   4.584   3.710   3.299  1.0334  0.2442  0.8192
10087TIP3   OH251751   6.017   4.062   1.894  0.6490 -0.8187  0.2545
10087TIP3    H151752   6.109   4.045   1.874  0.9706  2.1858 -1.4063
10087TIP3    H251753   6.020   4.112   1.976  0.6330  0.2121 -0.3568
10088TIP3   OH251754   0.481   5.334  12.500  0.0387 -0.2984 -0.9493
10088TIP3    H151755   0.549   5.366  12.558 -0.8898 -1.4379  0.8739
10088TIP3    H251756   0.525   5.269  12.445  0.1967 -2.2289  1.3047
10089TIP3   OH251757   5.767   6.554   1.408  0.0730 -0.9789  0.3025
10089TIP3    H151758   5.796   6.613   1.478 -0.2070 -0.4790  0.0027
10089TIP3    H251759   5.751   6.471   1.452 -0.4149 -0.5804  0.9046
10090TIP3   OH251760   1.757   0.347  12.649  0.0195  0.1704 -0.4984
10090TIP3    H151761   1.807   0.300  12.715  2.4173 -0.3901 -2.5375
10090TIP3    H251762   1.785   0.438  12.658 -1.6334  0.5826  0.8804
10091TIP3   OH251763   3.797   4.220  15.848  0.0940 -0.3578 -0.3670
10091TIP3    H151764   3.806   4.125  15.850  0.6716 -0.2991  0.5769
10091TIP3    H251765   3.885   4.253  15.864 -0.5052  0.2932  1.9521
10092TIP3   OH251766   3.443   1.899   2.270 -0.3280 -0.3237 -0.2846
10092TIP3    H151767   3.462   1.806   2.279  1.2154 -0.2946 -2.3683
10092TIP3    H251768   3.515   1.943   2.316 -1.9509 -0.0551  2.2018
10093TIP3   OH251769   6.349   5.825  11.052 -0.2662  0.0365 -0.1248
10093TIP3    H151770   6.434   5.794  11.085 -0.0075 -0.6029 -1.3201
10093TIP3    H251771   6.291   5.821  11.127  0.3549 -1.1583  0.3239
10094TIP3   OH251772   2.151   5.829  14.667 -0.1000  0.2441 -0.1332
10094TIP3    H151773   2.224   5.836  14.728 -0.5105  1.3144  0.2563
10094TIP3    H251774   2.149   5.914  14.622 -0.5478 -0.1020 -0.7868
10095TIP3   OH251775   1.844   1.531  13.039  0.2307 -0.1455 -0.0185
10095TIP3    H151776   1.939   1.532  13.026  0.3245  0.4859  0.6925
10095TIP3    H251777   1.810   1.498  12.956  0.9788  1.0400 -0.8227
10096TIP3   OH251778   5.153   5.191  15.055  0.2452 -0.0355  0.0353
10096TIP3    H151779   5.104   5.110  15.070  0.5256  0.0776  1.6639
10096TIP3    H251780   5.187   5.182  14.966 -1.7302 -0.6366 -0.7269
10097TIP3   OH251781   6.645   4.206   6.669 -0.1494  0.7407  0.6262
10097TIP3    H151782   6.608   4.120   6.685 -0.2455  0.4546 -0.9660
10097TIP3    H251783   6.737   4.189   6.646 -0.5906  0.8401 -1.4407
10098TIP3   OH251784   4.848   3.908   5.454  1.0339 -0.1567  0.5057
10098TIP3    H151785   4.932   3.879   5.418  1.3425 -1.6972  2.2961
10098TIP3    H251786   4.868   3.989   5.501  1.3189 -0.0007  0.1183
10099TIP3   OH251787   0.796   1.343   5.639 -0.4396  0.4036 -0.5616
10099TIP3    H151788   0.801   1.247   5.631  0.2813  0.5838 -3.3979
10099TIP3    H251789   0.703   1.362   5.630 -0.5724 -0.0154 -0.1349
10100TIP3   OH251790   5.522   2.531   0.107 -0.2047 -0.0724 -0.3476
10100TIP3    H151791   5.439   2.573   0.084  1.3991  3.1058 -0.8207
10100TIP3    H251792   5.523   2.532   0.203 -1.3382 -1.5975 -0.2841
10101TIP3   OH251793   2.291   1.465   4.186 -0.7246  0.3891  0.8604
10101TIP3    H151794   2.315   1.542   4.135  0.8004  0.2155  1.2741
10101TIP3    H251795   2.274   1.397   4.121  4.6528 -0.9144  0.3294
10102TIP3   OH251796   0.176   6.635  13.015  0.3997  0.2192 -0.5484
10102TIP3    H151797   0.154   6.727  13.025  0.5661  0.0543  2.5780
10102TIP3    H251798   0.096   6.594  12.983 -0.6810  1.0581  0.9586
10103TIP3   OH251799   0.346   0.026   2.244  0.0286  0.5642  0.7317
10103TIP3    H151800   0.277  -0.040   2.247  0.6322 -0.1879 -0.9048
10103TIP3    H251801   0.415  -0.008   2.302 -0.3609  0.6159  1.2346
10104TIP3   OH251802   1.058   4.564  13.956  0.6751  0.1666  0.3989
10104TIP3    H151803   0.998   4.493  13.936 -0.2813  0.9175  0.5056
10104TIP3    H251804   1.132   4.552  13.896  0.6378 -1.0280  0.5755
10105TIP3   OH251805   0.148   5.214  12.406  0.2457  0.3697 -0.0434
10105TIP3    H151806   0.170   5.150  12.474 -1.2879  0.3641  0.4887
10105TIP3    H251807   0.154   5.299  12.450 -1.0872  0.3449  0.2345
10106TIP3   OH251808   4.043   2.159   5.800 -0.5230  0.0846 -0.1877
10106TIP3    H151809   4.066   2.228   5.738  1.5836 -0.4823 -0.1352
10106TIP3    H251810   4.113   2.163   5.866 -0.5666 -1.8170  0.0235
10107TIP3   OH251811   0.446   6.704   4.045 -0.4081  0.1065  0.2852
10107TIP3    H151812   0.386   6.629   4.041  0.7759 -0.8257 -0.9596
10107TIP3    H251813   0.518   6.680   3.987  0.2735  1.9993  0.2833
10108TIP3   OH251814   1.686   5.603   3.175 -0.3172  0.2318 -0.2970
10108TIP3    H151815   1.700   5.515   3.211 -0.4766  1.7441  4.1134
10108TIP3    H251816   1.758   5.616   3.115  4.4832 -0.4427  4.5454
10109TIP3   OH251817   1.935   5.231  10.824  0.2706  0.2171  0.3607
10109TIP3    H151818   1.921   5.283  10.745  0.0120  0.0924  0.3225
10109TIP3    H251819   1.965   5.294  10.889  1.4972  0.1658 -0.1143
10110TIP3   OH251820   4.645   6.031   6.704  0.2604  0.2207 -0.2731
10110TIP3    H151821   4.720   6.003   6.757  0.7696 -0.4174 -1.3076
10110TIP3    H251822   4.586   5.956   6.703  0.3243  0.1723 -0.7268
10111TIP3   OH251823   4.187   2.965  13.201  0.0726  0.2601 -0.8546
10111TIP3    H151824   4.176   3.055  13.230 -0.7074 -0.3389  0.8648
10111TIP3    H251825   4.164   2.967  13.108  0.2353  1.8504 -0.8871
10112TIP3   OH251826   3.256   5.725  13.900 -0.2077  0.2349  0.4887
10112TIP3    H151827   3.242   5.817  13.920 -2.5289 -0.5133  2.8288
10112TIP3    H251828   3.337   5.702  13.946  1.6449  1.5117 -1.9308
10113TIP3   OH251829   0.392   3.274  16.882 -0.1903  0.1825 -0.4675
10113TIP3    H151830   0.344   3.356  16.898 -0.8348  0.3671 -2.9609
10113TIP3    H251831   0.367   3.218  16.955 -1.4748  1.4733  0.1435
10114TIP3   OH251832   0.766   1.030  15.328  0.0291  0.2389 -0.1017
10114TIP3    H151833   0.714   1.028  15.247  0.3936  2.0407 -0.4112
10114TIP3    H251834   0.718   1.089  15.386  0.8710  0.6307  0.2129
10115TIP3   OH251835   3.496   2.806  14.384 -0.1272  0.1898  0.4588
10115TIP3    H151836   3.520   2.897  14.367 -0.8681  0.4289  0.6425
10115TIP3    H251837   3.449   2.810  14.467 -2.0563 -0.0340 -0.5795
10116TIP3   OH251838   5.812   2.579   2.554  0.4958 -0.0040 -1.1668
10116TIP3    H151839   5.800   2.621   2.640 -1.7492 -1.9241 -0.4597
10116TIP3    H251840   5.777   2.642   2.491 -0.5242  0.2416 -0.3705
10117TIP3   OH251841   4.487   0.112   0.058  0.2726 -0.2730 -0.0707
10117TIP3    H151842   4.547   0.179   0.091 -0.9227  0.6940  0.1870
10117TIP3    H251843   4.508   0.034   0.111  1.6680 -0.1358 -0.3717
10118TIP3   OH251844   2.261   2.758   5.111 -0.3473 -0.2928 -0.4391
10118TIP3    H151845   2.191   2.767   5.046 -0.6336  1.4405  0.0631
10118TIP3    H251846   2.242   2.676   5.156 -1.4607 -0.3572 -0.9975
10119TIP3   OH251847   4.218   1.694   0.521 -0.0756 -0.1421  0.1464
10119TIP3    H151848   4.199   1.730   0.608 -1.0985  2.5293 -1.0834
10119TIP3    H251849   4.202   1.600   0.531 -1.2927  0.2249  2.5536
10120TIP3   OH251850   5.090   6.479   0.569 -0.4190  0.2098 -0.0508
10120TIP3    H151851   5.176   6.461   0.607 -0.4583 -1.5821 -0.7293
10120TIP3    H251852   5.095   6.571   0.542  0.8650  0.4668  0.9473
10121TIP3   OH251853   0.149   2.226  15.871 -0.2497 -0.2980 -0.4704
10121TIP3    H151854   0.214   2.157  15.887  0.1780 -0.0579 -1.1310
10121TIP3    H251855   0.176   2.297  15.930  1.6880  0.8211 -2.5315
10122TIP3   OH251856   4.961   4.703  12.677 -0.2193  0.1155  0.6243
10122TIP3    H151857   5.016   4.635  12.637  1.2113  1.3230  0.4598
10122TIP3    H251858   4.876   4.694  12.633  0.1212 -1.1479  0.1728
10123TIP3   OH251859   2.068   2.510  13.023 -0.2683 -0.9337  0.0280
10123TIP3    H151860   1.985   2.523  12.976  0.7098 -0.0163 -1.5456
10123TIP3    H251861   2.108   2.435  12.980  0.2098 -0.6798  0.0244
10124TIP3   OH251862   3.119   1.631  15.818 -0.1314 -0.1252  0.0209
10124TIP3    H151863   3.066   1.642  15.740  0.5341 -0.4889 -0.4905
10124TIP3    H251864   3.082   1.693  15.881  0.5960  1.7153 -1.2549
10125TIP3   OH251865   4.604   5.232  12.352 -0.3938  0.2889  0.4063
10125TIP3    H151866   4.550   5.200  12.424  0.3258 -2.6448 -0.2226
10125TIP3    H251867   4.570   5.319  12.333 -1.8224  0.4019  3.0218
10126TIP3   OH251868   0.904   0.543  15.065 -0.0094  0.1266  0.2703
10126TIP3    H151869   0.821   0.569  15.025 -0.0287  0.3683  0.4599
10126TIP3    H251870   0.955   0.624  15.069  0.6426 -0.2208 -0.7978
10127TIP3   OH251871   5.179   5.563   5.338  0.0556  0.3649  0.3116
10127TIP3    H151872   5.206   5.596   5.424  1.4717  0.9424 -0.3159
10127TIP3    H251873   5.196   5.469   5.343 -0.7116  0.2534  0.9544
10128TIP3   OH251874   5.304   6.354   5.726  0.0215 -0.1343  0.3807
10128TIP3    H151875   5.233   6.300   5.761 -0.4958 -0.4357 -1.0413
10128TIP3    H251876   5.271   6.383   5.641  2.4143 -2.0339 -1.3352
10129TIP3   OH251877   4.790   4.648   1.093  0.7418 -0.2227 -0.4721
10129TIP3    H151878   4.759   4.587   1.026 -0.1273  0.6194 -0.8622
10129TIP3    H251879   4.874   4.680   1.059  1.7046 -1.8981  0.2008
10130TIP3   OH251880   3.850   3.676  11.879 -0.6493  0.2559 -0.2515
10130TIP3    H151881   3.929   3.721  11.849  0.2115 -1.6214 -0.9311
10130TIP3    H251882   3.807   3.646  11.799 -1.5710  0.4610  0.1525
10131TIP3   OH251883   3.831   0.339  13.282  0.4400  0.1501 -0.1673
10131TIP3    H151884   3.865   0.429  13.288  1.5998 -0.2611 -0.2421
10131TIP3    H251885   3.884   0.298  13.214 -1.0108 -0.2149 -1.1264
10132TIP3   OH251886   6.611   4.247  12.529 -0.4102  0.1447  0.3006
10132TIP3    H151887   6.631   4.334  12.495 -2.3363  0.6379  0.3036
10132TIP3    H251888   6.528   4.259  12.577 -0.2578 -1.5149  1.0344
10133TIP3   OH251889   0.333   2.065   3.546  0.0337 -0.2996 -0.1340
10133TIP3    H151890   0.355   2.021   3.464  0.0118 -0.7595  0.1022
10133TIP3    H251891   0.323   2.157   3.522  4.1560  0.3511  0.0778
10134TIP3   OH251892   4.537   0.162   3.377  0.1546 -0.1204 -0.3150
10134TIP3    H151893   4.582   0.167   3.293  1.5652  0.3753  0.4417
10134TIP3    H251894   4.488   0.080   3.373 -1.5307  0.9005 -2.4204
10135TIP3   OH251895   6.819   0.114  17.104 -0.0336 -0.3817  0.3710
10135TIP3    H151896   6.781   0.145  17.186  0.5468 -2.1400  1.3643
10135TIP3    H251897   6.913   0.111  17.120  0.0660 -1.0094 -0.2384
10136TIP3   OH251898   1.490   6.785   2.891 -0.3452  0.1891 -0.3065
10136TIP3    H151899   1.506   6.828   2.807 -0.8528  1.4410  0.1996
10136TIP3    H251900   1.434   6.711   2.870 -0.7447  0.6891 -1.0463
10137TIP3   OH251901   6.306   1.717   4.148 -0.2328  0.9103 -0.1841
10137TIP3    H151902   6.310   1.682   4.059 -0.9848  0.6357 -0.1159
10137TIP3    H251903   6.311   1.640   4.204  0.0301  1.0669  0.0106
10138TIP3   OH251904   5.565   5.657  12.968 -0.0215  0.9539  0.0378
10138TIP3    H151905   5.555   5.706  12.887 -4.1800 -0.0559 -0.2509
10138TIP3    H251906   5.514   5.577  12.955  1.2787 -0.4839  2.7824
10139TIP3   OH251907   2.746   3.524  14.282  0.0262 -0.2831 -0.4400
10139TIP3    H151908   2.798   3.597  14.249  0.9371 -0.9959 -0.6562
10139TIP3    H251909   2.757   3.528  14.377  0.3337 -0.3134 -0.4714
10140TIP3   OH251910   1.340   2.768   0.934 -0.2151 -0.2451  0.4926
10140TIP3    H151911   1.323   2.705   0.865  0.9243  0.2450 -0.2601
10140TIP3    H251912   1.353   2.851   0.889  3.0097 -0.3481  1.0053
10141TIP3   OH251913   2.366   2.278   0.954 -0.7947 -0.4741 -0.2676
10141TIP3    H151914   2.291   2.337   0.961 -0.1789  0.1940  1.6324
10141TIP3    H251915   2.341   2.201   1.004  0.2171  0.3366  1.6245
10142TIP3   OH251916   3.260   4.343  14.770  0.3163 -0.1737  0.6122
10142TIP3    H151917   3.303   4.349  14.684  2.6835 -0.8092  1.6705
10142TIP3    H251918   3.180   4.394  14.760  0.5494 -0.1641 -1.9493
10143TIP3   OH251919   5.490   2.834   4.045 -0.2666  0.3543  0.2044
10143TIP3    H151920   5.477   2.911   4.102 -0.9810  0.0516  0.4540
10143TIP3    H251921   5.527   2.871   3.965 -1.2172  1.0530  0.0670
10144TIP3   OH251922   6.287   2.336  13.685  0.5667 -0.0266  0.0654
10144TIP3    H151923   6.370   2.305  13.722  0.5268 -0.7077 -0.3863
10144TIP3    H251924   6.224   2.328  13.757  1.0588  1.3122  0.6720
10145TIP3   OH251925   4.808   4.551   1.405  0.1902  0.1240  0.4342
10145TIP3    H151926   4.886   4.606   1.395 -0.8919  1.6477  0.0712
10145TIP3    H251927   4.742   4.593   1.350 -0.8957 -1.1465  0.7282
10146TIP3   OH251928   5.599   5.491   0.208 -0.1498 -0.4700 -0.2795
10146TIP3    H151929   5.537   5.557   0.180 -0.7438 -0.9338 -0.0821
10146TIP3    H251930   5.664   5.539   0.260  1.0746  0.4304 -2.5002
10147TIP3   OH251931   3.364   4.302  13.932  0.6589 -0.0705  0.4966
10147TIP3    H151932   3.310   4.355  13.873  1.0419 -1.1566 -0.8815
10147TIP3    H251933   3.445   4.287  13.883  1.1465 -0.6620  1.4637
10148TIP3   OH251934   6.424   3.230   1.141 -0.3301  0.5065 -0.1133
10148TIP3    H151935   6.386   3.142   1.133 -0.6775  0.3796  2.2732
10148TIP3    H251936   6.453   3.252   1.052 -0.8212 -1.7431 -0.8874
10149TIP3   OH251937   1.253   2.973   2.746 -0.9666  0.3745 -0.0693
10149TIP3    H151938   1.347   2.992   2.738 -0.5529 -1.4554 -0.1342
10149TIP3    H251939   1.227   2.947   2.658 -0.6923 -2.3830  0.5787
10150TIP3   OH251940   6.564   4.037   2.703  0.4057 -0.2784  0.4739
10150TIP3    H151941   6.493   4.018   2.642  2.1033 -0.1207 -1.6998
10150TIP3    H251942   6.560   4.132   2.716 -1.1845 -0.5257  2.3365
10151TIP3   OH251943   3.232   4.574   6.505 -0.1897 -0.4657 -0.2040
10151TIP3    H151944   3.145   4.602   6.531  0.6077 -1.4487  4.4927
10151TIP3    H251945   3.276   4.654   6.476 -1.7809  0.5873  0.1764
10152TIP3   OH251946   3.450   0.196   4.888 -0.3549 -0.2940  0.4966
10152TIP3    H151947   3.394   0.271   4.869  1.1901  0.4795 -1.3898
10152TIP3    H251948   3.486   0.171   4.803  0.6758 -1.9697  1.3678
10153TIP3   OH251949   3.128   1.473  15.540 -0.1480  0.4977 -0.1000
10153TIP3    H151950   3.177   1.486  15.459 -1.1078 -0.1145 -0.8013
10153TIP3    H251951   3.064   1.405  15.519 -0.2753  0.1618  1.2428
10154TIP3   OH251952   6.304   5.235  16.093 -0.3517  0.1937  0.3773
10154TIP3    H151953   6.395   5.205  16.097 -0.8135 -1.9032 -1.9122
10154TIP3    H251954   6.254   5.166  16.139 -1.0385 -0.4315 -1.2241
10155TIP3   OH251955   2.825   6.704  11.665 -0.0855 -0.0146  0.2219
10155TIP3    H151956   2.836   6.795  11.693  0.7563 -0.5039  1.6067
10155TIP3    H251957   2.906   6.683  11.617 -0.9861  0.4351 -1.5738
10156TIP3   OH251958   4.057   1.774  11.268 -0.0474 -0.3424  0.3075
10156TIP3    H151959   4.113   1.798  11.343 -1.6525  0.5138  1.2854
10156TIP3    H251960   4.118   1.765  11.195  1.3152  1.3645  1.1477
10157TIP3   OH251961   3.118   0.832  16.497  0.0986  0.3268  0.4453
10157TIP3    H151962   3.179   0.763  16.524  1.2840  1.6104  1.2372
10157TIP3    H251963   3.067   0.851  16.576 -1.9363 -1.2420 -0.4009
10158TIP3   OH251964   1.029   3.303  11.699 -0.5553  0.0276  0.3140
10158TIP3    H151965   1.000   3.384  11.740 -0.3066 -0.4079  1.3950
10158TIP3    H251966   1.039   3.241  11.772  1.5329 -0.3007 -0.1830
10159TIP3   OH251967   0.753   6.378   6.442 -0.0955 -0.5990  0.2780
10159TIP3    H151968   0.767   6.422   6.358 -0.3224 -2.6495 -0.9149
10159TIP3    H251969   0.682   6.427   6.484 -1.5253 -0.8271 -1.7493
10160TIP3   OH251970   1.107   0.043   6.344 -0.5173  0.3539  0.2955
10160TIP3    H151971   1.069   0.126   6.373 -0.8049  0.0127  0.9034
10160TIP3    H251972   1.034  -0.019   6.346 -0.6014  0.3622 -1.3773
10161TIP3   OH251973   1.575   4.459   1.843 -0.1603  0.2212 -0.3955
10161TIP3    H151974   1.663   4.491   1.863 -0.7304  1.2372  0.6273
10161TIP3    H251975   1.590   4.380   1.791  1.3578  0.0117  0.2909
10162TIP3   OH251976   3.022   5.376  16.124 -0.0845  0.3242 -0.2038
10162TIP3    H151977   3.093   5.383  16.061 -0.6060 -0.0984 -0.8439
10162TIP3    H251978   3.036   5.292  16.168 -0.7202 -0.2087 -0.9979
10163TIP3   OH251979   6.032   1.607  12.925  0.1484 -0.3287 -0.0099
10163TIP3    H151980   5.954   1.605  12.981  0.2344  0.6802  0.1578
10163TIP3    H251981   6.079   1.526  12.946 -0.9589 -1.0684 -0.2792
10164TIP3   OH251982   5.698   0.064  13.262  0.4486  0.0222  0.1397
10164TIP3    H151983   5.694  -0.030  13.247 -0.5310 -0.0903  0.9641
10164TIP3    H251984   5.783   0.079  13.304 -0.0202 -0.7241  1.3939
10165TIP3   OH251985   1.905   2.009  16.238  0.2754  0.0625  0.6693
10165TIP3    H151986   1.986   1.988  16.192  0.3457 -2.1542  1.6831
10165TIP3    H251987   1.835   1.987  16.177  0.3892 -1.9782  1.2232
10166TIP3   OH251988   4.269   5.200  13.509 -0.0324  0.6016  0.7287
10166TIP3    H151989   4.198   5.138  13.525  0.5189 -0.4079 -0.6031
10166TIP3    H251990   4.315   5.166  13.432  1.5917  1.5029  1.2402
10167TIP3   OH251991   1.699   4.885  16.411 -0.0126 -0.0533  0.5454
10167TIP3    H151992   1.656   4.803  16.388  1.9479 -1.4539  1.5830
10167TIP3    H251993   1.793   4.865  16.406  0.5508  1.2625  3.6338
10168TIP3   OH251994   1.303   3.277   5.601  0.2262 -0.0749  0.7720
10168TIP3    H151995   1.296   3.204   5.662 -0.0053 -1.9507 -1.3824
10168TIP3    H251996   1.389   3.267   5.560 -0.4116 -0.0987 -0.6436
10169TIP3   OH251997   5.386   6.459   4.546  0.5252 -0.1408 -0.2586
10169TIP3    H151998   5.297   6.460   4.583  0.2579 -1.1806 -0.8379
10169TIP3    H251999   5.374   6.485   4.455  0.9806  0.8602 -0.0476
10170TIP3   OH252000   0.604   4.138   1.995  0.9459 -0.4267  0.2437
10170TIP3    H152001   0.693   4.160   2.022  2.3085 -4.1355 -0.6063
10170TIP3    H252002   0.570   4.084   2.066  0.0391 -0.5453 -0.2646
10171TIP3   OH252003   0.488   5.895  11.321  0.2397  0.3113 -0.0549
10171TIP3    H152004   0.583   5.909  11.314  0.0513  1.0231 -1.5462
10171TIP3    H252005   0.450   5.980  11.300 -0.7513 -0.3079 -0.8565
10172TIP3   OH252006   1.246   5.465   2.672  0.2204 -0.2193  0.2743
10172TIP3    H152007   1.164   5.500   2.637 -0.4755 -0.2967  1.7478
10172TIP3    H252008   1.248   5.374   2.642  1.5145  0.6661 -2.6715
10173TIP3   OH252009   4.508   0.555   5.186  0.1730  0.3415 -0.3940
10173TIP3    H152010   4.517   0.592   5.273  1.1754 -2.2327  0.7173
10173TIP3    H252011   4.589   0.505   5.173 -1.3041 -1.9407 -1.4369
10174TIP3   OH252012   6.123   0.412  17.026 -0.1399 -0.6019 -0.0006
10174TIP3    H152013   6.141   0.418  17.120  0.6620 -1.5483 -0.0750
10174TIP3    H252014   6.113   0.318  17.010 -0.9038 -0.4011 -0.7556
10175TIP3   OH252015   3.684   5.255  16.519  0.2396  0.5678 -0.4097
10175TIP3    H152016   3.594   5.268  16.549  0.7744  2.3044  0.6078
10175TIP3    H252017   3.719   5.186  16.576 -0.1435  0.6218 -0.1042
10176TIP3   OH252018   2.507   0.801   0.405  0.4557 -0.0373 -0.2534
10176TIP3    H152019   2.458   0.746   0.465 -0.7029  1.4992  0.2760
10176TIP3    H252020   2.489   0.764   0.318 -1.0647  0.0414  0.0064
10177TIP3   OH252021   4.029   0.168   0.845 -0.3642  0.4235  0.2833
10177TIP3    H152022   4.006   0.076   0.852  2.1629 -0.1259  3.3063
10177TIP3    H252023   3.946   0.215   0.860 -1.0202 -1.3882  3.0862
10178TIP3   OH252024   3.887   0.099   4.988  0.4844  0.1610 -0.2569
10178TIP3    H152025   3.874   0.193   4.989  0.8005  0.2001  0.3029
10178TIP3    H252026   3.803   0.063   4.960  0.0164  0.5464  0.6418
10179TIP3   OH252027   3.894   4.218  13.843  0.1914 -0.0584  0.0501
10179TIP3    H152028   3.884   4.166  13.763 -1.2891  1.5217 -0.8661
10179TIP3    H252029   3.905   4.308  13.812 -1.3243  0.7291  1.6144
10180TIP3   OH252030   3.462   0.845  10.942  0.4321 -0.1395  0.1804
10180TIP3    H152031   3.463   0.940  10.946 -0.3191 -0.1432  0.6618
10180TIP3    H252032   3.532   0.818  11.002  0.7554  0.1074 -0.0844
10181TIP3   OH252033   3.795   5.086  12.755 -0.3113  0.4408  0.5266
10181TIP3    H152034   3.877   5.135  12.744 -0.3086  0.4311  0.5046
10181TIP3    H252035   3.823   4.996  12.769 -0.3731  0.0689 -1.4492
10182TIP3   OH252036   1.690   4.216  14.353 -0.4267 -0.0731  0.8385
10182TIP3    H152037   1.763   4.171  14.311 -0.2531 -0.8234  1.9042
10182TIP3    H252038   1.658   4.277  14.286 -0.3808 -1.4446 -0.4976
10183TIP3   OH252039   0.068   5.517   4.966  0.0601 -0.0173 -0.1870
10183TIP3    H152040   0.075   5.435   5.016  0.9582  1.2280  1.8488
10183TIP3    H252041   0.014   5.574   5.020 -0.4416  0.8052 -1.5071
10184TIP3   OH252042   4.901   3.509   3.040  0.3811  0.5233  0.9615
10184TIP3    H152043   4.919   3.583   2.981  0.8497  0.4802  1.0439
10184TIP3    H252044   4.869   3.440   2.983 -2.0446  1.4254  1.1122
10185TIP3   OH252045   6.831   5.360   1.372  0.4641  0.2300  0.1028
10185TIP3    H152046   6.807   5.440   1.326 -0.6687 -1.0877 -1.7430
10185TIP3    H252047   6.747   5.315   1.386  1.0042 -0.3477  1.7248
10186TIP3   OH252048   0.992   6.688   0.474  0.4350  0.1206 -0.7825
10186TIP3    H152049   0.971   6.752   0.405 -0.2702  1.4462  0.5911
10186TIP3    H252050   0.993   6.604   0.429 -0.7750  0.8496 -2.2846
10187TIP3   OH252051   4.053   4.546   3.755 -0.4742 -0.4272 -0.0351
10187TIP3    H152052   4.058   4.627   3.806 -3.1591  0.3153 -0.7863
10187TIP3    H252053   4.086   4.570   3.669  2.8341 -1.3539  0.8284
10188TIP3   OH252054   4.079   4.487  14.364  0.4995 -0.5839 -0.3427
10188TIP3    H152055   4.132   4.443  14.430 -0.4418  0.8294  1.4480
10188TIP3    H252056   3.993   4.496  14.404 -0.2098  0.0130 -1.9142
10189TIP3   OH252057   0.616   3.599   5.807  0.2707  0.4477 -0.5267
10189TIP3    H152058   0.581   3.644   5.884 -1.1542 -0.1320 -0.8144
10189TIP3    H252059   0.703   3.638   5.794  0.0494  1.3860  0.6600
10190TIP3   OH252060   2.427   5.276   4.972  0.2174 -0.1637 -0.7902
10190TIP3    H152061   2.511   5.310   4.941  0.3039 -0.2672 -0.6692
10190TIP3    H252062   2.444   5.185   4.994  0.1649 -0.0796 -0.3992
10191TIP3   OH252063   4.062   6.561   4.265  0.1021  0.2329 -0.1395
10191TIP3    H152064   4.008   6.615   4.207  0.8604  1.8110  0.5690
10191TIP3    H252065   4.146   6.606   4.270 -0.2611  0.7783  3.0081
10192TIP3   OH252066   1.202   1.615  12.477 -0.3358 -0.0971 -0.2516
10192TIP3    H152067   1.159   1.669  12.410 -1.0421 -0.1785  0.1363
10192TIP3    H252068   1.135   1.555  12.507  0.3963 -1.0895 -0.5413
10193TIP3   OH252069   2.205   5.664   0.596  0.4439 -0.2628  0.1146
10193TIP3    H152070   2.194   5.570   0.584  1.2750 -0.4201  0.4735
10193TIP3    H252071   2.117   5.697   0.610  0.1124 -0.9459 -0.2997
10194TIP3   OH252072   5.289   2.146   1.626 -0.2365  0.7231 -0.3839
10194TIP3    H152073   5.253   2.101   1.550  0.2105  1.3597 -0.9771
10194TIP3    H252074   5.242   2.229   1.631 -0.4798  0.5588  0.2250
10195TIP3   OH252075   6.695   2.080   3.840  0.0381 -0.0876  0.0306
10195TIP3    H152076   6.773   2.044   3.798 -0.0516  0.1337 -0.3314
10195TIP3    H252077   6.723   2.166   3.873  0.1393 -0.3069  0.5284
10196TIP3   OH252078   5.644   3.339   1.373 -0.0954  0.2465 -0.2793
10196TIP3    H152079   5.652   3.244   1.380 -0.4062  0.0444 -2.0456
10196TIP3    H252080   5.591   3.365   1.448  0.5494 -0.8761  0.5963
10197TIP3   OH252081   0.079   5.866   0.994 -0.3880 -0.4124 -0.0641
10197TIP3    H152082   0.167   5.890   0.967 -0.4428 -0.0741  0.0535
10197TIP3    H252083   0.089   5.835   1.084  0.0336 -2.9794 -0.9218
10198TIP3   OH252084   6.775   4.065   0.391  0.5696  0.0676 -0.0424
10198TIP3    H152085   6.684   4.094   0.400  0.9259  0.9471  0.9078
10198TIP3    H252086   6.768   3.970   0.379 -0.3851 -0.6853  4.5845
10199TIP3   OH252087   2.723   5.842   3.506  0.2317  0.3091 -0.0135
10199TIP3    H152088   2.695   5.877   3.421  0.5447 -0.9475 -0.6705
10199TIP3    H252089   2.814   5.870   3.514  0.7124 -0.9029 -0.8838
10200TIP3   OH252090   4.695   5.455   5.355  0.2651  0.3891  0.4646
10200TIP3    H152091   4.664   5.405   5.280  1.6054 -0.8317  0.6800
10200TIP3    H252092   4.619   5.459   5.414 -0.6211  0.8591 -0.6692
10201TIP3   OH252093   0.239   6.295  13.225  0.9335 -0.2342 -0.2960
10201TIP3    H152094   0.213   6.361  13.289  0.1797 -1.2467  0.4842
10201TIP3    H252095   0.335   6.295  13.228  1.0747  2.3449 -1.9496
10202TIP3   OH252096   0.423   5.949   3.381  0.1654  0.1680 -0.0272
10202TIP3    H152097   0.437   5.917   3.470  1.6795 -3.0016 -1.2280
10202TIP3    H252098   0.509   5.939   3.339 -0.7507  0.5887 -2.1023
10203TIP3   OH252099   5.496   1.560  14.624  0.1971  0.2892 -0.2417
10203TIP3    H152100   5.470   1.652  14.632 -0.2858  0.1966 -0.6820
10203TIP3    H252101   5.512   1.532  14.714 -3.1443 -0.1591  0.3460
10204TIP3   OH252102   6.228   4.453   0.460 -0.1385  0.0028 -0.0549
10204TIP3    H152103   6.156   4.412   0.507 -0.3769 -1.0442 -1.2836
10204TIP3    H252104   6.200   4.452   0.368  2.0479 -1.8194 -0.7776
10205TIP3   OH252105   4.580   5.958  11.906 -0.2435  0.0761 -0.4561
10205TIP3    H152106   4.654   6.019  11.908 -0.1774 -0.0206  1.0345
10205TIP3    H252107   4.613   5.881  11.860  0.9974 -0.4366  1.2045
10206TIP3   OH252108   4.885   1.719   0.749 -0.6367  0.0584 -0.1171
10206TIP3    H152109   4.840   1.801   0.772  0.0097  0.2707  0.4181
10206TIP3    H252110   4.925   1.738   0.664 -0.3092  0.3767  0.1037
10207TIP3   OH252111   4.368   6.244   3.332  0.3696  0.3394 -0.1820
10207TIP3    H152112   4.391   6.154   3.310 -1.1090 -0.1346  0.0955
10207TIP3    H252113   4.371   6.291   3.249  2.4456  0.3858 -0.1474
10208TIP3   OH252114   4.246   4.694   1.182 -0.7663  0.0819 -0.3491
10208TIP3    H152115   4.225   4.617   1.129  0.4072  0.3778 -1.2893
10208TIP3    H252116   4.301   4.660   1.252 -1.8124 -0.2109  0.3598
10209TIP3   OH252117   4.754   6.768   5.131  0.6628  0.3105  0.1067
10209TIP3    H152118   4.687   6.831   5.158  0.3380 -0.8526  2.1874
10209TIP3    H252119   4.730   6.745   5.041 -1.6756  0.0241  0.7448
10210TIP3   OH252120   6.732   2.133   5.212  0.3869 -0.1192  0.5402
10210TIP3    H152121   6.796   2.202   5.193  1.5454 -1.1118  0.8001
10210TIP3    H252122   6.683   2.167   5.287  0.6682  0.5925  0.4162
10211TIP3   OH252123   4.639   4.106  11.069 -0.5804 -0.0006 -0.4226
10211TIP3    H152124   4.704   4.173  11.089 -1.2008  0.3358  0.5542
10211TIP3    H252125   4.676   4.058  10.995 -0.1843  1.4800 -1.2203
10212TIP3   OH252126   4.731   6.107  15.350 -0.3657 -0.4636  0.2571
10212TIP3    H152127   4.744   6.021  15.390  0.3830 -0.2326  0.5098
10212TIP3    H252128   4.643   6.133  15.377 -0.3535 -0.8688  0.6944
10213TIP3   OH252129   1.938   2.833  12.117  0.5048 -0.1467 -0.4053
10213TIP3    H152130   1.950   2.921  12.080 -1.5750 -0.5062 -2.1185
10213TIP3    H252131   1.865   2.843  12.177  0.4822 -0.6449 -0.3522
10214TIP3   OH252132   4.797   0.974   1.260  0.4723 -0.1731 -0.0516
10214TIP3    H152133   4.763   0.935   1.340  1.9009  0.0030  0.6792
10214TIP3    H252134   4.850   1.048   1.290  1.8144 -0.6722 -1.0817
10215TIP3   OH252135   3.032   4.477  13.518 -0.0023  0.7911 -0.6006
10215TIP3    H152136   3.004   4.447  13.605  0.0539 -0.8211 -1.1143
10215TIP3    H252137   3.108   4.423  13.497  1.4428  2.7691 -0.6949
10216TIP3   OH252138   6.379   6.425  15.319 -0.5713 -0.0015  0.3790
10216TIP3    H152139   6.292   6.444  15.284  0.2798  0.4801 -1.5902
10216TIP3    H252140   6.380   6.468  15.405 -1.0717  3.1623 -1.0582
10217TIP3   OH252141   4.596   4.119  12.298  0.2193 -0.0428 -0.0680
10217TIP3    H152142   4.563   4.134  12.386 -0.4556 -0.6390 -0.2021
10217TIP3    H252143   4.518   4.122  12.243  0.4307 -1.0405 -0.4591
10218TIP3   OH252144   4.116   5.288   0.060 -0.4146  0.3993 -0.2762
10218TIP3    H152145   4.163   5.205   0.052 -0.8181  0.1528 -0.1324
10218TIP3    H252146   4.045   5.270   0.122  0.8295  1.4516  1.5495
10219TIP3   OH252147   0.412   3.221   4.416  0.1924  0.5701 -0.1642
10219TIP3    H152148   0.446   3.214   4.505  2.1938 -1.5789 -1.0066
10219TIP3    H252149   0.324   3.184   4.420  1.4971 -2.7933  0.3871
10220TIP3   OH252150   1.893   0.542  14.885  0.2745  0.4727  0.0443
10220TIP3    H152151   1.904   0.447  14.895  0.8576  0.5496  0.1260
10220TIP3    H252152   1.806   0.551  14.845 -0.3023 -0.0348  1.1335
10221TIP3   OH252153   1.904   4.191   5.199  0.4990 -0.2665 -0.4095
10221TIP3    H152154   1.959   4.154   5.130  0.8313  1.6889 -1.2524
10221TIP3    H252155   1.964   4.240   5.254  0.1684 -1.4460  1.0835
10222TIP3   OH252156   1.896   2.951   3.523 -0.2099 -0.0390  0.5797
10222TIP3    H152157   1.990   2.952   3.505 -0.5420 -1.9326 -1.7164
10222TIP3    H252158   1.888   2.988   3.612  2.5084  1.5913  0.2639
10223TIP3   OH252159   3.669   2.894   2.544 -0.0866  0.3948  0.5165
10223TIP3    H152160   3.662   2.844   2.463  0.3332  0.9049  0.1581
10223TIP3    H252161   3.761   2.885   2.569  0.0108  1.0532  0.4021
10224TIP3   OH252162   3.653   4.542   4.177  0.2101  0.6578  0.2098
10224TIP3    H152163   3.686   4.546   4.087 -2.1287  1.2863 -0.7098
10224TIP3    H252164   3.614   4.455   4.185  1.4810  0.1331  1.0852
10225TIP3   OH252165   4.287   1.768  13.993  0.0428  0.2408 -0.0466
10225TIP3    H152166   4.245   1.689  14.027  0.5793 -0.0976 -0.1456
10225TIP3    H252167   4.381   1.753  14.007  0.0964  1.3498  0.9683
10226TIP3   OH252168   4.123   2.368   5.637  0.2954 -0.2463 -0.6491
10226TIP3    H152169   4.087   2.447   5.596  0.1005 -1.0441 -2.0674
10226TIP3    H252170   4.180   2.330   5.571  0.6526 -1.1251  0.1429
10227TIP3   OH252171   0.567   6.064   0.897  0.4656 -0.3153  0.3913
10227TIP3    H152172   0.563   6.151   0.936 -0.5163 -0.1657 -0.0120
10227TIP3    H252173   0.655   6.033   0.917  0.8713  0.8176  0.4405
10228TIP3   OH252174   0.611   3.856  14.749  0.0584  0.2349 -0.3618
10228TIP3    H152175   0.632   3.900  14.832  0.5082 -0.6737  0.0263
10228TIP3    H252176   0.635   3.919  14.682  1.9641  0.1168  0.1407
10229TIP3   OH252177   2.544   0.717  12.550  0.1254  0.2322 -0.1182
10229TIP3    H152178   2.518   0.785  12.487  1.4890 -0.0458 -1.0167
10229TIP3    H252179   2.617   0.671  12.508  0.8859 -0.1689  1.5336
10230TIP3   OH252180   5.099   6.441  12.651  0.1542 -0.2103  0.1719
10230TIP3    H152181   5.075   6.357  12.691 -0.7134 -0.0482  0.0098
10230TIP3    H252182   5.173   6.471  12.703 -0.3360 -0.4750  1.0521
10231TIP3   OH252183   0.167   1.994  13.402 -0.5347  0.1437 -0.3580
10231TIP3    H152184   0.259   1.999  13.376 -0.6087  2.0057 -0.3863
10231TIP3    H252185   0.119   1.977  13.321 -0.2759 -0.4476 -0.3981
10232TIP3   OH252186   0.773   2.777  15.909  0.1960  0.0595 -0.0291
10232TIP3    H152187   0.752   2.870  15.902  0.1107  0.0916  0.5602
10232TIP3    H252188   0.698   2.739  15.955  1.2762  0.1380  1.9304
10233TIP3   OH252189   2.311   1.524   3.074 -0.2398  0.1187  0.2062
10233TIP3    H152190   2.301   1.502   2.982 -3.9757 -1.1713  0.7626
10233TIP3    H252191   2.405   1.513   3.091  0.2412 -1.8646 -2.8690
10234TIP3   OH252192   1.874   6.428  15.056 -0.4053  0.2984  0.1919
10234TIP3    H152193   1.891   6.488  15.129 -0.0427  0.6225 -0.1514
10234TIP3    H252194   1.838   6.484  14.987 -0.6321  0.0160  0.0833
10235TIP3   OH252195   0.687   4.714   0.638 -0.3210 -0.0548  0.2396
10235TIP3    H152196   0.627   4.645   0.608  0.2327 -0.6038  0.3742
10235TIP3    H252197   0.630   4.787   0.661 -0.8511 -0.0561 -0.9764
10236TIP3   OH252198   4.168   2.675   1.037  0.0630 -0.3745 -0.0705
10236TIP3    H152199   4.105   2.603   1.034  0.8140 -1.0363 -0.2828
10236TIP3    H252200   4.168   2.703   1.128 -0.9066 -0.0302 -0.1672
10237TIP3   OH252201   0.206   1.003  16.704  0.0235  0.2029  0.4037
10237TIP3    H152202   0.175   0.970  16.788  1.1203  1.0711  1.1791
10237TIP3    H252203   0.132   1.052  16.668 -0.9031 -1.2447  0.2146
10238TIP3   OH252204   3.342   4.970   0.446 -0.1230 -0.6822 -0.0569
10238TIP3    H152205   3.369   4.921   0.368  2.8442 -1.5404  1.3490
10238TIP3    H252206   3.258   4.932   0.471  0.0030 -1.9979 -1.5078
10239TIP3   OH252207   1.027   0.191  14.140  0.4220 -0.0095 -0.3305
10239TIP3    H152208   1.000   0.158  14.054 -0.2642 -0.0205 -0.1175
10239TIP3    H252209   1.113   0.151  14.156  1.5894  1.6822 -1.9613
10240TIP3   OH252210   1.178   3.237   2.761 -0.0045  0.7088 -0.5360
10240TIP3    H152211   1.205   3.146   2.771  1.2387  1.0919 -0.2719
10240TIP3    H252212   1.084   3.232   2.742 -0.1152 -0.5860  0.2350
10241TIP3   OH252213   4.251   6.179  14.052  0.0489  0.0268 -0.0308
10241TIP3    H152214   4.217   6.148  13.968  0.9668  0.3697 -0.5463
10241TIP3    H252215   4.345   6.186  14.038  0.1344  0.7119  0.8299
10242TIP3   OH252216   6.591   5.671   3.451  0.1043 -0.8908  0.4067
10242TIP3    H152217   6.563   5.755   3.414 -0.1343 -1.0881  0.1355
10242TIP3    H252218   6.660   5.695   3.514  0.0694 -0.4971  0.3022
10243TIP3   OH252219   3.221   4.619   3.407  0.3151  0.5899 -0.3795
10243TIP3    H152220   3.206   4.619   3.313  0.2142  0.2329 -0.3661
10243TIP3    H252221   3.197   4.531   3.435  0.8627  0.5227 -0.1042
10244TIP3   OH252222   5.222   6.401   1.974 -0.0990  0.4552  0.2431
10244TIP3    H152223   5.226   6.449   1.891  0.3339  1.0262  0.5811
10244TIP3    H252224   5.129   6.384   1.987 -0.2030  0.6754 -0.1836
10245TIP3   OH252225   0.796   5.986   0.076  0.4334  0.7391 -0.2775
10245TIP3    H152226   0.844   6.001  -0.006  1.4671 -1.3347 -0.1299
10245TIP3    H252227   0.822   5.898   0.103 -2.4940  0.0131  0.5467
10246TIP3   OH252228   0.946   1.056  14.943 -0.1055  0.2890 -0.2395
10246TIP3    H152229   0.940   0.969  14.981 -1.1344  0.0737 -0.8463
10246TIP3    H252230   0.998   1.106  15.006  0.1105 -0.6328  0.3382
10247TIP3   OH252231   0.561   2.080  14.802 -0.1672  0.0647  0.2044
10247TIP3    H152232   0.630   2.032  14.849 -1.2478 -0.9213  0.8374
10247TIP3    H252233   0.574   2.054  14.710  1.5004  1.4396 -0.0099
10248TIP3   OH252234   0.684   5.322   6.705 -0.2172  0.0889  0.1628
10248TIP3    H152235   0.687   5.365   6.619  3.5789  1.3184  0.6967
10248TIP3    H252236   0.708   5.231   6.687  1.1170  0.4659 -0.0906
10249TIP3   OH252237   5.338   1.818  16.944  0.6935 -0.0796 -0.6490
10249TIP3    H152238   5.289   1.827  16.862 -0.7755  2.0777  0.3743
10249TIP3    H252239   5.285   1.760  16.998  0.9645 -0.3857 -0.7067
10250TIP3   OH252240   4.386   0.956   5.176 -0.0666 -0.3503  0.0308
10250TIP3    H152241   4.369   0.922   5.264  0.8960 -0.4329  0.1962
10250TIP3    H252242   4.359   1.047   5.180 -2.1216 -0.9048 -0.2476
10251TIP3   OH252243   1.313   6.810   0.889  0.0286  0.4318 -0.2056
10251TIP3    H152244   1.331   6.850   0.974 -0.6850  1.2338 -0.4119
10251TIP3    H252245   1.361   6.727   0.890 -0.6697  0.0102  1.3162
10252TIP3   OH252246   3.515   1.871   4.890 -0.3922 -0.2504 -0.5641
10252TIP3    H152247   3.579   1.926   4.844  1.4805 -2.6707 -1.0704
10252TIP3    H252248   3.504   1.795   4.833 -0.6173 -1.7636  1.3924
10253TIP3   OH252249   4.727   1.785  14.280 -0.4794 -0.2009  0.1009
10253TIP3    H152250   4.727   1.852  14.211  0.1457  1.9417  2.0707
10253TIP3    H252251   4.653   1.728  14.258  0.6677 -0.6325 -3.2164
10254TIP3   OH252252   2.158   2.854   3.483 -0.1437  0.1968 -0.1558
10254TIP3    H152253   2.207   2.933   3.506 -0.4715  0.2545  0.3500
10254TIP3    H252254   2.212   2.811   3.416  0.7304  0.1199  0.5758
10255TIP3   OH252255   6.756   3.333  12.867  0.5747 -0.4541  0.0833
10255TIP3    H152256   6.666   3.300  12.862  0.5769 -0.7942  1.6509
10255TIP3    H252257   6.749   3.425  12.842 -0.1830 -0.5279 -0.0027
10256TIP3   OH252258   1.553   3.566   4.636 -0.4159 -0.4856 -0.4175
10256TIP3    H152259   1.468   3.523   4.632  0.0644 -1.3797 -1.2092
10256TIP3    H252260   1.541   3.635   4.702 -1.7962 -0.4704 -0.6428
10257TIP3   OH252261   5.811   2.107  12.361 -0.3139 -0.7134  0.7007
10257TIP3    H152262   5.829   2.085  12.453  0.7074 -0.9805  0.4468
10257TIP3    H252263   5.783   2.199  12.364  0.1976 -0.5672  1.2237
10258TIP3   OH252264   5.335   1.582  16.178  0.4455 -0.6564 -0.0938
10258TIP3    H152265   5.381   1.566  16.261  1.3814  0.8640 -0.2675
10258TIP3    H252266   5.243   1.565  16.197  0.6631 -0.4284  1.2431
10259TIP3   OH252267   6.511   6.302  15.723 -0.1427 -0.6182  0.1648
10259TIP3    H152268   6.586   6.273  15.775  0.6779  0.0073 -0.6341
10259TIP3    H252269   6.455   6.350  15.785 -0.3283 -1.8169  0.9557
10260TIP3   OH252270   0.372   4.166   0.723  0.0865  0.4023 -0.0995
10260TIP3    H152271   0.300   4.127   0.674 -0.0153  0.1082  0.2801
10260TIP3    H252272   0.406   4.235   0.665  0.0591 -0.0287 -0.6334
10261TIP3   OH252273   6.801   0.971   4.097  0.3573 -0.0315  0.2132
10261TIP3    H152274   6.895   0.976   4.115  0.6066 -1.1488 -0.6256
10261TIP3    H252275   6.760   1.020   4.167  1.4657 -1.1838  1.7328
10262TIP3   OH252276   2.273   3.182   2.646 -0.1539  0.5681  0.0127
10262TIP3    H152277   2.328   3.260   2.655 -0.4194  0.8992 -1.1588
10262TIP3    H252278   2.211   3.204   2.577  0.7155 -1.1934 -1.4160
10263TIP3   OH252279   5.093   2.748   1.733  0.1188 -0.0658 -0.1455
10263TIP3    H152280   5.173   2.709   1.698  0.6732  0.6842  0.2639
10263TIP3    H252281   5.025   2.723   1.671  0.4528 -1.6629  0.0934
10264TIP3   OH252282   1.273   1.985   3.585  0.1854 -0.0320 -0.0174
10264TIP3    H152283   1.201   1.930   3.616  0.6457 -0.7408 -0.1802
10264TIP3    H252284   1.237   2.074   3.584 -0.6919 -0.3785 -0.1235
10265TIP3   OH252285   6.320   2.466  16.253  0.5057  0.1967  0.0629
10265TIP3    H152286   6.287   2.496  16.338 -1.2647  2.2147 -1.2312
10265TIP3    H252287   6.300   2.538  16.193  1.7540 -1.1368 -2.0713
10266TIP3   OH252288   5.142   5.227  16.020  0.3666 -0.0262 -0.4962
10266TIP3    H152289   5.078   5.297  16.011 -0.8133 -1.2045 -1.6771
10266TIP3    H252290   5.170   5.232  16.111  0.7017  2.2584 -0.6437
10267TIP3   OH252291   0.604   1.918   1.136  0.2605  0.3936 -0.6662
10267TIP3    H152292   0.607   1.857   1.061 -0.8775  0.7086 -0.9874
10267TIP3    H252293   0.538   1.983   1.111 -0.7373  0.0496  0.9493
10268TIP3   OH252294   0.219   5.824   1.241  0.2730 -0.1114 -0.2246
10268TIP3    H152295   0.314   5.836   1.236  0.4388 -0.8838  0.8157
10268TIP3    H252296   0.188   5.899   1.293  0.5772 -0.8691  1.1116
10269TIP3   OH252297   3.715   2.882  16.297  0.1527  0.0469 -0.1753
10269TIP3    H152298   3.725   2.939  16.221  0.9646 -2.2511 -1.8803
10269TIP3    H252299   3.631   2.837  16.282  1.5776 -2.4409 -1.2476
10270TIP3   OH252300   1.021   5.418  11.661  0.6071 -0.2053 -0.0615
10270TIP3    H152301   1.090   5.448  11.603  0.7625  0.8771  0.6636
10270TIP3    H252302   1.057   5.339  11.702  0.6861 -0.6943 -1.0264
10271TIP3   OH252303   3.895   1.036  10.337 -0.2601 -0.2114  0.2001
10271TIP3    H152304   3.944   1.022  10.418 -0.0100  1.1013  0.3051
10271TIP3    H252305   3.805   1.011  10.358 -0.1219 -0.2439  0.7678
10272TIP3   OH252306   2.807   0.148  11.696  0.8507 -0.1000  0.2633
10272TIP3    H152307   2.849   0.151  11.610  3.3228  0.0212  1.3842
10272TIP3    H252308   2.722   0.191  11.683  1.8515  1.4447 -1.7545
10273TIP3   OH252309   1.593   5.548   2.132 -0.1027  0.0911  0.1292
10273TIP3    H152310   1.598   5.461   2.093 -0.4672  0.1861 -0.1270
10273TIP3    H252311   1.677   5.588   2.112  1.2059 -1.1643  2.5511
10274TIP3   OH252312   6.405   0.256  12.497  0.5073  0.4526 -0.1431
10274TIP3    H152313   6.342   0.317  12.459  0.4444 -0.4464 -1.5770
10274TIP3    H252314   6.490   0.295  12.479  0.4230  1.2046  0.9675
10275TIP3   OH252315   4.975   6.353  12.164 -0.0340  0.3550  0.4836
10275TIP3    H152316   4.915   6.384  12.096  0.2362  0.2988  0.2223
10275TIP3    H252317   4.938   6.388  12.245 -1.5220 -1.2642  0.5727
10276TIP3   OH252318   2.034   2.803   0.604  0.1934  0.4153  0.1035
10276TIP3    H152319   2.034   2.753   0.523  1.3991 -0.1706  0.4550
10276TIP3    H252320   2.006   2.740   0.671  0.9322  0.4134  0.4186
10277TIP3   OH252321   6.170   5.600   0.437 -0.7906 -0.0662  0.3989
10277TIP3    H152322   6.221   5.680   0.449  0.0856 -0.3765 -1.0750
10277TIP3    H252323   6.218   5.534   0.489 -0.5462 -0.0108  0.2472
10278TIP3   OH252324   5.663   1.907  11.582  0.1901 -0.0765 -0.0988
10278TIP3    H152325   5.592   1.842  11.580  1.3315 -1.4988  1.6247
10278TIP3    H252326   5.671   1.930  11.675  0.6710  1.5773 -0.5320
10279TIP3   OH252327   3.498   6.065   2.539 -0.1939  0.7145 -1.0160
10279TIP3    H152328   3.524   6.115   2.616  0.0030 -2.1670  0.9543
10279TIP3    H252329   3.580   6.048   2.493  0.3721 -1.1221  0.5378
10280TIP3   OH252330   5.340   3.899  13.522  0.3369  0.5399  0.1336
10280TIP3    H152331   5.413   3.960  13.535  0.3938  0.8196 -1.2925
10280TIP3    H252332   5.275   3.949  13.473 -0.2553 -0.1035  0.2447
10281TIP3   OH252333   5.943   5.899  15.746 -0.0127  0.0886 -0.1531
10281TIP3    H152334   5.985   5.981  15.721 -1.0954  0.0893 -2.1862
10281TIP3    H252335   5.991   5.832  15.698 -1.7402  0.0146 -1.8984
10282TIP3   OH252336   4.933   5.115  16.238 -0.2456  0.1778  0.0036
10282TIP3    H152337   4.895   5.030  16.214  0.4974  0.0786 -0.9026
10282TIP3    H252338   4.870   5.154  16.298 -1.0054 -0.6528 -0.2359
10283TIP3   OH252339   2.960   4.268  16.955 -0.1693  0.0825 -0.1150
10283TIP3    H152340   3.027   4.287  17.020 -0.3254 -1.8505  0.6826
10283TIP3    H252341   2.877   4.292  16.998 -0.4484 -2.8639  1.2365
10284TIP3   OH252342   5.180   3.945  11.640  0.1413 -0.6266 -0.0596
10284TIP3    H152343   5.241   3.885  11.597 -0.5187  0.0302 -1.9953
10284TIP3    H252344   5.142   3.996  11.569 -0.3249  1.1661  1.4062
10285TIP3   OH252345   2.749   1.880  16.570  0.9261 -0.4645 -0.0803
10285TIP3    H152346   2.656   1.900  16.571  1.0780  0.7870 -2.5241
10285TIP3    H252347   2.754   1.786  16.556 -0.0362 -0.3190 -1.6202
10286TIP3   OH252348   1.064   5.030  12.088  0.2658 -0.2566 -0.0934
10286TIP3    H152349   1.086   5.123  12.099  0.2946 -0.2508 -0.1990
10286TIP3    H252350   0.994   5.030  12.022 -0.4138 -0.2343  0.6068
10287TIP3   OH252351   0.120   0.249   2.711  0.3437 -0.5328 -0.3957
10287TIP3    H152352   0.195   0.195   2.734  0.9945  0.8845  0.9914
10287TIP3    H252353   0.074   0.264   2.793  2.3285  4.0644  0.1873
10288TIP3   OH252354   6.435   5.959   3.911  0.5659 -0.0599  0.0742
10288TIP3    H152355   6.354   5.913   3.890  0.9959  0.2925 -2.8079
10288TIP3    H252356   6.412   6.052   3.909  1.3646  0.1801 -3.0980
10289TIP3   OH252357   1.078   4.300   2.674  0.0868 -0.0950 -0.6638
10289TIP3    H152358   1.007   4.237   2.670  1.4632 -2.2233  3.1868
10289TIP3    H252359   1.036   4.382   2.704 -1.0770 -0.5609 -0.9764
10290TIP3   OH252360   2.374   5.805  11.181  0.3298  0.3123 -0.0786
10290TIP3    H152361   2.337   5.762  11.104 -1.5886  1.0807  0.3372
10290TIP3    H252362   2.464   5.772  11.187  0.3029 -0.2946 -2.2178
10291TIP3   OH252363   5.983   4.782  16.587  0.3714 -0.1401  0.3002
10291TIP3    H152364   5.960   4.746  16.501  0.8153 -1.6764  0.7927
10291TIP3    H252365   6.077   4.799  16.581 -0.1321  2.9563 -0.5887
10292TIP3   OH252366   1.518   0.023   0.610  0.0787 -0.2383 -0.2392
10292TIP3    H152367   1.468  -0.037   0.554  0.5793  0.6153 -1.6755
10292TIP3    H252368   1.468   0.105   0.607  0.3988 -0.0303  0.1388
10293TIP3   OH252369   2.007   1.484  11.313 -0.1019 -0.2168  0.3305
10293TIP3    H152370   2.005   1.539  11.392 -0.6168  0.9364 -0.4514
10293TIP3    H252371   2.100   1.471  11.296  0.0274  0.1208  0.7464
10294TIP3   OH252372   0.745   2.613  15.684  0.0081 -0.2946 -0.3560
10294TIP3    H152373   0.792   2.572  15.756 -0.4080 -1.6641 -0.8320
10294TIP3    H252374   0.765   2.706  15.691  0.7707 -0.5450  0.9211
10295TIP3   OH252375   4.920   5.472   2.877  0.0853  0.7706  0.1689
10295TIP3    H152376   5.013   5.485   2.894  0.0052  1.7270 -0.0552
10295TIP3    H252377   4.908   5.498   2.786 -0.2337 -0.2802 -0.1001
10296TIP3   OH252378   0.451   1.487   5.174  0.3201  0.2781 -0.1681
10296TIP3    H152379   0.387   1.466   5.242  0.3495  2.6890  0.7115
10296TIP3    H252380   0.398   1.502   5.096  0.1355 -0.9340 -0.2893
10297TIP3   OH252381   0.440   5.270  14.918  0.1813 -0.4249  0.4416
10297TIP3    H152382   0.511   5.217  14.953  1.5440  1.7246  1.1361
10297TIP3    H252383   0.483   5.330  14.856 -1.4073 -0.6247 -0.9416
10298TIP3   OH252384   4.627   2.153   2.811  0.3843  0.4173 -0.2901
10298TIP3    H152385   4.690   2.124   2.745  1.0359  0.4915  0.2897
10298TIP3    H252386   4.602   2.073   2.857 -1.7715  0.0001 -2.0311
10299TIP3   OH252387   5.834   3.278   4.384  0.2348 -0.3779 -0.3184
10299TIP3    H152388   5.906   3.340   4.399 -0.5406  0.4808 -0.0078
10299TIP3    H252389   5.763   3.333   4.352 -0.8635 -0.9247  1.1027
10300TIP3   OH252390   2.191   5.533  11.985 -0.6069  0.2669  0.5333
10300TIP3    H152391   2.168   5.624  11.967 -0.2861  0.5286  1.3976
10300TIP3    H252392   2.134   5.508  12.057 -0.5321 -0.1430  0.4484
10301TIP3   OH252393   0.719   5.952  14.578  0.2361 -0.3481 -0.2773
10301TIP3    H152394   0.802   5.967  14.622  0.5967 -0.1884 -0.9971
10301TIP3    H252395   0.743   5.934  14.487 -0.4694 -1.0163 -0.3383
10302TIP3   OH252396   2.134   1.850  16.704  0.1950  0.3110 -0.1310
10302TIP3    H152397   2.176   1.912  16.644  1.1572  0.3735  0.5689
10302TIP3    H252398   2.208   1.808  16.750 -0.4178 -1.4679 -0.6814
10303TIP3   OH252399   1.713   4.656  13.152  0.6784 -0.0612  0.0430
10303TIP3    H152400   1.796   4.690  13.186 -0.0770  0.3498  1.5775
10303TIP3    H252401   1.735   4.570  13.116  2.4417  1.4495 -2.9068
10304TIP3   OH252402   2.826   3.284  11.868 -0.7854  0.4848 -0.9246
10304TIP3    H152403   2.877   3.290  11.948 -3.6644 -0.1410  1.1510
10304TIP3    H252404   2.771   3.207  11.881 -1.1753  0.1952 -3.6727
10305TIP3   OH252405   5.848   4.613   1.173  0.0329  0.2675 -0.5107
10305TIP3    H152406   5.844   4.706   1.195 -1.0322 -0.2699  1.8462
10305TIP3    H252407   5.934   4.602   1.132  1.6410  1.7536  2.1295
10306TIP3   OH252408   3.459   1.575  14.070 -0.7498 -0.7248 -0.1559
10306TIP3    H152409   3.385   1.516  14.055 -1.2385 -0.2562  0.4237
10306TIP3    H252410   3.467   1.624  13.988 -3.0517  1.4074  0.7664
10307TIP3   OH252411   1.892   2.220   5.612 -0.0495  0.1794  0.1171
10307TIP3    H152412   1.833   2.294   5.624  1.1726  1.4992 -1.5332
10307TIP3    H252413   1.976   2.251   5.647  0.1903 -0.8804  0.5132
10308TIP3   OH252414   5.548   2.992   2.281  0.3803  0.1560 -0.5067
10308TIP3    H152415   5.615   3.033   2.226  0.5805  0.8007  0.2108
10308TIP3    H252416   5.515   3.062   2.336 -3.3719  0.7417 -3.1408
10309TIP3   OH252417   5.681   1.214  11.342 -0.6573  0.4003 -0.3379
10309TIP3    H152418   5.628   1.272  11.287  0.3789  1.1331 -0.5879
10309TIP3    H252419   5.769   1.221  11.307 -0.1596  0.1133  0.8037
10310TIP3   OH252420   3.042   0.026   4.035  0.0987  0.2807  0.3727
10310TIP3    H152421   3.120  -0.029   4.037  0.7070  1.1322  0.6363
10310TIP3    H252422   2.969  -0.035   4.021  0.8930 -0.4310 -0.7701
10311TIP3   OH252423   3.484   5.779   4.817 -0.4313  0.6305  0.4386
10311TIP3    H152424   3.438   5.807   4.738  1.1239  0.6776 -0.5006
10311TIP3    H252425   3.479   5.855   4.876 -1.5123  0.6355  0.3545
10312TIP3   OH252426   1.474   5.262  13.423 -0.6858 -0.5520  0.2125
10312TIP3    H152427   1.491   5.322  13.351 -0.8758 -1.3316 -0.4972
10312TIP3    H252428   1.556   5.258  13.471 -0.2253 -0.8371 -0.5800
10313TIP3   OH252429   0.567   5.602   5.153 -0.0738  0.3507  0.2246
10313TIP3    H152430   0.507   5.652   5.098 -1.2220 -0.0646  1.0571
10313TIP3    H252431   0.633   5.568   5.093 -2.0002 -1.1981 -1.1421
10314TIP3   OH252432   6.834   2.939   5.670 -0.8910 -0.0533  0.2403
10314TIP3    H152433   6.858   3.008   5.608 -1.5515  0.7598  0.8732
10314TIP3    H252434   6.785   2.984   5.739 -0.3570 -0.9726  1.2534
10315TIP3   OH252435   0.193   0.436   2.074 -0.0635 -0.1943 -0.1058
10315TIP3    H152436   0.177   0.379   2.150  0.9130  1.3196  1.3012
10315TIP3    H252437   0.124   0.502   2.079  0.2553  0.1558 -0.2702
10316TIP3   OH252438   3.286   6.794   4.754 -0.1796  0.3901  0.1008
10316TIP3    H152439   3.269   6.875   4.706 -1.2011 -0.2915 -0.7587
10316TIP3    H252440   3.246   6.726   4.700  1.7233 -0.8615  0.1762
10317TIP3   OH252441   6.708   2.688  16.894 -0.0632 -0.1988 -0.2866
10317TIP3    H152442   6.787   2.704  16.842 -0.6223 -0.3137 -1.2090
10317TIP3    H252443   6.719   2.600  16.929  0.5736  0.0922  0.2594
10318TIP3   OH252444   0.160   4.487  16.996  0.2549 -0.1367  0.0604
10318TIP3    H152445   0.217   4.563  16.985  1.1490 -0.7448  0.4205
10318TIP3    H252446   0.101   4.491  16.921  0.0738  1.0935  0.2472
10319TIP3   OH252447   3.557   2.235   5.014  0.2902 -0.2276  0.1677
10319TIP3    H152448   3.497   2.308   5.029  2.0256  1.0566  1.2765
10319TIP3    H252449   3.520   2.162   5.063 -0.1991  0.6230  1.0912
10320TIP3   OH252450   1.003   4.781  11.778 -0.3491 -0.3824  0.1510
10320TIP3    H152451   1.057   4.702  11.781 -1.2471 -0.9855  0.9999
10320TIP3    H252452   0.971   4.792  11.868 -0.8783  0.5028 -0.1285
10321TIP3   OH252453   5.717   6.139  16.737 -0.1076 -0.0119  0.6815
10321TIP3    H152454   5.697   6.213  16.680 -0.3868  0.1702  1.0215
10321TIP3    H252455   5.697   6.169  16.825 -0.5290 -0.5944  0.7940
10322TIP3   OH252456   3.091   1.065  13.558 -0.0793 -0.4075 -0.3064
10322TIP3    H152457   3.090   0.980  13.603  1.0022 -0.4593 -0.3468
10322TIP3    H252458   2.999   1.087  13.546 -0.3935 -1.8975 -0.8982
10323TIP3   OH252459   6.689   1.917  12.864 -0.0720  0.1941  0.2579
10323TIP3    H152460   6.724   2.006  12.855  0.3556 -0.1536 -2.4367
10323TIP3    H252461   6.767   1.861  12.862 -0.4386 -0.3186  0.2595
10324TIP3   OH252462   0.441   0.929  12.364  0.2862 -0.1219 -0.1354
10324TIP3    H152463   0.392   0.856  12.403 -0.4884  0.0613 -0.7417
10324TIP3    H252464   0.500   0.888  12.301 -1.3624 -0.1460 -1.7526
10325TIP3   OH252465   3.844   0.197   1.943 -0.1260 -0.2236 -0.2069
10325TIP3    H152466   3.873   0.114   1.981 -1.1353  0.0175  1.1915
10325TIP3    H252467   3.794   0.172   1.865 -1.5213 -1.0725  0.9041
10326TIP3   OH252468   0.968   1.075  16.687 -0.7935 -0.5943 -0.3400
10326TIP3    H152469   1.021   1.135  16.636 -0.6895  0.8723  1.4165
10326TIP3    H252470   1.029   1.006  16.714  0.0398  0.5650  0.8466
10327TIP3   OH252471   5.817   1.283  14.497 -0.0472 -0.7203  0.5970
10327TIP3    H152472   5.823   1.213  14.562 -1.1352 -1.2691  0.1280
10327TIP3    H252473   5.901   1.281  14.452  0.3698 -0.9423  1.3613
10328TIP3   OH252474   6.771   3.938   0.935 -0.5368 -0.5493  0.7243
10328TIP3    H152475   6.680   3.965   0.922 -0.0938 -0.0528 -1.7026
10328TIP3    H252476   6.817   4.019   0.957 -0.0418 -0.0325 -1.9341
10329TIP3   OH252477   5.987   5.484  11.905  0.4731  0.3891 -0.5996
10329TIP3    H152478   6.036   5.406  11.931 -0.2256 -0.2929 -1.2577
10329TIP3    H252479   5.959   5.466  11.815 -0.9067  0.7836 -0.2835
10330TIP3   OH252480   2.576   1.515   1.339  0.2613 -0.0901 -0.0271
10330TIP3    H152481   2.543   1.436   1.297  0.3440 -0.1110 -0.0532
10330TIP3    H252482   2.499   1.556   1.378  0.2149 -0.1699 -0.0355
10331TIP3   OH252483   6.710   0.002  12.647 -0.0635 -0.1303 -0.5263
10331TIP3    H152484   6.698  -0.028  12.556  1.0911  1.8086 -1.3686
10331TIP3    H252485   6.627  -0.019  12.689 -0.3908 -1.7017 -1.8282
10332TIP3   OH252486   6.727   3.506   4.566 -0.0521  0.0229 -0.2908
10332TIP3    H152487   6.636   3.523   4.592 -0.1224  0.9779 -1.0893
10332TIP3    H252488   6.760   3.446   4.632 -0.4810  1.7028  1.5395
10333TIP3   OH252489   3.761   3.943  15.930 -0.5430  0.4587 -0.1806
10333TIP3    H152490   3.709   3.927  15.852  0.0389 -1.1026 -0.2754
10333TIP3    H252491   3.702   3.924  16.003 -0.4259 -0.3328 -0.2803
10334TIP3   OH252492   4.872   4.041  14.939 -0.3719 -0.1079 -0.5896
10334TIP3    H152493   4.872   4.013  14.847  0.1146 -2.6684  0.1163
10334TIP3    H252494   4.945   3.993  14.978  0.5125  2.2071  0.8353
10335TIP3   OH252495   4.941   1.835   4.901  0.4560  0.0318  0.1213
10335TIP3    H152496   4.864   1.840   4.844 -0.6359  2.0950  1.6652
10335TIP3    H252497   4.920   1.767   4.964  1.0661 -1.2593 -1.0243
10336TIP3   OH252498   5.393   1.024   2.454 -0.2733 -0.0279  0.2388
10336TIP3    H152499   5.412   0.937   2.420  2.6628  1.0476 -1.2309
10336TIP3    H252500   5.331   1.062   2.391 -2.5122 -1.3530  1.5216
10337TIP3   OH252501   3.751   3.540   4.207 -0.0899  0.0395  0.2136
10337TIP3    H152502   3.685   3.479   4.240 -0.4398  0.4419  0.2653
10337TIP3    H252503   3.835   3.504   4.238 -0.4738  0.9525  2.4313
10338TIP3   OH252504   1.054   2.461  15.385 -0.4019  0.6944 -0.6213
10338TIP3    H152505   1.010   2.410  15.453  0.1463 -0.8454 -1.3506
10338TIP3    H252506   1.135   2.491  15.425 -0.6058  0.7627 -0.2606
10339TIP3   OH252507   2.919   0.361  14.344 -0.1169  0.4321  0.1328
10339TIP3    H152508   2.883   0.302  14.278 -0.5084 -0.2910  0.9666
10339TIP3    H252509   2.941   0.304  14.417  0.1893  1.2315  0.6808
10340TIP3   OH252510   0.477   5.964   4.462 -0.0671 -0.7886 -0.6168
10340TIP3    H152511   0.570   5.983   4.468 -0.2285 -0.3872  1.0246
10340TIP3    H252512   0.438   6.044   4.426  0.0346 -0.3217  0.2784
10341TIP3   OH252513   6.808   1.218  16.698 -0.3657 -0.3506  0.1251
10341TIP3    H152514   6.781   1.236  16.788  0.0968 -1.7490  0.5646
10341TIP3    H252515   6.744   1.154  16.666 -0.1433 -0.3569 -0.3221
10342TIP3   OH252516   2.844   5.906   2.897  0.1334 -0.4965 -0.2447
10342TIP3    H152517   2.787   5.973   2.934  3.3194  1.8325  0.8320
10342TIP3    H252518   2.872   5.943   2.813 -0.1788 -1.7917 -0.9455
10343TIP3   OH252519   3.825   0.990   2.631  0.0726  0.3326  0.5553
10343TIP3    H152520   3.791   1.055   2.692 -2.4401 -0.2718 -0.1088
10343TIP3    H252521   3.826   0.908   2.680 -2.0110 -0.1678 -0.1412
10344TIP3   OH252522   6.396   0.106   2.688  0.1662  0.7431  0.2693
10344TIP3    H152523   6.353   0.192   2.689 -0.5494  0.4066 -0.5178
10344TIP3    H252524   6.384   0.075   2.598  1.2529  0.2282  0.2988
10345TIP3   OH252525   2.979   4.961  11.391  0.1475 -0.2850  0.5522
10345TIP3    H152526   2.958   4.997  11.477  0.0584 -0.1696  0.4841
10345TIP3    H252527   3.074   4.955  11.389  0.3851  2.4139 -0.3951
10346TIP3   OH252528   2.096   3.679  13.278 -0.3703 -0.2057  0.1006
10346TIP3    H152529   2.183   3.714  13.298 -1.2995  2.6195 -0.3815
10346TIP3    H252530   2.035   3.746  13.308 -2.2883 -1.0297 -1.7004
10347TIP3   OH252531   4.738   1.445   0.312  0.3449  0.8644 -0.2680
10347TIP3    H152532   4.746   1.448   0.407  2.2046  0.4729 -0.3722
10347TIP3    H252533   4.667   1.506   0.292  0.2256  1.2949  1.3351
10348TIP3   OH252534   0.584   0.162  13.877  0.2051 -0.0935  0.3153
10348TIP3    H152535   0.556   0.081  13.835  2.2456 -0.6586 -0.0904
10348TIP3    H252536   0.634   0.133  13.953 -0.1820  0.8298  0.9323
10349TIP3   OH252537   4.747   0.423   5.163 -0.2777  0.2554 -0.0630
10349TIP3    H152538   4.780   0.489   5.223 -3.4933  0.1660  2.0614
10349TIP3    H252539   4.751   0.464   5.076 -2.5015  3.5269  1.2037
10350TIP3   OH252540   4.213   2.524  14.780 -0.5016 -0.0742 -0.2032
10350TIP3    H152541   4.135   2.529  14.725 -2.7047  0.5013  2.7161
10350TIP3    H252542   4.255   2.609  14.770 -1.2785  0.2933 -0.4053
10351TIP3   OH252543   2.431   0.070  15.329  0.1767  0.1957  0.5443
10351TIP3    H152544   2.496   0.070  15.259  0.1633  0.5842  0.5298
10351TIP3    H252545   2.411   0.162  15.343  1.0327  0.1981  1.8741
10352TIP3   OH252546   6.210   5.557  13.937 -0.7375 -0.2267 -0.1886
10352TIP3    H152547   6.215   5.606  14.019 -0.4695  1.1497 -0.9940
10352TIP3    H252548   6.147   5.487  13.955 -1.3131  0.5449  0.9356
10353TIP3   OH252549   3.684   5.976   1.360 -0.0103  0.0457  0.4350
10353TIP3    H152550   3.614   6.010   1.305  0.5722 -0.5750 -0.7184
10353TIP3    H252551   3.705   5.890   1.323  1.5388  0.3294  0.5703
10354TIP3   OH252552   5.159   5.844   2.584  0.5277  0.5685  0.5842
10354TIP3    H152553   5.154   5.792   2.664  3.3478 -0.1931  0.3556
10354TIP3    H252554   5.093   5.805   2.527 -0.1528 -0.1568  1.8259
10355TIP3   OH252555   0.913   3.256  14.637 -0.0651  0.1215  0.5725
10355TIP3    H152556   0.952   3.290  14.557  0.3130  1.5203  1.3144
10355TIP3    H252557   0.844   3.196  14.608  1.8977 -1.5920 -0.7729
10356TIP3   OH252558   5.845   6.043   2.067  0.3479 -0.1521  0.0582
10356TIP3    H152559   5.899   6.122   2.063 -0.9251  0.6994 -1.7046
10356TIP3    H252560   5.777   6.063   2.132 -0.2863  0.4572 -0.7670
10357TIP3   OH252561   3.560   5.557   3.470  0.1087 -0.3753 -0.7057
10357TIP3    H152562   3.640   5.505   3.481 -0.7257 -1.5053  0.2054
10357TIP3    H252563   3.549   5.602   3.554  0.2837  0.5237 -1.1537
10358TIP3   OH252564   2.106   1.892   4.971 -0.1320 -0.4564 -0.5330
10358TIP3    H152565   2.197   1.914   4.992 -0.0594  0.0669 -1.3486
10358TIP3    H252566   2.062   1.977   4.962 -0.8128 -0.7027  0.2736
10359TIP3   OH252567   6.795   2.649   0.827 -0.5256 -0.5724 -0.0087
10359TIP3    H152568   6.753   2.608   0.903 -1.1212  0.8828  0.4843
10359TIP3    H252569   6.873   2.692   0.863 -0.4977 -0.3723 -0.3070
10360TIP3   OH252570   3.121   6.700   0.404  0.2151 -0.2252 -0.1222
10360TIP3    H152571   3.194   6.745   0.445 -0.7945 -0.6381  2.2764
10360TIP3    H252572   3.079   6.768   0.350  0.2284  1.0502  1.3970
10361TIP3   OH252573   4.475   2.098  15.740 -0.1016 -0.3469 -0.1136
10361TIP3    H152574   4.423   2.163  15.788  0.2802  0.9072 -1.3489
10361TIP3    H252575   4.438   2.099  15.651  0.5353 -1.1249 -0.3979
10362TIP3   OH252576   4.098   4.569   5.238 -0.5253 -0.5912 -0.2815
10362TIP3    H152577   4.048   4.515   5.299 -2.0391  2.4758  1.3923
10362TIP3    H252578   4.174   4.599   5.289 -0.0692 -0.5633 -0.9586
10363TIP3   OH252579   3.221   1.653  11.653  1.1986 -0.5272 -0.5883
10363TIP3    H152580   3.232   1.598  11.731  0.5284  0.6033  0.3286
10363TIP3    H252581   3.296   1.712  11.654  0.1205  0.8833  0.3996
10364TIP3   OH252582   0.014   6.438  13.732  0.0464  0.2203  0.7803
10364TIP3    H152583  -0.042   6.367  13.699 -0.0516  0.4004  0.5620
10364TIP3    H252584   0.099   6.424  13.690  0.2163 -0.1469  1.2343
10365TIP3   OH252585   3.839   5.445   5.520  0.3281 -0.5492  0.2986
10365TIP3    H152586   3.751   5.424   5.489  0.7245  1.1965 -2.3545
10365TIP3    H252587   3.889   5.461   5.441  3.1440 -1.6541  1.7238
10366TIP3   OH252588   1.818   3.430  17.167 -0.3400 -0.2817  0.1168
10366TIP3    H152589   1.876   3.355  17.158 -1.2943 -0.9857 -0.3518
10366TIP3    H252590   1.795   3.432  17.260 -0.2508 -0.5274  0.1446
10367TIP3   OH252591   1.567   0.778  11.162  0.4122 -0.2918  0.0235
10367TIP3    H152592   1.487   0.741  11.198  0.9903 -0.3014  1.3227
10367TIP3    H252593   1.637   0.724  11.197  0.9773 -0.8433 -1.8076
10368TIP3   OH252594   5.143   4.953  13.299 -0.0797  0.0306  0.2456
10368TIP3    H152595   5.157   4.911  13.384  0.4669 -1.8076 -0.7011
10368TIP3    H252596   5.217   5.013  13.290  1.2869 -1.5939  0.0439
10369TIP3   OH252597   5.318   1.664   5.558  0.2130  0.2049 -0.4526
10369TIP3    H152598   5.263   1.734   5.593 -0.5092 -0.4768 -0.1753
10369TIP3    H252599   5.339   1.609   5.634 -1.8025 -1.5800 -1.0548
10370TIP3   OH252600   1.650   2.952  15.208 -0.0520  0.0775 -0.0469
10370TIP3    H152601   1.581   2.973  15.146  0.5654 -0.9613 -1.1187
10370TIP3    H252602   1.615   2.881  15.261  0.3468 -0.7764 -0.9054
10371TIP3   OH252603   1.610   0.322   2.912  0.3456 -0.1145 -0.2663
10371TIP3    H152604   1.551   0.332   2.837 -1.1435 -0.4471  0.8099
10371TIP3    H252605   1.555   0.341   2.988  2.1930  1.8432  0.7037
10372TIP3   OH252606   5.711   0.389   1.190  0.3439 -0.3956  0.3344
10372TIP3    H152607   5.635   0.408   1.136  0.3291 -1.0009  0.1309
10372TIP3    H252608   5.770   0.340   1.132  0.8795  0.0428  0.4932
10373TIP3   OH252609   2.771   0.068  15.246 -0.8948 -0.4083  0.1004
10373TIP3    H152610   2.780  -0.014  15.198  0.7784 -0.1789 -0.0694
10373TIP3    H252611   2.711   0.121  15.193 -0.2971 -0.7372 -0.9334
10374TIP3   OH252612   3.865   3.767  13.234 -0.3369  0.6317 -0.3799
10374TIP3    H152613   3.858   3.691  13.291 -0.0406  0.3724 -0.6833
10374TIP3    H252614   3.830   3.737  13.150  1.0366  0.4009 -0.8935
10375TIP3   OH252615   1.132   3.192  12.165 -0.2646 -0.6166 -0.8685
10375TIP3    H152616   1.147   3.108  12.122  3.1332 -0.3766 -0.4177
10375TIP3    H252617   1.119   3.170  12.257  1.4824 -0.6518 -0.6070
10376TIP3   OH252618   2.590   4.115   4.582 -0.1946  0.7097  0.0815
10376TIP3    H152619   2.644   4.037   4.593 -0.3065  0.6302  0.0742
10376TIP3    H252620   2.512   4.097   4.634 -1.3721 -0.2704 -1.9168
10377TIP3   OH252621   6.809   1.320  16.191 -0.0332 -0.6429  0.2857
10377TIP3    H152622   6.793   1.407  16.229  0.4020 -0.2044 -0.5039
10377TIP3    H252623   6.898   1.326  16.155 -0.7615 -0.6979 -1.6569
10378TIP3   OH252624   4.141   1.810   1.066  0.0865  0.1028 -0.4608
10378TIP3    H152625   4.140   1.718   1.040 -0.7522  0.3308 -1.2977
10378TIP3    H252626   4.196   1.812   1.145  0.1655 -1.0963 -0.4621
10379TIP3   OH252627   2.791   3.515  13.581  0.5369  0.0312  0.0682
10379TIP3    H152628   2.853   3.565  13.634  0.0428  0.4491  0.2611
10379TIP3    H252629   2.806   3.423  13.605  0.4220  0.2068  0.8251
10380TIP3   OH252630   5.090   0.286  15.897 -0.0477  0.6538 -0.2949
10380TIP3    H152631   5.060   0.360  15.844 -1.6589 -0.1038 -0.4647
10380TIP3    H252632   5.125   0.224  15.834 -2.0265 -0.2769 -0.5246
10381TIP3   OH252633   5.570   0.195  11.928  0.5331  0.4257 -1.0744
10381TIP3    H152634   5.631   0.122  11.929 -0.3641 -0.3346 -0.5399
10381TIP3    H252635   5.543   0.205  12.019 -0.3635  0.5583 -1.3489
10382TIP3   OH252636   3.727   3.505  14.968  0.1074 -0.1854  0.2686
10382TIP3    H152637   3.637   3.474  14.961  0.5036 -1.2630 -0.4346
10382TIP3    H252638   3.720   3.597  14.993 -1.1751 -0.3139  0.4289
10383TIP3   OH252639   3.085   3.953   3.593 -0.4688  0.1182  0.4998
10383TIP3    H152640   3.178   3.935   3.579 -0.9946 -3.6893  1.0829
10383TIP3    H252641   3.048   3.958   3.505 -0.1197 -0.9778  0.2808
10384TIP3   OH252642   4.755   0.926   1.968  0.0941  0.5987 -0.2500
10384TIP3    H152643   4.778   0.853   2.025  0.4217  0.5108 -0.4976
10384TIP3    H252644   4.837   0.975   1.957 -0.0835  0.9075 -0.2258
10385TIP3   OH252645   2.441   4.102  17.209 -0.2233 -0.0852  0.3463
10385TIP3    H152646   2.448   4.015  17.170 -1.7560 -0.2722  0.4024
10385TIP3    H252647   2.531   4.129  17.228  0.5841 -0.1550 -2.8997
10386TIP3   OH252648   0.837   3.258  12.135  0.1741  0.5209  0.3272
10386TIP3    H152649   0.915   3.208  12.112  0.0193  0.2439  0.3998
10386TIP3    H252650   0.779   3.247  12.060  0.1761  0.6678  0.3041
10387TIP3   OH252651   4.649   3.433   5.787 -0.1766  0.2827  0.5056
10387TIP3    H152652   4.627   3.341   5.797 -1.6737  0.5030 -0.4481
10387TIP3    H252653   4.724   3.434   5.727 -0.6502 -0.2918 -0.1110
10388TIP3   OH252654   6.726   0.982   0.026  0.2043  0.1611 -0.3616
10388TIP3    H152655   6.752   0.971   0.117 -1.0143  0.0681 -0.0028
10388TIP3    H252656   6.793   0.936  -0.024  0.9372  0.2989  0.4795
10389TIP3   OH252657   1.004   2.672   1.506 -0.3542  0.2453  0.9689
10389TIP3    H152658   0.930   2.612   1.522 -0.2250  0.3104  1.8641
10389TIP3    H252659   0.978   2.721   1.429 -0.4767 -0.9574  0.2180
10390TIP3   OH252660   2.394   6.587   1.831  0.4752 -0.1970 -0.4218
10390TIP3    H152661   2.488   6.607   1.838  0.3889 -0.0695  0.6752
10390TIP3    H252662   2.388   6.494   1.852  0.2789  0.0059  0.5110
10391TIP3   OH252663   3.717   3.079  12.697 -0.3852  0.2011  0.1260
10391TIP3    H152664   3.703   3.011  12.763  0.4118 -0.4152 -0.3190
10391TIP3    H252665   3.629   3.098  12.664 -0.8738  0.9419  1.7529
10392TIP3   OH252666   5.619   5.151  15.271  0.8314 -0.1767 -0.5310
10392TIP3    H152667   5.543   5.092  15.274 -0.4334  1.3893 -0.3580
10392TIP3    H252668   5.593   5.219  15.210  2.3311  0.1323 -0.8429
10393TIP3   OH252669   4.355   3.415   4.422 -0.1167 -0.2823  0.3054
10393TIP3    H152670   4.333   3.368   4.502 -2.4577  1.5586  0.8450
10393TIP3    H252671   4.392   3.348   4.364  1.2133 -1.7578  2.7037
10394TIP3   OH252672   0.425   4.435   1.786 -0.6587 -0.0707 -0.3260
10394TIP3    H152673   0.507   4.483   1.800  0.8294 -2.7314  1.0646
10394TIP3    H252674   0.377   4.445   1.868 -1.7288  1.3982 -1.1020
10395TIP3   OH252675   5.128   4.786  11.255 -0.6767 -0.1996 -0.1023
10395TIP3    H152676   5.197   4.736  11.298 -1.0084  1.7617  3.0410
10395TIP3    H252677   5.164   4.809  11.170  1.0085 -2.3246 -0.0529
10396TIP3   OH252678   3.594   4.303  16.654  0.6490 -0.3739 -0.6112
10396TIP3    H152679   3.642   4.378  16.619 -0.1572  0.5689  0.2229
10396TIP3    H252680   3.587   4.321  16.748 -0.3206 -1.0665 -0.5388
10397TIP3   OH252681   3.127   1.419   4.913 -0.2928  0.7968  0.0227
10397TIP3    H152682   3.118   1.386   4.824 -2.2014  1.5844 -0.1345
10397TIP3    H252683   3.161   1.508   4.903 -1.5730  1.3111 -0.0516
10398TIP3   OH252684   0.520   2.664   2.993 -0.0924 -0.0823  0.0425
10398TIP3    H152685   0.580   2.592   2.976 -0.4787 -0.1947 -0.8925
10398TIP3    H252686   0.439   2.638   2.949 -0.8726  0.0124  1.3623
10399TIP3   OH252687   6.241   5.961   2.894  0.5243  0.1154  0.3844
10399TIP3    H152688   6.160   5.911   2.898  0.5364  0.1129  0.6622
10399TIP3    H252689   6.219   6.046   2.933  0.7975 -0.0867  0.9879
10400TIP3   OH252690   0.571   4.584   2.378 -0.0932  0.4833 -0.4795
10400TIP3    H152691   0.550   4.526   2.451 -0.3441 -1.0765 -1.7287
10400TIP3    H252692   0.485   4.612   2.345 -0.3317 -2.6014 -3.0164
10401TIP3   OH252693   2.543   5.098  15.035  0.4849  0.1167 -0.3315
10401TIP3    H152694   2.476   5.041  15.074 -0.0652  1.3335  0.5739
10401TIP3    H252695   2.493   5.161  14.983  1.1845 -1.3613 -3.0069
10402TIP3   OH252696   6.279   6.036  11.813 -0.5709 -0.3572 -0.3531
10402TIP3    H152697   6.346   5.984  11.857 -1.2507 -1.0718 -0.1537
10402TIP3    H252698   6.327   6.111  11.776  0.1730 -0.3190  0.6642
10403TIP3   OH252699   5.673   1.698   0.673  0.0856 -0.4697  0.2331
10403TIP3    H152700   5.658   1.606   0.652 -1.5761 -0.2366  0.2192
10403TIP3    H252701   5.749   1.698   0.731  1.8312 -1.5702 -1.9316
10404TIP3   OH252702   1.344   6.402  14.715 -0.3823  0.3898 -0.0940
10404TIP3    H152703   1.300   6.325  14.750 -1.0875  0.5461 -0.6184
10404TIP3    H252704   1.275   6.467  14.705 -0.1271  0.4982 -1.3313
10405TIP3   OH252705   6.239   1.687  14.687  0.2524  0.0425  0.2293
10405TIP3    H152706   6.299   1.755  14.720 -0.4595  0.2656  1.1065
10405TIP3    H252707   6.224   1.711  14.596  1.1721  0.2217  0.1142
10406TIP3   OH252708   4.166   2.991   4.295 -0.2858  0.1885 -0.0495
10406TIP3    H152709   4.139   3.078   4.266  0.9654  0.6010 -0.0537
10406TIP3    H252710   4.085   2.945   4.315 -1.0743  0.6695 -1.9871
10407TIP3   OH252711   2.769   0.762   2.698  0.0916  0.3905 -0.6235
10407TIP3    H152712   2.858   0.779   2.667  0.6579 -0.3306  0.5229
10407TIP3    H252713   2.713   0.802   2.633  1.2755  2.1215 -0.6454
10408TIP3   OH252714   0.281   6.675  11.961 -0.0574  0.5268 -0.1481
10408TIP3    H152715   0.201   6.641  12.000 -0.1719  0.2390 -0.6198
10408TIP3    H252716   0.349   6.659  12.025 -0.0428 -0.9069 -0.4939
10409TIP3   OH252717   0.758   0.916  13.641 -0.1550  0.1701  0.6549
10409TIP3    H152718   0.850   0.906  13.667  1.1111 -0.5198 -3.4586
10409TIP3    H252719   0.727   0.827  13.628 -0.2840  0.4695 -1.2606
10410TIP3   OH252720   4.496   4.831  13.949 -0.3662 -0.3096 -0.0324
10410TIP3    H152721   4.479   4.925  13.958 -0.4900 -0.3316 -0.0329
10410TIP3    H252722   4.577   4.816  13.998  0.8265  0.1738 -1.7495
10411TIP3   OH252723   1.533   3.112  10.677  0.3822  0.2448 -0.8256
10411TIP3    H152724   1.604   3.163  10.716  2.2982 -1.3949 -1.9883
10411TIP3    H252725   1.554   3.022  10.698 -2.5054 -0.2338  0.5030
10412TIP3   OH252726   3.936   1.455  13.654 -0.2400 -0.2217  0.1203
10412TIP3    H152727   3.974   1.543  13.655 -1.3951  0.2915  0.7088
10412TIP3    H252728   4.006   1.398  13.685  1.1439  0.2037 -1.9975
10413TIP3   OH252729   1.449   0.049  16.955  0.1249 -0.1357  0.1443
10413TIP3    H152730   1.364   0.048  16.910  0.1250 -0.0685  0.1430
10413TIP3    H252731   1.511   0.079  16.889 -0.0006  0.7619  0.4190
10414TIP3   OH252732   5.162   4.764  15.682 -0.6240  0.8261  0.0464
10414TIP3    H152733   5.132   4.838  15.735  0.5651  1.1328  0.3088
10414TIP3    H252734   5.123   4.778  15.596 -2.2826  0.5171  0.7066
10415TIP3   OH252735   6.374   5.291  10.310  0.1063  0.2584  0.3252
10415TIP3    H152736   6.306   5.278  10.377 -1.0433  3.0521 -0.1450
10415TIP3    H252737   6.444   5.337  10.356  0.6025 -0.3786  0.2230
10416TIP3   OH252738   1.924   1.334   5.971 -0.1129 -0.2434 -0.0757
10416TIP3    H152739   1.992   1.299   6.029  1.1331  0.4635 -1.0576
10416TIP3    H252740   1.931   1.429   5.980 -0.4152 -0.1452 -0.7972
10417TIP3   OH252741   6.360   4.415   6.194 -0.2032  0.1034  0.0577
10417TIP3    H152742   6.295   4.360   6.151  1.6119 -0.7361 -1.7718
10417TIP3    H252743   6.343   4.503   6.160 -1.4842  0.2567  1.0088
10418TIP3   OH252744   5.184   0.162  16.691 -0.3733  0.3928 -0.2852
10418TIP3    H152745   5.102   0.150  16.644 -0.5542  0.6576 -0.0398
10418TIP3    H252746   5.245   0.103  16.648 -0.9123 -0.4410  0.0772
10419TIP3   OH252747   0.476   3.855   5.692  0.6001 -0.5629  0.3642
10419TIP3    H152748   0.492   3.768   5.728  1.1426 -1.1281 -1.1583
10419TIP3    H252749   0.418   3.839   5.617  0.0971  0.4824  0.5116
10420TIP3   OH252750   3.279   0.477  12.020  0.4120 -0.3948 -0.4645
10420TIP3    H152751   3.188   0.494  11.995  0.5326  1.3112  0.0855
10420TIP3    H252752   3.272   0.437  12.107  0.1452  2.6452  1.0876
10421TIP3   OH252753   3.831   3.194  10.646 -0.2720  0.3099 -0.1670
10421TIP3    H152754   3.737   3.207  10.656 -0.3091 -0.1545  0.1013
10421TIP3    H252755   3.844   3.175  10.553 -0.1590  2.6958 -0.7070
10422TIP3   OH252756   3.667   1.329   2.205 -0.1606  0.2704  0.5372
10422TIP3    H152757   3.700   1.309   2.292  1.1877 -0.4582 -0.1096
10422TIP3    H252758   3.713   1.408   2.179 -0.0936  0.1385  0.2497
10423TIP3   OH252759   3.213   5.128  11.795  0.5042  0.2736 -0.4096
10423TIP3    H152760   3.137   5.114  11.851  0.2326  0.1851 -0.7999
10423TIP3    H252761   3.249   5.040  11.782 -0.6277  0.0117 -2.0495
10424TIP3   OH252762   6.534   5.720   4.372 -0.5398  0.0385  0.3226
10424TIP3    H152763   6.475   5.652   4.406  0.3579 -0.6295  0.5763
10424TIP3    H252764   6.528   5.710   4.276 -1.8163  0.8388  0.3000
10425TIP3   OH252765   3.910   4.138   4.922 -0.2183 -0.1379  0.0564
10425TIP3    H152766   3.944   4.141   5.011  3.2131 -0.2725 -1.0821
10425TIP3    H252767   3.877   4.049   4.911  2.2063 -1.1540  0.3546
10426TIP3   OH252768   2.160   2.964   3.832  0.2337  0.0682 -0.1169
10426TIP3    H152769   2.086   3.012   3.796 -0.1768 -0.2442  0.3076
10426TIP3    H252770   2.122   2.884   3.867  0.5769  0.4691  1.2365
10427TIP3   OH252771   1.845   6.491  11.659  0.1625  0.1539 -0.6455
10427TIP3    H152772   1.771   6.552  11.656  0.2504  0.2848 -0.1881
10427TIP3    H252773   1.822   6.428  11.728  0.0999 -0.2965 -1.0730
10428TIP3   OH252774   5.331   6.478   1.259 -0.0246 -0.0809 -0.3460
10428TIP3    H152775   5.421   6.477   1.225  0.4560  0.3209  0.8733
10428TIP3    H252776   5.324   6.397   1.309  0.0134  0.3881  0.4310
10429TIP3   OH252777   6.719   4.579   0.782 -0.2170 -0.1716 -0.5647
10429TIP3    H152778   6.747   4.612   0.867  3.0303  0.7771 -1.8321
10429TIP3    H252779   6.712   4.484   0.794 -1.2979  0.1011  1.0932
10430TIP3   OH252780   2.734   3.953   4.263  0.1866 -0.3864  0.7588
10430TIP3    H152781   2.828   3.949   4.246 -0.0587 -0.1597 -0.7942
10430TIP3    H252782   2.724   3.917   4.351  1.5353 -2.2721  0.2040
10431TIP3   OH252783   0.422   4.884   0.170 -0.1080  0.5121  0.0036
10431TIP3    H152784   0.412   4.813   0.233  0.9868  1.0452  0.8006
10431TIP3    H252785   0.369   4.956   0.205  1.9061  1.4375  1.3330
10432TIP3   OH252786   0.178   1.446  11.865  0.1367  1.0512  0.2838
10432TIP3    H152787   0.111   1.458  11.799 -0.9377  1.7364  1.4528
10432TIP3    H252788   0.252   1.408  11.818 -1.1823 -0.0766 -0.9748
10433TIP3   OH252789   3.931   4.475  13.856  0.0277 -0.2934  0.1454
10433TIP3    H152790   3.867   4.501  13.922 -0.3267  0.9468 -0.6649
10433TIP3    H252791   4.009   4.451  13.907 -0.4895 -0.0950  1.0459
10434TIP3   OH252792   6.556   0.392  14.528  0.0239  0.0231 -0.4358
10434TIP3    H152793   6.636   0.376  14.477 -0.8317  2.0490 -2.6008
10434TIP3    H252794   6.585   0.444  14.602  1.0447 -1.5026  0.3037
10435TIP3   OH252795   1.667   1.016  11.825  0.0754 -0.2322  0.2506
10435TIP3    H152796   1.671   1.099  11.872 -0.6911  0.1212 -0.2882
10435TIP3    H252797   1.599   0.965  11.870  0.1556 -0.3509  0.2405
10436TIP3   OH252798   3.318   5.438  13.124 -0.8575 -0.7799 -0.6686
10436TIP3    H152799   3.395   5.390  13.092  0.7950  0.6756  0.8775
10436TIP3    H252800   3.306   5.508  13.059  0.4233  0.1768  0.0696
10437TIP3   OH252801   1.023   3.834   6.478  0.1993  0.0607 -0.2708
10437TIP3    H152802   0.982   3.747   6.484  0.9191 -0.1807  2.4871
10437TIP3    H252803   1.110   3.822   6.515  0.0854  2.0981  0.7824
10438TIP3   OH252804   2.181   5.061  12.884  0.4252 -0.3785  0.0877
10438TIP3    H152805   2.130   5.024  12.812  0.6547  2.2205 -1.5604
10438TIP3    H252806   2.267   5.020  12.876  0.4296 -0.1694 -1.1464
10439TIP3   OH252807   3.001   6.416   1.185 -0.3880  0.0912  0.8388
10439TIP3    H152808   3.020   6.380   1.271 -0.2360 -1.0857  0.3348
10439TIP3    H252809   3.027   6.347   1.124 -2.4062  0.0694 -0.0735
10440TIP3   OH252810   0.402   3.721   0.392  0.5152 -0.0787  0.1604
10440TIP3    H152811   0.440   3.673   0.319  2.2637  0.1109  0.8927
10440TIP3    H252812   0.329   3.770   0.353  0.8025 -0.7197 -1.2462
10441TIP3   OH252813   5.930   3.718  14.724  0.1159 -0.3264 -0.4718
10441TIP3    H152814   5.896   3.744  14.639  1.3189 -0.3881 -0.9888
10441TIP3    H252815   6.021   3.694  14.708  0.3136 -0.5313  0.7976
10442TIP3   OH252816   6.841   1.199   1.808 -0.1120 -0.2984  0.5826
10442TIP3    H152817   6.822   1.136   1.878 -1.3625  1.4221  1.8884
10442TIP3    H252818   6.839   1.147   1.728 -1.1439 -1.9026  1.5905
10443TIP3   OH252819   0.486   2.843  12.273  0.6791 -0.1263 -0.8153
10443TIP3    H152820   0.578   2.841  12.246  1.2203 -0.1422  0.9538
10443TIP3    H252821   0.451   2.758  12.246  1.5192 -0.6088 -0.4055
10444TIP3   OH252822   1.846   3.301  11.366 -0.4640  0.1633  0.4262
10444TIP3    H152823   1.899   3.381  11.369 -0.8946  0.4309  2.8413
10444TIP3    H252824   1.757   3.331  11.349 -0.5603  0.1695  0.9287
10445TIP3   OH252825   4.987   2.067  14.709  0.1081 -0.8714 -0.1524
10445TIP3    H152826   4.947   2.006  14.647 -0.2766 -1.7969  0.9646
10445TIP3    H252827   4.940   2.149  14.696 -1.7579 -1.7554  0.6644
10446TIP3   OH252828   3.910   3.613   3.379  0.3536 -0.2577 -0.1413
10446TIP3    H152829   3.833   3.584   3.330  0.5509  0.2908 -0.8005
10446TIP3    H252830   3.985   3.582   3.328  0.5639 -0.0491  0.0337
10447TIP3   OH252831   3.647   0.615   0.637  0.2932  0.0331  0.3363
10447TIP3    H152832   3.666   0.681   0.571  0.7788 -1.3449 -0.9683
10447TIP3    H252833   3.641   0.533   0.587 -1.1766 -0.7863  1.7640
10448TIP3   OH252834   5.937   1.881   3.657  0.1269 -0.2485  0.0783
10448TIP3    H152835   6.019   1.847   3.621  0.0045  0.7635 -1.2158
10448TIP3    H252836   5.955   1.893   3.750  1.5623  0.2784 -0.2498
10449TIP3   OH252837   3.185   1.190   1.807 -0.4447 -0.3902 -0.4765
10449TIP3    H152838   3.127   1.165   1.879  0.4602  0.9813  0.7664
10449TIP3    H252839   3.259   1.234   1.849 -0.0187  0.7007 -2.2617
10450TIP3   OH252840   0.730   0.112   4.656  0.8177 -0.3895  0.0368
10450TIP3    H152841   0.732   0.179   4.587 -0.5204  0.0421  0.3915
10450TIP3    H252842   0.672   0.044   4.623  1.7197 -1.1346 -0.0738
10451TIP3   OH252843   4.985   3.009  12.130 -0.6777  0.0253 -0.6365
10451TIP3    H152844   4.919   2.946  12.160  0.0815 -0.3531  0.2740
10451TIP3    H252845   4.942   3.094  12.137 -0.9758 -0.1908  0.2294
10452TIP3   OH252846   2.027   4.671   2.481 -0.1414 -0.4586  0.3845
10452TIP3    H152847   2.121   4.653   2.484  0.3841  2.0598  1.4305
10452TIP3    H252848   1.992   4.634   2.563 -0.1715 -1.7833 -0.2101
10453TIP3   OH252849   3.738   3.063   5.538  0.2167 -0.1964  0.2410
10453TIP3    H152850   3.733   2.981   5.586 -0.3077 -0.2423  0.1129
10453TIP3    H252851   3.742   3.130   5.605  0.4231 -0.3139  0.3466
10454TIP3   OH252852   1.317   6.007  16.945 -0.5440 -0.5407 -0.2086
10454TIP3    H152853   1.399   5.958  16.938  0.2537  0.7590 -0.1382
10454TIP3    H252854   1.281   5.982  17.030  0.2302 -0.4443  0.1522
10455TIP3   OH252855   4.720   0.288  12.749  0.2312  0.3702 -0.1808
10455TIP3    H152856   4.802   0.298  12.798  0.9856 -0.1570 -1.2954
10455TIP3    H252857   4.723   0.357  12.682 -0.6093  0.8461  0.2520
10456TIP3   OH252858   0.613   1.757   0.271  0.0860 -0.7747 -0.2086
10456TIP3    H152859   0.523   1.752   0.239  0.1776  0.9837 -0.8564
10456TIP3    H252860   0.619   1.843   0.312  1.5924 -0.6704 -0.5879
10457TIP3   OH252861   6.278   3.273   5.014 -0.1125 -0.5759  0.3209
10457TIP3    H152862   6.337   3.316   4.952 -0.4404  1.4871  1.3786
10457TIP3    H252863   6.219   3.342   5.044 -0.1335 -1.5414  2.7442
10458TIP3   OH252864   2.523   5.102  10.693  0.0357 -0.3356 -0.4507
10458TIP3    H152865   2.523   5.068  10.603 -0.3976  1.4169 -1.1414
10458TIP3    H252866   2.456   5.050  10.737 -0.8146 -0.2209 -1.5491
10459TIP3   OH252867   1.916   3.290  15.835 -0.0891 -0.2280  0.4014
10459TIP3    H152868   1.986   3.353  15.853  1.4143 -1.6804 -0.1391
10459TIP3    H252869   1.947   3.208  15.873 -0.3311 -1.5224 -2.0040
10460TIP3   OH252870   0.364   2.265   5.951  0.3035  0.6171  0.6740
10460TIP3    H152871   0.298   2.261   6.020 -1.1086 -0.4459 -0.6439
10460TIP3    H252872   0.392   2.356   5.950 -0.6179  0.9441  1.7631
10461TIP3   OH252873   4.530   0.886  15.264  0.1237 -0.0444  0.2192
10461TIP3    H152874   4.541   0.963  15.319  1.1077 -0.4304  0.5874
10461TIP3    H252875   4.529   0.919  15.174 -0.5403  0.4914  0.4141
10462TIP3   OH252876   0.013   6.553   0.211  0.1701 -0.4257 -0.5573
10462TIP3    H152877  -0.062   6.577   0.157  1.8297 -0.6100 -3.0969
10462TIP3    H252878  -0.018   6.479   0.263 -2.1459  1.1563  0.4708
10463TIP3   OH252879   5.614   3.083   3.472  0.2495 -0.6216  0.4302
10463TIP3    H152880   5.667   3.023   3.420  1.1114 -2.9220  3.6315
10463TIP3    H252881   5.524   3.061   3.449  0.5581 -0.0407 -1.5603
10464TIP3   OH252882   3.329   4.161  12.971 -0.3113 -0.4409 -0.1303
10464TIP3    H152883   3.272   4.142  13.045  1.2468 -1.0045  0.9716
10464TIP3    H252884   3.326   4.082  12.917  1.5026 -1.5996  1.3502
10465TIP3   OH252885   2.577   2.902  12.328 -0.3937 -0.3573  0.4664
10465TIP3    H152886   2.551   2.989  12.297 -1.3425 -0.7830  0.0094
10465TIP3    H252887   2.581   2.911  12.423 -1.4760 -0.0548  0.5001
10466TIP3   OH252888   1.321   5.591  15.255  0.0529 -0.2008  0.2329
10466TIP3    H152889   1.287   5.615  15.168 -0.4654 -0.1150  0.4551
10466TIP3    H252890   1.360   5.671  15.289  0.2936 -0.2455  0.0610
10467TIP3   OH252891   0.731   1.887   5.342 -0.1030 -0.5695 -0.1099
10467TIP3    H152892   0.808   1.834   5.321  0.8349  0.6563  0.1445
10467TIP3    H252893   0.739   1.964   5.286  0.2577  0.8046  1.7814
10468TIP3   OH252894   2.733   5.855  14.337  0.6166  0.3729 -0.6312
10468TIP3    H152895   2.788   5.800  14.394  1.8162  0.6765 -1.4553
10468TIP3    H252896   2.650   5.862  14.384  1.3294  0.0298  0.7451
10469TIP3   OH252897   6.422   0.814   3.703  0.1552  0.6024  0.2457
10469TIP3    H152898   6.517   0.814   3.718 -0.0549  1.2232  1.7545
10469TIP3    H252899   6.387   0.870   3.773 -1.4396 -0.6042  0.4536
10470TIP3   OH252900   2.251   6.813  14.887  0.0920 -0.2965  0.0525
10470TIP3    H152901   2.205   6.849  14.811 -0.6251  0.8600  1.0125
10470TIP3    H252902   2.281   6.890  14.935  1.1956 -1.0252  0.5629
10471TIP3   OH252903   4.557   5.923   1.004  0.0623  0.2269  0.1439
10471TIP3    H152904   4.478   5.924   0.949 -0.5026  0.3368  0.9365
10471TIP3    H252905   4.567   6.013   1.034 -0.1031  0.0161  0.8612
10472TIP3   OH252906   6.674   4.185  13.521  0.2367 -0.1448 -0.0791
10472TIP3    H152907   6.661   4.173  13.615  0.1804 -0.0808 -0.0781
10472TIP3    H252908   6.734   4.115  13.496 -1.0878 -1.2429 -0.3069
10473TIP3   OH252909   0.685   4.815  10.627  0.0668  0.5937  0.0291
10473TIP3    H152910   0.708   4.895  10.578 -1.1475  0.1510 -1.3012
10473TIP3    H252911   0.749   4.750  10.597 -0.6966  0.3111 -1.0723
10474TIP3   OH252912   3.593   6.610  15.698  0.1881  0.2228  0.0062
10474TIP3    H152913   3.677   6.564  15.698  0.7366  1.1318 -1.9051
10474TIP3    H252914   3.528   6.541  15.687  0.5001 -0.6635  2.9912
10475TIP3   OH252915   4.342   5.899  16.362  0.0545 -0.9624 -0.4376
10475TIP3    H152916   4.273   5.836  16.382  0.9172 -1.4869  0.9921
10475TIP3    H252917   4.341   5.906  16.266 -1.9706 -0.9271 -0.4535
10476TIP3   OH252918   0.892   1.264   1.187 -0.3583 -0.3574  0.4758
10476TIP3    H152919   0.814   1.214   1.212 -1.0832  1.2690  1.6005
10476TIP3    H252920   0.930   1.293   1.270 -0.4362  1.6397 -0.1371
10477TIP3   OH252921   4.543   3.325  12.759 -0.4718  0.1412 -0.6765
10477TIP3    H152922   4.486   3.252  12.783  0.2645  0.0973  1.0808
10477TIP3    H252923   4.482   3.396  12.737 -1.1887 -0.7688 -1.7734
10478TIP3   OH252924   1.396   2.902  13.426  0.0334  0.5735  0.1615
10478TIP3    H152925   1.354   2.897  13.511 -0.7049  2.0546 -0.0949
10478TIP3    H252926   1.343   2.844  13.370 -0.3274  0.7033  0.3670
10479TIP3   OH252927   4.056   3.041   2.148  0.4412  0.1882  0.4029
10479TIP3    H152928   4.072   3.073   2.236  2.8782 -1.7412  0.7640
10479TIP3    H252929   3.978   2.986   2.156  1.6436 -1.3887  1.7966
10480TIP3   OH252930   3.883   5.996  13.729 -0.2137  0.0702  0.0903
10480TIP3    H152931   3.856   5.993  13.821  1.3439  0.1871  0.5759
10480TIP3    H252932   3.870   5.906  13.698 -0.7049  0.0176  0.4396
10481TIP3   OH252933   4.037   5.661  16.975  0.0173 -0.0019  0.4261
10481TIP3    H152934   4.010   5.594  16.912  1.8070 -0.2582 -0.1307
10481TIP3    H252935   4.044   5.615  17.059  0.7355 -0.4207  0.1482
10482TIP3   OH252936   5.795   6.830   1.097  0.2657  0.2553  0.0941
10482TIP3    H152937   5.713   6.876   1.112  0.9234  2.4244 -2.2902
10482TIP3    H252938   5.862   6.886   1.135  0.9184  0.3872 -1.1760
10483TIP3   OH252939   5.129   1.588  16.586 -0.4181  1.1840  0.2058
10483TIP3    H152940   5.119   1.522  16.517  0.8341  1.1504  0.0355
10483TIP3    H252941   5.047   1.584  16.635 -0.0919 -1.0267  0.6594
10484TIP3   OH252942   5.455   4.513  15.129  0.2218 -0.4048  0.7999
10484TIP3    H152943   5.501   4.543  15.051 -1.9478  1.1712  0.0236
10484TIP3    H252944   5.524   4.482  15.187  1.9134 -1.9206 -1.8082
10485TIP3   OH252945   6.372   3.114  16.097  0.1517  0.1469 -0.4007
10485TIP3    H152946   6.393   3.206  16.109  2.5419 -0.4001  0.3013
10485TIP3    H252947   6.415   3.091  16.014  0.5137 -0.5585 -0.0295
10486TIP3   OH252948   3.301   3.523  14.718 -0.5471  0.1270 -0.4088
10486TIP3    H152949   3.332   3.571  14.795 -0.9160 -0.0285 -0.1561
10486TIP3    H252950   3.228   3.575  14.685 -0.8107 -0.1411 -0.2609
10487TIP3   OH252951   0.943   1.114  12.444  0.1811  0.4134 -0.5536
10487TIP3    H152952   0.875   1.047  12.446 -1.9580  2.4130 -1.5306
10487TIP3    H252953   0.988   1.106  12.528 -2.5321  0.2180  0.9811
10488TIP3   OH252954   4.655   1.380  11.469 -0.4706 -0.9066  0.3937
10488TIP3    H152955   4.604   1.343  11.396 -1.6164 -2.3434  1.8476
10488TIP3    H252956   4.655   1.312  11.536  2.0911 -0.3258  1.0932
10489TIP3   OH252957   4.025   4.686  13.148  0.0783  0.9859  0.1188
10489TIP3    H152958   3.979   4.608  13.180  0.3569  1.1483  0.9343
10489TIP3    H252959   4.089   4.705  13.216 -0.2798  2.1881  0.1339
10490TIP3   OH252960   4.297   0.248   5.343 -0.4040  0.2436 -0.4948
10490TIP3    H152961   4.393   0.244   5.351 -0.4412  1.5208  1.1383
10490TIP3    H252962   4.271   0.157   5.330  1.0356 -0.1194 -1.0868
10491TIP3   OH252963   5.184   1.086   4.757  1.0740 -0.4988  0.6128
10491TIP3    H152964   5.128   1.091   4.835 -0.1810 -1.3055 -0.1912
10491TIP3    H252965   5.237   1.165   4.761 -0.6163  0.6716  1.0653
10492TIP3   OH252966   6.810   6.539  13.972 -0.4881 -0.2527 -0.2703
10492TIP3    H152967   6.838   6.495  13.891  0.7029  0.5993 -0.3555
10492TIP3    H252968   6.735   6.489  14.002 -0.7192 -0.8170 -1.7115
10493TIP3   OH252969   0.245   3.562  11.395  0.9858  0.0844 -0.0429
10493TIP3    H152970   0.195   3.641  11.381  0.2164 -0.3819  0.0186
10493TIP3    H252971   0.276   3.536  11.308 -0.9898 -0.9830 -0.4868
10494TIP3   OH252972   3.458   1.954  14.531 -0.2066  0.1030  0.0608
10494TIP3    H152973   3.417   2.000  14.458  1.5046  0.7970 -0.4999
10494TIP3    H252974   3.495   2.024  14.586 -0.5816 -0.4589  1.0458
10495TIP3   OH252975   2.026   6.024  16.319 -0.6382 -0.4043 -0.3079
10495TIP3    H152976   1.975   6.045  16.241  0.2488  0.6658 -0.6278
10495TIP3    H252977   1.964   6.031  16.391 -1.5641 -1.7991 -0.9359
10496TIP3   OH252978   4.782   3.435  10.737 -0.1647  0.5543 -0.0314
10496TIP3    H152979   4.741   3.400  10.657  2.9399 -2.5677 -0.4801
10496TIP3    H252980   4.779   3.362  10.799  0.2775  1.9089  1.6340
10497TIP3   OH252981   6.294   3.095   5.254  0.0716  0.1337  0.2626
10497TIP3    H152982   6.265   3.109   5.164  1.7352  0.1771 -0.3057
10497TIP3    H252983   6.318   3.182   5.285  0.1733  0.0206  0.5004
10498TIP3   OH252984   4.573   0.578   0.771  0.0267  0.4079 -0.1019
10498TIP3    H152985   4.573   0.653   0.711 -2.4228  0.8475  0.3342
10498TIP3    H252986   4.499   0.524   0.742 -0.2148 -0.2033  1.5350
10499TIP3   OH252987   5.221   4.879   3.143 -0.2144 -0.3044  0.2351
10499TIP3    H152988   5.159   4.929   3.197 -1.4435 -0.1550 -1.2578
10499TIP3    H252989   5.307   4.900   3.180 -0.7432  2.2365  0.2330
10500TIP3   OH252990   5.677   5.641  14.636 -0.0682 -0.1683  0.4073
10500TIP3    H152991   5.641   5.641  14.725 -0.2287 -1.1200  0.3526
10500TIP3    H252992   5.631   5.570  14.592 -1.6199  1.6681 -1.1229
10501TIP3   OH252993   2.041   4.473  15.524 -0.3175 -0.1550  0.0184
10501TIP3    H152994   1.988   4.546  15.556  1.3808  0.8960  0.5628
10501TIP3    H252995   2.112   4.464  15.588  1.7930  0.4126 -2.0714
10502TIP3   OH252996   6.205   0.674  16.841 -0.3498  0.4642 -0.0414
10502TIP3    H152997   6.111   0.687  16.845 -0.5663 -1.2332  1.9571
10502TIP3    H252998   6.217   0.580  16.832  1.1833  0.7530 -1.6590
10503TIP3   OH252999   1.030   3.744  12.176 -0.5314  0.2129  0.1716
10503TIP3    H153000   0.937   3.756  12.192 -0.6201 -1.0475  0.6854
10503TIP3    H253001   1.037   3.657  12.136  0.3648  0.5365 -0.4106
10504TIP3   OH253002   6.551   3.351   5.778 -0.3619  0.2635  0.4988
10504TIP3    H153003   6.558   3.419   5.844  1.0434  2.4381 -1.7216
10504TIP3    H253004   6.457   3.333   5.772 -0.6395  1.0244  2.0458
10505TIP3   OH253005   4.552   3.364   5.476 -0.5890  0.7428  0.0320
10505TIP3    H153006   4.510   3.389   5.559 -1.4725 -0.8027  0.0934
10505TIP3    H253007   4.479   3.358   5.414 -0.5012 -1.7369  0.0783
10506TIP3   OH253008   2.993   2.801  10.437 -0.0280 -0.7250  0.2480
10506TIP3    H153009   2.952   2.767  10.358  1.0632 -0.1676 -0.5840
10506TIP3    H253010   2.924   2.797  10.503 -0.7817 -1.7583 -0.5699
10507TIP3   OH253011   6.438   1.815  12.904 -0.1250 -0.6916 -0.6455
10507TIP3    H153012   6.520   1.863  12.893 -0.8440  0.8828  0.5175
10507TIP3    H253013   6.439   1.750  12.833  0.1497  2.0542 -3.3664
10508TIP3   OH253014   3.462   2.488   2.313 -0.3707 -0.3034  0.2798
10508TIP3    H153015   3.371   2.474   2.338 -0.0882 -0.4136  1.2662
10508TIP3    H253016   3.488   2.407   2.269 -0.4897 -0.6199  0.7821
10509TIP3   OH253017   4.301   0.997  12.770  0.1978 -0.2526  0.4071
10509TIP3    H153018   4.354   0.980  12.848 -0.4505 -1.8434  0.5323
10509TIP3    H253019   4.251   0.917  12.757 -1.6176  0.9106 -0.1714
10510TIP3   OH253020   0.197   5.485  11.520  0.3049  0.0162 -0.1778
10510TIP3    H153021   0.277   5.537  11.508 -0.1098 -0.0033 -4.1737
10510TIP3    H253022   0.166   5.510  11.607  3.1557  2.1051  0.4046
10511TIP3   OH253023   0.049   6.635   5.672  0.2966  0.3751  0.4813
10511TIP3    H153024   0.142   6.649   5.691  0.5705 -2.2220  1.4259
10511TIP3    H253025   0.046   6.619   5.578  0.7443  0.8308  0.3838
10512TIP3   OH253026   1.491   5.788  11.064  0.0470  0.1448  0.3078
10512TIP3    H153027   1.476   5.859  11.002 -1.2887 -0.7925 -0.5011
10512TIP3    H253028   1.457   5.710  11.019  3.2860 -1.4251  0.2754
10513TIP3   OH253029   4.078   6.820  16.898 -0.1961 -0.9855  0.9245
10513TIP3    H153030   4.047   6.890  16.841  0.8961 -0.9737  0.3161
10513TIP3    H253031   4.143   6.863  16.955  0.7980 -1.5646  0.2586
10514TIP3   OH253032   1.453   5.489  13.268 -0.0052  0.0886  0.2063
10514TIP3    H153033   1.470   5.534  13.350  0.2513 -0.0708  0.2395
10514TIP3    H253034   1.521   5.521  13.208  1.9656 -2.3050  0.9849
10515TIP3   OH253035   6.387   5.882  16.242  0.7562 -0.1628  0.1713
10515TIP3    H153036   6.347   5.878  16.329 -1.6901 -1.1588 -0.9137
10515TIP3    H253037   6.416   5.793  16.224  1.0710 -0.0031 -0.1361
10516TIP3   OH253038   6.319   5.500   4.458 -0.4802  0.9203 -0.1137
10516TIP3    H153039   6.291   5.424   4.509 -3.0260  0.6264 -1.7890
10516TIP3    H253040   6.302   5.575   4.515 -0.7032  0.4349  0.4693
10517TIP3   OH253041   0.327   4.059   5.137 -0.3978 -0.1523 -0.4347
10517TIP3    H153042   0.264   4.109   5.188  0.5110  0.8703 -0.2861
10517TIP3    H253043   0.274   4.005   5.079 -1.4035  0.7816 -0.4025
10518TIP3   OH253044   1.931   1.488  12.007  0.7074  1.0493 -0.0446
10518TIP3    H153045   1.991   1.546  11.959 -0.2424  0.3433 -2.1863
10518TIP3    H253046   1.874   1.451  11.940 -0.7949  0.0851  1.6718
10519TIP3   OH253047   1.254   0.747  15.593 -0.1092  0.6709  0.4735
10519TIP3    H153048   1.239   0.711  15.505 -2.3101 -0.4638  1.2291
10519TIP3    H253049   1.347   0.732  15.609 -0.0186 -0.6940 -1.0071
10520TIP3   OH253050   5.806   2.778  12.262 -0.5462 -0.1865  0.3597
10520TIP3    H153051   5.890   2.821  12.278  0.4090 -1.6110 -0.5932
10520TIP3    H253052   5.741   2.837  12.300  0.9669  0.3172  2.3282
10521TIP3   OH253053   3.554   4.414   4.683 -0.1618  0.2089 -1.2773
10521TIP3    H153054   3.573   4.329   4.722  1.5678  0.5605 -1.2644
10521TIP3    H253055   3.631   4.434   4.629 -1.0325  1.2543 -2.1978
10522TIP3   OH253056   0.126   6.207   4.024 -0.0481 -0.3178  0.5726
10522TIP3    H153057   0.143   6.177   4.114 -0.4091 -0.6520  0.5325
10522TIP3    H253058   0.167   6.141   3.969  0.1421 -0.1313  0.4902
10523TIP3   OH253059   3.018   1.152  16.944  0.2836 -0.0389 -0.4667
10523TIP3    H153060   2.984   1.224  16.892  0.7636  1.2664  0.9472
10523TIP3    H253061   3.113   1.154  16.928  0.0464 -2.3079 -2.7369
10524TIP3   OH253062   0.391   1.349  11.180  0.3210  0.0495 -0.1841
10524TIP3    H153063   0.486   1.337  11.177  0.5454  1.6249 -0.5799
10524TIP3    H253064   0.368   1.376  11.091  0.0039  2.6346  0.5961
10525TIP3   OH253065   3.853   5.896  16.616  0.2456 -0.0112  0.2524
10525TIP3    H153066   3.916   5.830  16.647 -1.0327 -1.3216  0.1934
10525TIP3    H253067   3.882   5.977  16.657  1.3427 -0.7878  1.1025
10526TIP3   OH253068   0.617   6.485   0.545  0.1541  0.5156 -0.0607
10526TIP3    H153069   0.682   6.442   0.489 -0.2663  0.3708 -0.4436
10526TIP3    H253070   0.575   6.413   0.593  0.1737  0.5952  0.0758
10527TIP3   OH253071   2.854   2.052   5.221 -0.6328  0.1011  0.6083
10527TIP3    H153072   2.822   2.073   5.309 -0.3316 -1.9209  1.2609
10527TIP3    H253073   2.942   2.016   5.236  0.1922  1.4441 -0.7228
10528TIP3   OH253074   2.770   0.946   4.301 -0.3129  0.6822  0.0546
10528TIP3    H153075   2.682   0.913   4.319 -0.3129 -0.9504 -2.3396
10528TIP3    H253076   2.827   0.870   4.316  1.0857  2.2120  3.5166
10529TIP3   OH253077   0.410   6.226  15.586  0.5717  0.7709  0.0417
10529TIP3    H153078   0.497   6.233  15.546  0.3302  0.7142 -0.5111
10529TIP3    H253079   0.353   6.272  15.524  0.1462  0.4496  0.1975
10530TIP3   OH253080   1.096   4.978   0.661  0.4668  0.1848 -0.7789
10530TIP3    H153081   1.049   4.912   0.712 -0.1545  0.3390 -1.1438
10530TIP3    H253082   1.165   4.929   0.616 -0.7865 -0.4812 -2.0791
10531TIP3   OH253083   5.470   1.990   5.656  0.3154  0.1625  0.2818
10531TIP3    H153084   5.500   1.900   5.662  0.3637 -0.0363 -2.0078
10531TIP3    H253085   5.544   2.042   5.688  0.2652 -0.5742  1.6698
10532TIP3   OH253086   6.804   6.155  11.066  0.4802  0.1190 -0.2767
10532TIP3    H153087   6.720   6.115  11.041  0.7750 -1.3787  1.0446
10532TIP3    H253088   6.813   6.229  11.006 -1.0429 -0.6114 -1.4802
10533TIP3   OH253089   1.871   1.057   3.757  0.1596 -0.4942 -0.2442
10533TIP3    H153090   1.949   1.111   3.746 -0.5212  0.4273 -0.7626
10533TIP3    H253091   1.802   1.105   3.710 -1.1933 -0.2354  1.8575
10534TIP3   OH253092   4.713   3.224   2.046 -0.4152  0.1160 -0.1844
10534TIP3    H153093   4.789   3.167   2.038  0.3577  1.1765 -0.5526
10534TIP3    H253094   4.674   3.199   2.130  1.7271  1.1694  1.2273
10535TIP3   OH253095   3.569   1.022  14.596 -0.9460 -0.0001  0.4025
10535TIP3    H153096   3.602   1.024  14.507  0.8726 -2.3715  0.9448
10535TIP3    H253097   3.475   1.035  14.587 -0.8230 -0.3557 -1.8683
10536TIP3   OH253098   2.627   2.179  15.702 -0.4067  0.2651  0.8065
10536TIP3    H153099   2.610   2.272  15.683 -1.1701 -0.0621 -0.2049
10536TIP3    H253100   2.655   2.143  15.618 -1.1067 -0.6441  0.9627
10537TIP3   OH253101   5.519   0.877  17.106  0.1586  0.5051  0.7049
10537TIP3    H153102   5.450   0.943  17.117  0.5602  1.0817 -0.1683
10537TIP3    H253103   5.572   0.885  17.185  0.5867  1.7029  0.3113
10538TIP3   OH253104   1.042   6.605  15.205 -0.2167 -0.1804 -0.2056
10538TIP3    H153105   1.042   6.678  15.266 -0.1939 -0.4343  0.0977
10538TIP3    H253106   1.128   6.608  15.163 -0.5882  0.5939 -0.9512
10539TIP3   OH253107   5.169   4.397  13.755  0.3022  0.2345 -0.1499
10539TIP3    H153108   5.167   4.470  13.818 -2.9872 -0.5158  0.7581
10539TIP3    H253109   5.084   4.400  13.712  0.8046 -1.9915 -1.4246
10540TIP3   OH253110   0.942   3.616   5.799  0.1792  0.2096  0.0421
10540TIP3    H153111   0.918   3.691   5.745 -0.9337  0.0531  0.2991
10540TIP3    H253112   1.028   3.590   5.767 -0.2179  0.4639 -1.2732
10541TIP3   OH253113   0.211   6.588  14.091  0.1499 -0.3670 -0.4405
10541TIP3    H153114   0.205   6.599  14.186 -1.4367 -0.2242 -0.5274
10541TIP3    H253115   0.123   6.610  14.059  1.0906  1.2469 -2.1136
10542TIP3   OH253116   0.666   3.211   0.021  0.1782  0.1999 -0.0702
10542TIP3    H153117   0.630   3.202   0.109 -0.2858 -0.3729 -0.3069
10542TIP3    H253118   0.696   3.123  -0.002 -0.5505  0.1297 -0.8237
10543TIP3   OH253119   3.570   4.383   0.275  0.1278 -0.1451 -0.0930
10543TIP3    H153120   3.482   4.346   0.278  1.0119 -2.6258 -1.9625
10543TIP3    H253121   3.603   4.361   0.188  2.4517  1.1614  0.3603
10544TIP3   OH253122   3.432   6.405  12.607  0.1648  0.0516  0.0430
10544TIP3    H153123   3.436   6.373  12.697  0.5161 -0.2578 -0.0807
10544TIP3    H253124   3.461   6.496  12.612  0.6964 -0.1250  0.1611
10545TIP3   OH253125   3.835   6.730  11.246  0.2468 -0.5167  0.2757
10545TIP3    H153126   3.916   6.772  11.274  0.9838 -1.7017 -0.0401
10545TIP3    H253127   3.851   6.636  11.256 -0.9507 -0.7854 -0.1424
10546TIP3   OH253128   2.369   6.022   0.439 -0.5363 -0.1028 -0.2825
10546TIP3    H153129   2.396   5.936   0.471 -0.7615 -1.0206 -2.4061
10546TIP3    H253130   2.387   6.081   0.512  1.7921 -1.5629  0.4482
10547TIP3   OH253131   4.122   4.285   2.845 -0.2945  0.3698 -1.0082
10547TIP3    H153132   4.060   4.215   2.866  0.7305  0.1787  1.8783
10547TIP3    H253133   4.203   4.239   2.821  0.4652  0.4333  1.1595
10548TIP3   OH253134   3.915   3.222  13.177  0.4532  0.1448 -0.4264
10548TIP3    H153135   3.821   3.208  13.187  0.8991 -2.5855  0.9461
10548TIP3    H253136   3.936   3.189  13.090  0.3174 -0.4588 -0.2320
10549TIP3   OH253137   2.670   6.587   1.841 -0.1858 -0.5962  0.5750
10549TIP3    H153138   2.752   6.544   1.815 -0.2490 -0.6070  0.3884
10549TIP3    H253139   2.687   6.680   1.830  0.0362 -0.5578  1.2271
10550TIP3   OH253140   3.895   3.173  14.529  0.2905 -0.0172  0.4510
10550TIP3    H153141   3.841   3.244  14.563  1.3465  0.8332  0.4250
10550TIP3    H253142   3.863   3.094  14.572 -1.8348  0.2230 -0.5575
10551TIP3   OH253143   2.514   1.522  14.255 -0.2924  0.2058  0.3597
10551TIP3    H153144   2.541   1.574  14.179 -0.7150 -2.1384 -1.5311
10551TIP3    H253145   2.448   1.463  14.220 -0.4207 -1.0554  2.5789
10552TIP3   OH253146   6.751   5.699   5.111 -0.1199 -0.4004 -0.4565
10552TIP3    H153147   6.810   5.756   5.160  0.0141 -0.2700 -0.7661
10552TIP3    H253148   6.703   5.759   5.053  1.3402 -0.7791 -2.1338
10553TIP3   OH253149   2.071   0.621   2.834 -0.5428 -0.1635 -0.2836
10553TIP3    H153150   2.089   0.632   2.927 -0.5407 -0.7272 -0.2095
10553TIP3    H253151   2.124   0.686   2.790 -0.8608  0.3868  0.1373
10554TIP3   OH253152   6.418   3.714  11.155  0.1280  0.5188  0.2242
10554TIP3    H153153   6.426   3.686  11.064  1.1249  1.5478 -0.0226
10554TIP3    H253154   6.353   3.785  11.152  0.1586  0.5503  0.3039
10555TIP3   OH253155   3.435   6.475   3.762  0.5189  0.1444 -0.1354
10555TIP3    H153156   3.444   6.525   3.680 -2.1064  0.8268 -0.1023
10555TIP3    H253157   3.420   6.542   3.829  4.7026 -0.2029  1.4662
10556TIP3   OH253158   3.125   2.219   2.654 -0.0462  0.0281  0.0170
10556TIP3    H153159   3.132   2.167   2.735 -0.6336  0.8851  0.6414
10556TIP3    H253160   3.184   2.293   2.668  2.4043 -1.4488 -1.7202
10557TIP3   OH253161   0.411   4.506  12.672 -0.3652  0.0824 -0.1925
10557TIP3    H153162   0.439   4.560  12.598  0.7142 -1.5141 -1.0234
10557TIP3    H253163   0.485   4.510  12.734 -1.3401  1.5702  0.9517
10558TIP3   OH253164   1.787   3.524  14.392  0.3112 -0.3600 -0.2961
10558TIP3    H153165   1.771   3.612  14.357 -1.1432 -0.5265 -0.1253
10558TIP3    H253166   1.783   3.467  14.314  0.9269 -0.3079 -0.3648
10559TIP3   OH253167   5.691   5.305  12.059  0.5893 -0.4125  0.4491
10559TIP3    H153168   5.750   5.264  12.122 -0.2901 -0.3357  1.3404
10559TIP3    H253169   5.606   5.307  12.103 -0.0973 -0.5319 -0.8096
10560TIP3   OH253170   3.736   5.325   4.912 -0.3682  0.1240 -0.3016
10560TIP3    H153171   3.826   5.294   4.908 -0.3572  0.2051 -0.7617
10560TIP3    H253172   3.729   5.387   4.840  0.2993  3.0882  1.9805
10561TIP3   OH253173   0.576   3.345  15.418  0.9796  0.1343 -0.0254
10561TIP3    H153174   0.624   3.358  15.336  0.3568 -1.1411 -0.6351
10561TIP3    H253175   0.586   3.427  15.466  2.2957  0.5017 -0.8933
10562TIP3   OH253176   4.100   3.366   3.506 -0.5301 -0.2690  0.2294
10562TIP3    H153177   4.096   3.394   3.414  1.6514  0.7261  0.3952
10562TIP3    H253178   4.037   3.422   3.551 -1.0796 -0.2632 -0.5239
10563TIP3   OH253179   4.890   3.813   0.520  0.0175 -0.5960  0.0783
10563TIP3    H153180   4.847   3.744   0.470  0.3361 -0.2851 -0.6369
10563TIP3    H253181   4.855   3.894   0.483  0.4439 -0.3617  0.1852
10564TIP3   OH253182   6.698   2.219  14.722  0.4387  0.5944  0.5526
10564TIP3    H153183   6.756   2.257  14.656  0.8784 -0.2802  0.4260
10564TIP3    H253184   6.755   2.169  14.779 -0.3011 -1.4249 -0.3732
10565TIP3   OH253185   1.581   5.963   5.760 -0.3115  0.8030  0.5234
10565TIP3    H153186   1.564   6.045   5.713 -1.0557  0.9534  1.0326
10565TIP3    H253187   1.617   5.991   5.844  1.1820  0.5293  0.0146
10566TIP3   OH253188   6.631   1.564   0.496  0.4493  0.1301 -0.1981
10566TIP3    H153189   6.630   1.487   0.553  0.3810 -0.3271 -0.8068
10566TIP3    H253190   6.635   1.638   0.556  0.7891 -0.3556  0.3876
10567TIP3   OH253191   4.276   3.679  12.983  0.9076  0.5788 -0.2587
10567TIP3    H153192   4.222   3.731  13.042  1.0326 -1.4990  1.8540
10567TIP3    H253193   4.366   3.692  13.015  1.0842  0.1351 -0.5549
10568TIP3   OH253194   3.122   5.620   2.751  0.0126 -0.1909 -0.1918
10568TIP3    H153195   3.090   5.675   2.823 -0.2165 -0.2977 -0.2123
10568TIP3    H253196   3.110   5.673   2.673  1.1398  0.3051 -0.0544
10569TIP3   OH253197   0.729   3.817   1.613 -0.3117 -0.6807  0.3061
10569TIP3    H153198   0.753   3.841   1.703 -0.4610  1.2661 -0.1276
10569TIP3    H253199   0.669   3.744   1.623  0.0992 -0.8534  1.7684
10570TIP3   OH253200   2.488   1.066   5.509  0.0406  0.0045  0.0219
10570TIP3    H153201   2.517   1.006   5.578 -0.1302  0.4771  0.5104
10570TIP3    H253202   2.487   1.152   5.551 -3.7795 -0.1497  0.6668
10571TIP3   OH253203   6.285   0.606   3.603 -0.0233  0.3804 -0.2848
10571TIP3    H153204   6.332   0.688   3.615  0.6587 -0.1824  1.1691
10571TIP3    H253205   6.353   0.539   3.608 -0.7862 -0.3632  0.4213
10572TIP3   OH253206   4.871   1.562  13.263 -0.2740 -0.1272  0.3206
10572TIP3    H153207   4.890   1.479  13.307 -1.2429 -1.4716 -1.6526
10572TIP3    H253208   4.833   1.617  13.331 -0.0678 -1.4740  1.5745
10573TIP3   OH253209   0.740   2.998  13.705  0.2880  0.7006 -0.3601
10573TIP3    H153210   0.775   2.973  13.790  1.0879  2.3384 -0.1718
10573TIP3    H253211   0.661   2.944  13.694  0.9824 -0.5799  0.7392
10574TIP3   OH253212   3.178   6.633   2.355 -0.0181 -0.0568  0.0118
10574TIP3    H153213   3.209   6.723   2.363  1.3145 -0.6205  2.0676
10574TIP3    H253214   3.089   6.634   2.389 -0.0202  0.4846 -0.0063
10575TIP3   OH253215   5.371   3.708   3.461  0.3506 -0.6853 -0.2860
10575TIP3    H153216   5.315   3.762   3.404 -0.7482 -0.5756  0.8426
10575TIP3    H253217   5.374   3.623   3.417 -3.0192 -1.5743  0.8670
10576TIP3   OH253218   0.311   6.126   0.415  0.7152 -0.2909  0.2733
10576TIP3    H153219   0.260   6.206   0.407  0.7583 -0.3645 -0.8859
10576TIP3    H253220   0.275   6.082   0.493 -0.0074  0.3484  0.3080
10577TIP3   OH253221   5.317   0.374  16.401 -0.0875  0.2292  0.0915
10577TIP3    H153222   5.222   0.376  16.397 -0.0438  0.9353 -0.6506
10577TIP3    H253223   5.341   0.288  16.365 -0.4703 -0.3785  1.2296
10578TIP3   OH253224   5.952   5.074   0.355 -0.4929 -0.7400  0.1672
10578TIP3    H153225   5.896   5.068   0.432 -0.7895  1.9629  0.2448
10578TIP3    H253226   6.016   5.142   0.377  0.0526 -0.6379 -1.5878
10579TIP3   OH253227   4.603   0.824   0.615 -0.6496  0.0089 -0.1618
10579TIP3    H153228   4.691   0.854   0.636 -0.5795 -0.8884  0.8719
10579TIP3    H253229   4.600   0.824   0.519  0.8601 -1.0504 -0.2378
10580TIP3   OH253230   2.995   6.385   0.766 -0.7432  0.1144 -0.2796
10580TIP3    H153231   3.048   6.444   0.713  0.0650 -1.5095 -1.3404
10580TIP3    H253232   2.961   6.321   0.705 -0.1939 -1.5244  1.0588
10581TIP3   OH253233   2.809   4.449  11.015  0.2109  0.2206  0.0062
10581TIP3    H153234   2.854   4.461  10.931 -3.0915 -1.5138 -2.2012
10581TIP3    H253235   2.847   4.369  11.050  0.9124  0.4106 -0.2887
10582TIP3   OH253236   5.612   1.492  15.308  0.1369 -0.8336  0.6934
10582TIP3    H153237   5.689   1.534  15.346  0.2485 -0.8661  0.5060
10582TIP3    H253238   5.577   1.557  15.246 -0.7486 -0.3009  1.7270
10583TIP3   OH253239   2.999   2.164   0.278  0.1092 -0.4571  0.6065
10583TIP3    H153240   2.906   2.166   0.300  0.1187 -1.2665  0.7522
10583TIP3    H253241   3.001   2.165   0.182  0.0333  1.8039  0.5767
10584TIP3   OH253242   2.969   5.920   1.680 -0.0539  0.3997  0.1209
10584TIP3    H153243   2.975   5.850   1.744 -1.1069  0.8733  0.7734
10584TIP3    H253244   2.896   5.974   1.710 -1.1570  0.1614 -1.9413
10585TIP3   OH253245   0.421   3.584   2.474 -0.5946 -0.0685  0.2452
10585TIP3    H153246   0.438   3.588   2.568  0.9983  1.2405 -0.0494
10585TIP3    H253247   0.409   3.675   2.449 -1.1699 -0.4232 -0.8067
10586TIP3   OH253248   4.585   5.787   5.172  0.2314  0.6068 -0.2170
10586TIP3    H153249   4.578   5.775   5.266 -1.8245 -0.5436 -0.4639
10586TIP3    H253250   4.497   5.813   5.144  0.3084 -0.8300 -2.0254
10587TIP3   OH253251   2.024   0.544   2.055 -0.6955  0.1187 -0.2450
10587TIP3    H153252   2.005   0.559   2.148 -1.0107 -0.3952 -0.2232
10587TIP3    H253253   1.985   0.619   2.010  0.6407  1.0797  0.1501
10588TIP3   OH253254   0.312   1.252  14.127  0.1709  0.4636 -0.4576
10588TIP3    H153255   0.402   1.222  14.114  0.3516  0.5759  0.4758
10588TIP3    H253256   0.309   1.281  14.218 -0.5666  1.3282 -0.7413
10589TIP3   OH253257   2.140   6.593  11.457  0.1532 -0.0887  0.2398
10589TIP3    H153258   2.128   6.520  11.396 -1.0843  1.1474 -1.1024
10589TIP3    H253259   2.227   6.579  11.495  1.1576 -0.7737 -2.0898
10590TIP3   OH253260   5.911   2.746  14.893 -0.1961 -0.1897 -0.0881
10590TIP3    H153261   5.874   2.713  14.975 -0.2936 -0.2420 -0.1526
10590TIP3    H253262   5.925   2.840  14.910  0.6799 -0.3806  0.3109
10591TIP3   OH253263   4.635   1.473  14.363  0.7031 -0.8171 -0.5922
10591TIP3    H153264   4.572   1.507  14.299  1.8220 -0.4072 -1.5178
10591TIP3    H253265   4.582   1.450  14.439 -0.4076  0.6743 -0.8701
10592TIP3   OH253266   6.386   2.931  14.023 -0.2312  0.4740 -0.7041
10592TIP3    H153267   6.470   2.886  14.016  0.5213  1.9738 -1.5770
10592TIP3    H253268   6.363   2.953  13.933 -1.7518 -0.2098 -0.5162
10593TIP3   OH253269   4.849   3.646   6.314  0.0887 -0.2133  0.3974
10593TIP3    H153270   4.941   3.667   6.328  0.4406 -2.0866  1.1778
10593TIP3    H253271   4.837   3.653   6.219  1.0886 -0.2027  0.2600
10594TIP3   OH253272   3.885   2.908   4.087  0.0009  0.1493 -0.2508
10594TIP3    H153273   3.834   2.905   4.168  0.3583  0.7199  0.0053
10594TIP3    H253274   3.830   2.865   4.022 -0.2278 -0.4513  0.3277
10595TIP3   OH253275   0.590   0.175   0.372  0.5852  0.2022 -0.3756
10595TIP3    H153276   0.667   0.194   0.318  0.5839 -0.1303 -0.4978
10595TIP3    H253277   0.593   0.081   0.385  0.8800  0.3511  0.6536
10596TIP3   OH253278   0.436   4.702   1.614 -0.2316 -0.2421 -0.7505
10596TIP3    H153279   0.347   4.731   1.596 -0.3357 -0.7597 -1.0843
10596TIP3    H253280   0.434   4.607   1.602  0.1612 -0.3616  0.0902
10597TIP3   OH253281   6.467   5.065  12.892  0.4159  0.3117  0.2290
10597TIP3    H153282   6.450   5.158  12.907  1.1874  0.3856  0.6751
10597TIP3    H253283   6.443   5.022  12.974 -2.0151 -0.2020 -0.6326
10598TIP3   OH253284   0.913   0.101  12.919  0.2748  0.1373  0.2896
10598TIP3    H153285   0.902   0.020  12.870  0.8325 -0.6680  1.4414
10598TIP3    H253286   0.843   0.158  12.888 -0.3721 -0.9345 -0.2645
10599TIP3   OH253287   1.439   0.767  12.899  0.3944 -0.4339 -0.2720
10599TIP3    H153288   1.475   0.679  12.910 -1.2225 -1.1252 -0.2469
10599TIP3    H253289   1.516   0.824  12.900  1.6021 -1.9374 -1.4909
10600TIP3   OH253290   5.561   3.853  16.823 -0.4194  0.1138  0.1767
10600TIP3    H153291   5.533   3.939  16.854  0.6341  0.8319 -0.7499
10600TIP3    H253292   5.522   3.844  16.736 -0.9626 -0.5963  0.4788
10601TIP3   OH253293   5.959   1.354  16.721  0.1321 -0.5184 -0.5570
10601TIP3    H153294   5.930   1.299  16.794 -0.5301 -0.4564 -0.7674
10601TIP3    H253295   6.053   1.364  16.735 -0.2870  1.2040  1.4401
10602TIP3   OH253296   5.523   6.761  15.970  0.2593  0.9691  0.5540
10602TIP3    H153297   5.569   6.807  15.900 -2.2692  1.0414 -1.2075
10602TIP3    H253298   5.570   6.678  15.980  0.4263  0.7554 -1.5841
10603TIP3   OH253299   2.297   0.449   1.550  0.4253 -0.2017  0.4812
10603TIP3    H153300   2.361   0.466   1.481 -0.2783  0.0106 -0.1415
10603TIP3    H253301   2.253   0.369   1.522 -1.8986  1.4364 -0.9230
10604TIP3   OH253302   3.307   6.131   0.919 -0.1208 -0.1445 -0.4747
10604TIP3    H153303   3.229   6.177   0.951  0.6461  1.1297 -0.3602
10604TIP3    H253304   3.333   6.074   0.991  0.2310  0.9571  0.2986
10605TIP3   OH253305   1.387   2.808  15.763  0.6354  0.0667  0.1865
10605TIP3    H153306   1.323   2.795  15.832  0.9882 -0.1047  0.4872
10605TIP3    H253307   1.415   2.719  15.739 -0.1561  0.0731 -0.8204
10606TIP3   OH253308   6.722   3.440   0.956 -0.6837 -0.0625  0.2961
10606TIP3    H153309   6.730   3.367   1.018  0.7021 -0.9847 -0.8770
10606TIP3    H253310   6.662   3.408   0.889  0.9090 -0.7121 -0.9007
10607TIP3   OH253311   5.429   4.707  16.850  0.2392  0.3185  0.4094
10607TIP3    H153312   5.355   4.659  16.887  0.1613 -0.8607 -1.2233
10607TIP3    H253313   5.506   4.657  16.878  0.1676 -0.7080 -1.1482
10608TIP3   OH253314   6.394   0.661  11.226  0.3100  0.2607 -0.0680
10608TIP3    H153315   6.461   0.593  11.229  0.9971  0.8901 -0.6053
10608TIP3    H253316   6.335   0.641  11.298 -0.7779 -2.1949 -1.5317
10609TIP3   OH253317   1.255   3.817  12.812  0.1917  0.4274 -0.2759
10609TIP3    H153318   1.248   3.896  12.865  0.6230  0.1035  0.2785
10609TIP3    H253319   1.212   3.749  12.865  1.1314 -0.0239 -0.0683
10610TIP3   OH253320   0.919   5.504  10.352 -0.3037 -0.0217 -0.3715
10610TIP3    H153321   1.012   5.490  10.334 -0.0355  1.9630 -0.7803
10610TIP3    H253322   0.874   5.467  10.276  0.1252 -1.0871 -0.1238
10611TIP3   OH253323   6.072   0.927  14.776 -0.8805  0.1207  0.0349
10611TIP3    H153324   6.163   0.915  14.748 -0.4851  0.4292  1.0989
10611TIP3    H253325   6.076   0.920  14.872 -2.4023 -2.6052 -0.0010
10612TIP3   OH253326   3.430   1.166  14.863  0.3299 -0.0501 -0.1805
10612TIP3    H153327   3.498   1.101  14.879  2.9108  1.9657 -2.1795
10612TIP3    H253328   3.454   1.241  14.918 -1.0865  0.2300  0.1073
10613TIP3   OH253329   5.131   2.824  11.547  0.2067 -0.1614  0.0153
10613TIP3    H153330   5.115   2.917  11.565  0.7940 -0.0305 -0.1303
10613TIP3    H253331   5.220   2.808  11.579 -0.4736 -1.0790  1.5691
10614TIP3   OH253332   5.296   0.223   0.752 -0.3520  0.3855  0.4190
10614TIP3    H153333   5.334   0.154   0.807  0.3296 -1.2722 -1.9477
10614TIP3    H253334   5.214   0.185   0.721  0.4318  0.2286 -1.5864
10615TIP3   OH253335   3.771   1.774  16.622  0.0171 -0.1215 -0.2698
10615TIP3    H153336   3.788   1.686  16.656 -1.0846 -0.9654 -1.7626
10615TIP3    H253337   3.782   1.832  16.698  0.5326 -1.5603  0.7998
10616TIP3   OH253338   2.489   4.031  11.639 -0.3078 -0.4531 -0.3452
10616TIP3    H153339   2.558   4.059  11.579  0.2371  0.5059  0.7019
10616TIP3    H253340   2.409   4.070  11.605  0.1673  0.9628  0.1096
10617TIP3   OH253341   3.959   3.254  11.628  0.0729  0.4557 -0.4469
10617TIP3    H153342   4.030   3.310  11.659 -0.0038  0.0076  0.5660
10617TIP3    H253343   3.919   3.219  11.708 -0.1246 -0.7373 -1.0517
10618TIP3   OH253344   3.598   5.049  14.831  0.6593  0.0248  0.2510
10618TIP3    H153345   3.550   5.024  14.752  2.1269  2.0250 -1.3707
10618TIP3    H253346   3.656   4.974  14.849 -1.2998 -1.4217  0.8742
10619TIP3   OH253347   3.419   1.697   4.473  0.4899  0.4346  0.5295
10619TIP3    H153348   3.341   1.732   4.517  0.8007  1.1701  0.5052
10619TIP3    H253349   3.457   1.772   4.428  1.2823  0.1112  0.6427
10620TIP3   OH253350   5.324   3.905  14.354 -0.0303  0.7105  0.0692
10620TIP3    H153351   5.261   3.906  14.426  0.4874 -0.2587  0.5566
10620TIP3    H253352   5.403   3.865  14.391  0.2778  0.2804 -0.9971
10621TIP3   OH253353   0.375   2.663   2.541  0.3114  0.5411  0.1884
10621TIP3    H153354   0.424   2.734   2.500  0.2012  1.5054  1.6547
10621TIP3    H253355   0.300   2.649   2.483  2.3622 -1.1802 -2.2732
10622TIP3   OH253356   0.910   1.094  14.002 -0.0857 -0.8140  0.7100
10622TIP3    H153357   0.960   1.018  13.972  1.4953  0.2185  0.5861
10622TIP3    H253358   0.966   1.169  13.980 -2.2712  0.5271 -0.5947
10623TIP3   OH253359   2.708   2.930  15.090 -0.0309 -0.3267  0.1962
10623TIP3    H153360   2.636   2.902  15.148  0.3988 -0.2416  0.7828
10623TIP3    H253361   2.777   2.958  15.150  0.3914 -0.1458 -0.3680
10624TIP3   OH253362   2.558   4.157  13.704  0.2174  0.1381  0.1587
10624TIP3    H153363   2.488   4.113  13.753  1.0347 -1.4658 -0.0219
10624TIP3    H253364   2.540   4.250  13.714  0.1801 -0.0928  3.3138
10625TIP3   OH253365   0.445   5.769   0.228  0.3880  0.0006 -0.1743
10625TIP3    H153366   0.503   5.844   0.243  0.8670 -0.2601 -0.6752
10625TIP3    H253367   0.357   5.806   0.225  0.3625  0.2360  1.9764
10626TIP3   OH253368   2.596   2.699  12.117 -0.3094 -0.2043 -0.3501
10626TIP3    H153369   2.595   2.779  12.170 -1.2809 -1.3019  1.4133
10626TIP3    H253370   2.646   2.636  12.169  0.7631 -0.6601 -1.8763
10627TIP3   OH253371   6.173   1.500   3.445  0.6143 -0.2522  0.3860
10627TIP3    H153372   6.201   1.497   3.353 -0.3040  0.9551  0.0498
10627TIP3    H253373   6.160   1.593   3.463  0.1532 -0.5342  1.5546
10628TIP3   OH253374   4.059   1.721   0.257 -0.5155  0.0267  0.0015
10628TIP3    H153375   4.016   1.792   0.305 -1.7462 -1.5732  1.4366
10628TIP3    H253376   4.126   1.689   0.318 -1.4260 -1.3956  0.2996
10629TIP3   OH253377   1.959   2.495  11.813 -0.9858 -0.0589  0.3012
10629TIP3    H153378   1.947   2.451  11.729  0.8855  0.0252 -0.0434
10629TIP3    H253379   1.879   2.476  11.862 -2.1116 -0.1041 -1.4917
10630TIP3   OH253380   5.562   0.110   1.108  0.6547  0.2587 -0.0348
10630TIP3    H153381   5.508   0.138   1.182  0.9352  1.5581 -0.3021
10630TIP3    H253382   5.502   0.107   1.034  0.9933  2.1032 -0.4198
10631TIP3   OH253383   6.196   1.291   5.438  0.0936 -0.3391  0.3117
10631TIP3    H153384   6.104   1.272   5.419  0.3790 -1.5141  0.0287
10631TIP3    H253385   6.194   1.375   5.482 -1.1200 -0.3388  0.2962
10632TIP3   OH253386   5.725   6.708   6.191  0.0293 -0.5590  0.0693
10632TIP3    H153387   5.769   6.791   6.210 -1.8442  1.2907 -2.9047
10632TIP3    H253388   5.672   6.691   6.270 -0.0737  1.4623  0.4862
10633TIP3   OH253389   2.141   0.755   1.522  0.2860  0.6292  0.0868
10633TIP3    H153390   2.130   0.660   1.519 -1.6602  0.8347 -0.6039
10633TIP3    H253391   2.159   0.780   1.431 -0.1930  1.0005  0.0874
10634TIP3   OH253392   3.192   3.401   4.244 -0.4681 -0.1969  0.1116
10634TIP3    H153393   3.143   3.400   4.326 -0.2246  1.7116  0.3115
10634TIP3    H253394   3.131   3.366   4.179 -0.3297 -2.7325  1.2219
10635TIP3   OH253395   1.532   5.311   1.168 -0.0115 -0.5958 -0.1227
10635TIP3    H153396   1.481   5.244   1.213 -1.8579  1.5910  1.2115
10635TIP3    H253397   1.616   5.311   1.213 -0.6215 -0.7899  1.0510
10636TIP3   OH253398   1.218   4.151  11.494  0.3295 -0.0679 -0.3859
10636TIP3    H153399   1.229   4.212  11.567  0.3228 -0.2311 -0.2475
10636TIP3    H253400   1.240   4.066  11.531  0.5409 -0.1225 -0.6336
10637TIP3   OH253401   3.458   3.156  11.272 -0.6706  0.0436  0.2971
10637TIP3    H153402   3.464   3.200  11.187 -1.6921 -1.2756 -0.5060
10637TIP3    H253403   3.512   3.209  11.331 -0.6338  1.4689 -0.9653
10638TIP3   OH253404   5.248   6.569   2.556 -0.2480  0.3009 -0.2368
10638TIP3    H153405   5.300   6.558   2.636  1.4511  0.7068 -1.2533
10638TIP3    H253406   5.236   6.480   2.524  1.9713  0.3229 -1.2863
10639TIP3   OH253407   0.037   1.058   1.550 -0.3241 -0.2567 -0.3826
10639TIP3    H153408   0.083   1.108   1.483  0.5615 -0.1459  0.2862
10639TIP3    H253409  -0.055   1.059   1.522  0.0872 -0.6523 -1.8604
10640TIP3   OH253410   3.810   4.494  11.488 -0.3543  0.0610 -0.5450
10640TIP3    H153411   3.890   4.443  11.471 -1.1139 -1.5121  0.3598
10640TIP3    H253412   3.768   4.500  11.402 -0.0021 -0.4134 -0.7598
10641TIP3   OH253413   2.785   3.188   4.163 -0.3293 -0.4031 -0.2419
10641TIP3    H153414   2.691   3.183   4.177 -0.1906 -2.4080  0.2179
10641TIP3    H253415   2.823   3.179   4.250  0.3150  0.0148 -0.4674
10642TIP3   OH253416   0.264   4.821   2.234  0.3043  0.6435 -0.1408
10642TIP3    H153417   0.254   4.768   2.313 -0.2924  0.4815 -0.3188
10642TIP3    H253418   0.226   4.768   2.164  0.6530  0.8665 -0.5030
10643TIP3   OH253419   5.223   3.747  16.592 -0.3436  0.0941 -0.2044
10643TIP3    H153420   5.189   3.664  16.558  0.6525 -0.0788 -0.8220
10643TIP3    H253421   5.178   3.759  16.676 -1.8893 -0.1183 -0.9626
10644TIP3   OH253422   1.116   3.036   1.470 -0.1275  0.1958 -0.4402
10644TIP3    H153423   1.030   2.995   1.462  0.2432 -0.8979  0.8415
10644TIP3    H253424   1.123   3.092   1.393 -1.3583 -0.8702 -1.3743
10645TIP3   OH253425   6.535   4.303  16.483 -0.1553 -0.2492  0.1929
10645TIP3    H153426   6.596   4.229  16.480  0.7118  0.4688 -0.4973
10645TIP3    H253427   6.451   4.265  16.458  0.0963 -1.1637  0.6791
10646TIP3   OH253428   5.587   3.726   1.200 -0.2251  0.2604  0.0662
10646TIP3    H153429   5.680   3.707   1.188 -0.7277 -0.5631 -3.8030
10646TIP3    H253430   5.573   3.807   1.151 -1.5251  0.4878  0.7849
10647TIP3   OH253431   1.690   3.853  13.501 -0.2299 -0.2384 -0.4495
10647TIP3    H153432   1.717   3.940  13.531  0.2965 -0.3697 -0.5437
10647TIP3    H253433   1.667   3.806  13.581  0.7638 -0.4460 -0.2702
10648TIP3   OH253434   5.707   6.544   3.580 -0.9062  0.2181 -0.2170
10648TIP3    H153435   5.648   6.536   3.655 -0.5983  1.1695  0.1408
10648TIP3    H253436   5.705   6.637   3.558  1.4195  0.5138  0.5882
10649TIP3   OH253437   2.091   5.011  16.387  0.3638 -0.3990 -0.1923
10649TIP3    H153438   2.086   4.915  16.397 -0.5903 -0.4441 -0.8977
10649TIP3    H253439   2.008   5.034  16.346 -0.3479  1.0127  1.9359
10650TIP3   OH253440   3.875   5.570  13.059 -0.4085 -0.5501  0.4908
10650TIP3    H153441   3.792   5.538  13.024 -0.5892  0.5361 -0.1461
10650TIP3    H253442   3.858   5.663  13.077  1.4981  0.5651 -2.6176
10651TIP3   OH253443   3.425   2.095   0.406 -0.3298 -0.2188 -0.1383
10651TIP3    H153444   3.472   2.176   0.427 -0.3643 -0.0296 -0.7808
10651TIP3    H253445   3.334   2.113   0.431 -0.1978 -0.3451  0.4621
10652TIP3   OH253446   0.147   1.084   2.887  0.3222 -0.3714 -0.3761
10652TIP3    H153447   0.204   1.139   2.941 -2.2669  0.6528  1.5080
10652TIP3    H253448   0.107   1.145   2.825  1.3686 -1.1181 -1.8337
10653TIP3   OH253449   4.369   4.003   3.563 -0.0800  0.1631  0.4956
10653TIP3    H153450   4.432   3.935   3.586 -1.0510 -0.9165  0.0373
10653TIP3    H253451   4.361   4.056   3.643 -0.1670 -0.9466  1.2497
10654TIP3   OH253452   5.567   2.434  11.497  0.2366  0.1419  0.3000
10654TIP3    H153453   5.568   2.344  11.531 -0.4926  0.5036  1.2927
10654TIP3    H253454   5.475   2.458  11.495  0.4411  0.9497  0.2152
10655TIP3   OH253455   1.693   1.637  14.255  0.2916  0.1052 -0.2214
10655TIP3    H153456   1.639   1.576  14.304  0.6874 -0.1309 -0.0720
10655TIP3    H253457   1.738   1.583  14.190  1.4198  0.0573  0.5736
10656TIP3   OH253458   6.588   1.808  11.509  0.7282  0.3391  0.6801
10656TIP3    H153459   6.529   1.777  11.440  1.6459 -0.6029  0.3011
10656TIP3    H253460   6.542   1.882  11.548 -1.3351 -1.1309  1.2491
10657TIP3   OH253461   5.250   6.797  13.088 -0.1358 -0.3221 -0.3946
10657TIP3    H153462   5.227   6.887  13.067  0.6641 -0.2161 -0.8649
10657TIP3    H253463   5.323   6.776  13.029  0.7516 -0.7345  0.7909
10658TIP3   OH253464   5.101   2.547   1.180 -0.2313 -0.0384  0.1696
10658TIP3    H153465   5.115   2.453   1.182  0.4250  0.0270 -0.8875
10658TIP3    H253466   5.155   2.581   1.251  1.9347 -0.1899 -1.2995
10659TIP3   OH253467   5.852   3.879  14.483 -0.2421 -0.2833  0.8708
10659TIP3    H153468   5.912   3.911  14.415  0.3574 -2.8422  0.0734
10659TIP3    H253469   5.846   3.951  14.545  0.0420  1.7819 -1.3243
10660TIP3   OH253470   4.181   3.288  15.261 -0.4548  0.0935  0.0545
10660TIP3    H153471   4.183   3.315  15.170 -1.8915 -0.1345 -0.0638
10660TIP3    H253472   4.108   3.337  15.299 -0.2933 -0.3114  0.9166
10661TIP3   OH253473   2.662   5.500   6.233 -0.2976 -0.5248 -0.1310
10661TIP3    H153474   2.627   5.452   6.158 -1.5595 -0.4819  0.4015
10661TIP3    H253475   2.620   5.459   6.309 -0.6957  0.8054  0.4031
10662TIP3   OH253476   1.635   2.100  15.008 -0.6786  0.4606 -0.5186
10662TIP3    H153477   1.590   2.046  15.074 -2.5448  2.1824 -0.2871
10662TIP3    H253478   1.565   2.151  14.967  0.9763  2.8188 -0.6057
10663TIP3   OH253479   3.564   0.681  14.588 -0.2279  0.0633 -0.6377
10663TIP3    H153480   3.640   0.730  14.619  0.7711 -1.5937 -0.3470
10663TIP3    H253481   3.552   0.711  14.497 -0.0795  1.3003 -0.2697
10664TIP3   OH253482   6.008   6.160   3.887 -0.0610  0.4131  0.4998
10664TIP3    H153483   5.940   6.224   3.866 -0.0420  0.3366  0.1961
10664TIP3    H253484   6.005   6.098   3.814  1.2786  1.1680 -0.2113
10665TIP3   OH253485   5.560   3.437   0.248  0.3166  0.1281 -0.0878
10665TIP3    H153486   5.508   3.487   0.311 -1.6605 -1.5831 -0.2577
10665TIP3    H253487   5.560   3.348   0.283 -0.0375 -0.6611 -2.0071
10666TIP3   OH253488   4.698   4.418  11.312  0.2531  0.0675  1.0704
10666TIP3    H153489   4.603   4.403  11.309  0.5023 -1.5626  0.0143
10666TIP3    H253490   4.717   4.429  11.405 -1.1082  1.5880  1.2214
10667TIP3   OH253491   4.532   1.538  12.398  0.3324  0.2463 -0.6938
10667TIP3    H153492   4.610   1.572  12.354  0.1792 -0.6918 -1.7403
10667TIP3    H253493   4.538   1.573  12.487  0.7908  2.0016 -1.3538
10668TIP3   OH253494   4.402   4.000  13.248 -0.4184 -0.2821  0.2738
10668TIP3    H153495   4.434   3.911  13.234  1.3783  0.1511  1.3739
10668TIP3    H253496   4.349   3.994  13.327  1.7135  0.0223  1.7989
10669TIP3   OH253497   6.339   2.210  16.314  0.0759  0.4358 -0.2243
10669TIP3    H153498   6.298   2.291  16.283  0.1228  0.9662  1.0524
10669TIP3    H253499   6.288   2.141  16.272 -0.2320  1.1132 -1.0093
10670TIP3   OH253500   0.892   6.191   1.746  0.2813 -0.2755  0.6131
10670TIP3    H153501   0.846   6.251   1.805 -0.2398  1.3179 -1.2760
10670TIP3    H253502   0.923   6.248   1.675 -1.5317 -2.3739 -2.0749
10671TIP3   OH253503   1.687   0.034  12.168 -0.2998  0.0807  0.1419
10671TIP3    H153504   1.765   0.004  12.122  0.9543 -0.3743  2.4331
10671TIP3    H253505   1.716   0.110  12.219 -1.2975 -0.1997  1.1734
10672TIP3   OH253506   2.170   4.646   0.121  0.0245 -0.1563  0.1479
10672TIP3    H153507   2.233   4.718   0.126  0.8780 -0.9712  2.4188
10672TIP3    H253508   2.118   4.654   0.201 -0.9663 -1.1053 -0.3783
10673TIP3   OH253509   4.375   0.974  16.264  0.5975  0.7524 -0.5321
10673TIP3    H153510   4.427   1.014  16.194 -3.6367  1.7517 -3.5069
10673TIP3    H253511   4.350   0.888  16.229  2.0014 -0.7481  1.8503
10674TIP3   OH253512   6.551   2.649   5.655 -0.3438 -0.9749  0.4643
10674TIP3    H153513   6.517   2.559   5.656 -0.7139 -0.8365  1.3353
10674TIP3    H253514   6.536   2.681   5.744  0.2072 -0.2033  0.2879
10675TIP3   OH253515   1.542   6.440   5.248  0.0008 -0.1272  0.1109
10675TIP3    H153516   1.620   6.468   5.201  0.8889 -2.2144  0.2340
10675TIP3    H253517   1.469   6.468   5.192  0.9472 -0.7211 -1.4861
10676TIP3   OH253518   1.228   3.476  16.370  0.4881  0.0176 -0.6882
10676TIP3    H153519   1.271   3.398  16.403  0.2623  0.4723  0.7211
10676TIP3    H253520   1.279   3.500  16.292  1.1663 -0.9384 -0.5538
10677TIP3   OH253521   6.459   6.041  10.900  0.2841  0.2389 -0.2891
10677TIP3    H153522   6.554   6.038  10.890  0.5349  0.6799  1.5548
10677TIP3    H253523   6.440   5.971  10.963 -0.6277  0.1640 -0.6295
10678TIP3   OH253524   1.806   1.298   1.949  0.2220  0.1440  0.2290
10678TIP3    H153525   1.761   1.215   1.961 -0.3704  0.5730  1.0351
10678TIP3    H253526   1.810   1.309   1.854 -0.3642 -0.4495  0.1272
10679TIP3   OH253527   0.800   1.351  12.161 -0.1815  0.3069 -0.9694
10679TIP3    H153528   0.878   1.333  12.109  0.5924  2.5291 -0.6826
10679TIP3    H253529   0.832   1.363  12.250 -0.6524  2.2667 -1.0149
10680TIP3   OH253530   6.143   5.619  11.601 -0.2823  0.3302  0.3701
10680TIP3    H153531   6.213   5.590  11.543 -0.2974  0.2809  0.3773
10680TIP3    H253532   6.076   5.551  11.595 -0.5334  0.6055 -0.0011
10681TIP3   OH253533   1.417   2.203  13.801  0.4603 -0.3743 -0.4663
10681TIP3    H153534   1.421   2.298  13.789  1.0869 -0.2522  0.5704
10681TIP3    H253535   1.366   2.192  13.881  0.1924 -0.9310 -0.7116
10682TIP3   OH253536   2.907   2.101  13.268 -0.3012  0.0801  0.3334
10682TIP3    H153537   2.924   2.048  13.346 -1.5613 -1.5846 -0.4290
10682TIP3    H253538   2.837   2.160  13.295  1.1355  1.4506  1.2058
10683TIP3   OH253539   0.028   1.279  11.180 -0.2436  0.0526  0.4779
10683TIP3    H153540   0.096   1.272  11.247  0.4704  0.5090 -0.1821
10683TIP3    H253541   0.054   1.216  11.113  0.8276  1.8080 -0.8568
10684TIP3   OH253542   4.866   6.805  11.162  0.0252  0.2478  0.1167
10684TIP3    H153543   4.925   6.878  11.148 -0.4394  0.8428  1.0905
10684TIP3    H253544   4.782   6.834  11.126  0.4953 -0.9411 -2.0823
10685TIP3   OH253545   4.538   5.978   0.320 -0.4307 -0.4642  0.1438
10685TIP3    H153546   4.565   6.068   0.304  0.7230 -0.8970 -0.4985
10685TIP3    H253547   4.553   5.965   0.414 -0.6382  0.0202  0.2457
10686TIP3   OH253548   6.266   0.600   6.358  0.4148 -0.7255 -0.0339
10686TIP3    H153549   6.262   0.696   6.354  0.4526 -0.6428  1.4490
10686TIP3    H253550   6.324   0.575   6.286 -0.6159  0.2684 -1.2527
10687TIP3   OH253551   4.087   5.534  14.110 -0.1622 -0.0513  0.0333
10687TIP3    H153552   4.164   5.531  14.165  0.2042 -1.5202 -0.5091
10687TIP3    H253553   4.112   5.486  14.031 -1.4944 -0.2170 -0.3163
10688TIP3   OH253554   2.363   0.923   3.311  0.3429  0.4833 -0.6064
10688TIP3    H153555   2.394   0.845   3.263  1.5407 -0.0581  0.9556
10688TIP3    H253556   2.443   0.961   3.347 -0.6223 -1.0754  3.7840
10689TIP3   OH253557   2.008   0.690  14.148 -0.4444 -0.1899  0.5575
10689TIP3    H153558   2.099   0.677  14.172 -0.2688  0.8554  0.5062
10689TIP3    H253559   2.007   0.684  14.052 -0.8376 -2.4914  0.6394
10690TIP3   OH253560   1.422   5.932  13.963 -0.1787 -0.4592  0.3025
10690TIP3    H153561   1.409   5.996  14.033 -0.6475 -0.4206  0.1804
10690TIP3    H253562   1.501   5.884  13.989 -0.4325 -0.5402  0.9298
10691TIP3   OH253563   4.842   4.801  14.559  0.0393  0.3817 -0.1877
10691TIP3    H153564   4.774   4.847  14.609  0.2238  0.1187  0.3087
10691TIP3    H253565   4.793   4.749  14.495 -0.2868 -0.5286  0.7762
10692TIP3   OH253566   6.464   2.626   2.439  0.5396 -0.3616 -0.0850
10692TIP3    H153567   6.551   2.594   2.416  1.2478  2.3871 -1.5730
10692TIP3    H253568   6.468   2.720   2.425 -3.6429 -0.3684 -3.9445
10693TIP3   OH253569   6.299   4.014  12.379  0.0080 -0.4566  0.3605
10693TIP3    H153570   6.364   3.998  12.447 -0.1129 -0.8684  0.3809
10693TIP3    H253571   6.309   4.107  12.357  1.1142 -0.6845 -0.1591
10694TIP3   OH253572   4.603   4.944  13.646  0.4794  0.1547  0.2622
10694TIP3    H153573   4.569   4.994  13.720  1.4047  1.6537 -0.2699
10694TIP3    H253574   4.698   4.961  13.647  0.7611 -1.2272 -0.2354
10695TIP3   OH253575   1.314   0.417  13.887  0.0885  0.2377 -0.3452
10695TIP3    H153576   1.391   0.462  13.921  0.5565 -0.2709 -0.7235
10695TIP3    H253577   1.342   0.378  13.804  0.4589 -2.8626  1.0878
10696TIP3   OH253578   5.758   3.934  11.342  0.3867  0.2874  0.5687
10696TIP3    H153579   5.743   3.853  11.293  1.8604  0.0571  0.4501
10696TIP3    H253580   5.681   3.987  11.323  0.0206 -0.5557 -0.4481
10697TIP3   OH253581   0.548   5.780   4.930  0.1294  0.1930  0.3851
10697TIP3    H153582   0.517   5.798   4.841 -0.7582 -0.7434  0.4880
10697TIP3    H253583   0.638   5.750   4.918 -0.6080 -1.8739 -0.4351
10698TIP3   OH253584   0.961   0.812  13.307 -0.4157  0.0366  0.0436
10698TIP3    H153585   0.889   0.791  13.248 -0.7597  1.5690 -0.1021
10698TIP3    H253586   1.038   0.775  13.264 -0.8064  0.2545 -0.8648
10699TIP3   OH253587   5.532   6.840  14.245  0.4273  0.1650 -0.4131
10699TIP3    H153588   5.600   6.792  14.293 -0.4008 -0.7119 -0.1005
10699TIP3    H253589   5.473   6.872  14.313  0.8078  1.4302 -0.6371
10700TIP3   OH253590   5.723   6.577  14.496  0.1915 -0.4048 -0.3170
10700TIP3    H153591   5.645   6.538  14.455 -0.1794  1.3930 -1.4257
10700TIP3    H253592   5.796   6.530  14.456 -0.2554 -0.2780 -1.3389
10701TIP3   OH253593   5.457   4.055   1.477 -0.0349 -0.2474 -0.5830
10701TIP3    H153594   5.538   4.009   1.457  1.6849  1.6931  1.3218
10701TIP3    H253595   5.421   4.009   1.553  0.7892  0.4669  0.2690
10702TIP3   OH253596   5.643   2.813   0.562  0.2535 -0.0954  0.1998
10702TIP3    H153597   5.728   2.856   0.570  0.4304 -0.1086 -1.3221
10702TIP3    H253598   5.605   2.818   0.650  1.5303  0.5179  0.7393
10703TIP3   OH253599   0.770   1.351  12.478  0.8764 -0.5289 -0.1934
10703TIP3    H153600   0.699   1.321  12.421  1.5678 -0.8487 -0.9107
10703TIP3    H253601   0.828   1.275  12.484  1.6253  0.0260 -0.3672
10704TIP3   OH253602   3.633   5.375   4.169  0.0266  0.1549  0.0791
10704TIP3    H153603   3.653   5.287   4.200 -0.0675 -0.3221 -1.1501
10704TIP3    H253604   3.570   5.409   4.233 -0.3275 -0.8567  0.2945
10705TIP3   OH253605   2.288   2.814   3.240  0.1274 -0.2334 -0.6329
10705TIP3    H153606   2.288   2.727   3.202 -0.5938  0.3037 -1.9292
10705TIP3    H253607   2.279   2.873   3.165  3.3062  1.1394 -0.0903
10706TIP3   OH253608   1.701   5.110   1.530 -0.1646  0.1107 -0.3901
10706TIP3    H153609   1.727   5.160   1.453  1.0655 -1.0540 -0.7612
10706TIP3    H253610   1.668   5.027   1.495 -2.3256  0.6430  0.2032
10707TIP3   OH253611   0.103   0.065  12.173  0.4337 -0.2581  0.2368
10707TIP3    H153612   0.182   0.098  12.129  1.0237 -1.7901  0.0819
10707TIP3    H253613   0.096  -0.026  12.144 -0.5376 -0.5943  1.4381
10708TIP3   OH253614   0.518   4.797   2.071  0.1367  0.3124  0.2192
10708TIP3    H153615   0.550   4.878   2.031 -0.2806  0.5776  0.4128
10708TIP3    H253616   0.457   4.827   2.139 -0.7626 -0.1764 -0.3488
10709TIP3   OH253617   4.668   1.027  13.709 -0.0511 -0.2201 -0.7040
10709TIP3    H153618   4.751   1.010  13.664 -0.1879 -0.1226 -0.9985
10709TIP3    H253619   4.676   0.982  13.792 -0.9174 -2.9286 -1.9696
10710TIP3   OH253620   2.112   3.163   6.427  0.8661  0.4815 -0.6103
10710TIP3    H153621   2.037   3.219   6.447 -1.4334 -2.2332 -0.9845
10710TIP3    H253622   2.174   3.221   6.382 -1.7759  2.5035 -1.9558
10711TIP3   OH253623   6.677   0.138   4.552 -0.7694  0.3430  0.1224
10711TIP3    H153624   6.740   0.200   4.589 -0.9887  0.6654 -0.0385
10711TIP3    H253625   6.631   0.188   4.484 -0.7266 -0.0916 -0.2288
10712TIP3   OH253626   3.454   3.252  13.009  0.4051  0.5676  0.6821
10712TIP3    H153627   3.430   3.306  12.933  0.0246 -0.6251 -0.0634
10712TIP3    H253628   3.371   3.225  13.047  0.5789 -0.1553  0.5648
10713TIP3   OH253629   5.018   2.412  15.933 -0.4388 -1.0191 -0.2127
10713TIP3    H153630   5.066   2.350  15.987  0.8043  0.3192  0.2979
10713TIP3    H253631   5.059   2.405  15.847  0.2310 -0.4088  0.0373
10714TIP3   OH253632   0.087   3.232   5.295 -0.3129 -0.3451 -0.2057
10714TIP3    H153633   0.047   3.292   5.232 -1.8654 -0.7963  0.3246
10714TIP3    H253634   0.101   3.285   5.373 -2.4576 -0.8172  0.5542
10715TIP3   OH253635   6.571   2.052   0.038 -0.0565  0.2624  0.1200
10715TIP3    H153636   6.559   2.146   0.036  0.0170  0.3071  1.3586
10715TIP3    H253637   6.592   2.031   0.129 -1.6533 -1.1481  0.2184
10716TIP3   OH253638   6.727   2.499   2.705  0.7629  0.2643  0.0238
10716TIP3    H153639   6.760   2.578   2.748 -3.4807  2.7599 -0.7980
10716TIP3    H253640   6.671   2.458   2.770  1.1171 -0.8122 -0.3307
10717TIP3   OH253641   2.791   4.575  15.427 -0.1497 -0.3526  0.5248
10717TIP3    H153642   2.718   4.628  15.396 -0.4858 -0.2608  1.4180
10717TIP3    H253643   2.749   4.501  15.472  0.3132 -0.6296  0.5106
10718TIP3   OH253644   4.208   0.799  11.542  0.5290  0.2385 -0.0455
10718TIP3    H153645   4.263   0.850  11.601 -1.4206  0.4653  1.6894
10718TIP3    H253646   4.154   0.745  11.601  0.7736 -2.0018 -1.7360
10719TIP3   OH253647   2.915   1.410  15.013 -0.3744 -0.8706  0.0868
10719TIP3    H153648   2.830   1.452  15.028  0.2998  1.0074 -0.9479
10719TIP3    H253649   2.905   1.365  14.929 -0.9975 -2.5739  1.0397
10720TIP3   OH253650   3.412   2.355  12.562 -0.2825  0.4752 -0.5468
10720TIP3    H153651   3.437   2.324  12.475 -0.7909 -0.0155 -0.5283
10720TIP3    H253652   3.377   2.277  12.605 -0.0227  0.7154  0.1003
10721TIP3   OH253653   3.094   0.526  14.540  0.8449 -0.2606  0.2801
10721TIP3    H153654   3.027   0.570  14.591 -1.0987 -0.5311 -1.8801
10721TIP3    H253655   3.122   0.592  14.476 -0.1099 -1.2534 -1.2180
10722TIP3   OH253656   0.807   1.176  16.436  0.1359 -0.6184 -0.2097
10722TIP3    H153657   0.780   1.146  16.523 -0.3784 -0.8170 -0.4381
10722TIP3    H253658   0.879   1.118  16.412  0.3762 -0.4705  0.1443
10723TIP3   OH253659   3.014   2.309  14.389 -0.3484  0.2324  0.6283
10723TIP3    H153660   3.069   2.242  14.349 -1.8371 -0.6085 -0.0959
10723TIP3    H253661   3.031   2.300  14.483  0.0658 -0.6150  0.4842
10724TIP3   OH253662   6.833   2.012   2.874 -0.4586  0.6690  0.2737
10724TIP3    H153663   6.779   2.045   2.802 -1.5529 -1.3655  0.0649
10724TIP3    H253664   6.921   2.043   2.855 -0.5418 -0.4597 -2.4412
10725TIP3   OH253665   6.088   0.950   0.065 -0.2203  0.6000  0.2748
10725TIP3    H153666   6.177   0.966   0.096 -0.3332  2.8113 -0.4240
10725TIP3    H253667   6.098   0.881  -0.001  0.9916  0.8927  0.1292
10726TIP3   OH253668   2.456   3.228   3.049 -0.3336  0.4073 -0.4163
10726TIP3    H153669   2.525   3.265   2.994  0.0636  0.0863 -0.1433
10726TIP3    H253670   2.488   3.141   3.072 -0.8475  0.2419 -0.3096
10727TIP3   OH253671   5.674   5.762  11.452 -0.0070 -0.2802 -0.3234
10727TIP3    H153672   5.678   5.773  11.547  1.3208 -0.8057 -0.2991
10727TIP3    H253673   5.715   5.677  11.436  0.3248  0.0753 -1.4173
10728TIP3   OH253674   1.259   1.889  12.609 -0.4242  0.0895 -0.0071
10728TIP3    H153675   1.279   1.800  12.578  0.3676  0.1535  0.2807
10728TIP3    H253676   1.292   1.946  12.540 -0.3297  0.1750  0.1079
10729TIP3   OH253677   2.974   2.171   3.282  0.0092 -0.7011 -0.0834
10729TIP3    H153678   2.885   2.206   3.289  0.3072 -0.1102  0.8546
10729TIP3    H253679   3.001   2.194   3.193 -0.2468  0.4014  0.1077
10730TIP3   OH253680   1.317   2.340   3.981 -0.5043  0.7374 -0.2609
10730TIP3    H153681   1.373   2.364   3.907 -0.1377 -0.1450 -0.2785
10730TIP3    H253682   1.311   2.420   4.033  0.4119  0.9720 -0.4975
10731TIP3   OH253683   3.333   2.497  16.513 -0.0437  0.0268  0.0992
10731TIP3    H153684   3.369   2.548  16.440 -3.8085  3.7131  0.4233
10731TIP3    H253685   3.252   2.460  16.477  1.3241 -4.0395  0.6548
10732TIP3   OH253686   3.328   2.944   5.442  1.1240 -0.0468 -0.3118
10732TIP3    H153687   3.274   2.932   5.521 -0.3475 -0.7028 -1.3685
10732TIP3    H253688   3.298   3.026   5.405  1.7826  0.2341 -0.2405
10733TIP3   OH253689   2.300   2.065   0.392  0.8093  0.5295 -0.1153
10733TIP3    H153690   2.211   2.032   0.382  1.0677  0.3430 -2.5073
10733TIP3    H253691   2.343   2.001   0.448  0.1238 -0.8865 -1.1195
10734TIP3   OH253692   4.855   5.749  16.939 -0.0607  0.4889  0.1188
10734TIP3    H153693   4.857   5.837  16.902  3.5056  0.7000  0.4709
10734TIP3    H253694   4.865   5.762  17.033  1.2117 -0.2694  0.1111
10735TIP3   OH253695   5.264   0.997  14.823  0.3711 -0.5398  0.2312
10735TIP3    H153696   5.240   1.030  14.910 -1.0032  0.2197 -0.4035
10735TIP3    H253697   5.346   1.041  14.803  0.1825  0.0589  0.7312
10736TIP3   OH253698   5.772   4.900  15.260  0.1764 -0.3660 -0.6355
10736TIP3    H153699   5.783   4.990  15.231 -0.3126  0.4073  1.3740
10736TIP3    H253700   5.726   4.857  15.188 -0.5104  1.2731 -1.2273
10737TIP3   OH253701   3.898   0.850  10.794  0.3690 -0.7567  0.1943
10737TIP3    H153702   3.888   0.757  10.771  1.1172 -1.2220  1.6167
10737TIP3    H253703   3.867   0.855  10.885 -0.3124  0.5306 -0.0964
10738TIP3   OH253704   3.191   3.852  13.400  0.2603 -0.2574  0.5418
10738TIP3    H153705   3.095   3.842  13.396  0.1803  0.8188 -1.3575
10738TIP3    H253706   3.210   3.859  13.494 -1.6077  0.1350  0.9390
10739TIP3   OH253707   6.752   1.498   6.599  0.5638 -0.6579 -0.2682
10739TIP3    H153708   6.830   1.475   6.649  0.3089 -1.4887 -0.2260
10739TIP3    H253709   6.764   1.454   6.515  0.4002 -0.3226 -0.4676
10740TIP3   OH253710   4.108   3.602   4.981 -0.2306 -0.2285  0.3697
10740TIP3    H153711   4.109   3.662   4.907 -0.1876 -1.1806 -0.4326
10740TIP3    H253712   4.087   3.656   5.056  2.2809  1.2386  0.1097
10741TIP3   OH253713   2.975   5.917   3.552 -0.5345  0.1983  0.3583
10741TIP3    H153714   2.995   5.998   3.506 -0.4985 -0.0753 -0.1247
10741TIP3    H253715   2.986   5.937   3.644  1.1401  0.2872  0.1740
10742TIP3   OH253716   0.305   0.831  14.695  0.5432  0.1706 -0.0089
10742TIP3    H153717   0.324   0.741  14.669  0.5997 -0.3671  1.7223
10742TIP3    H253718   0.212   0.843  14.674 -0.4257 -1.5074  2.7129
10743TIP3   OH253719   3.003   4.433  10.338 -0.2780  0.1368 -0.2487
10743TIP3    H153720   3.032   4.373  10.268 -0.5769 -1.2677  0.7976
10743TIP3    H253721   2.941   4.382  10.390 -2.1871  2.0412 -0.5130
10744TIP3   OH253722   4.064   1.233   4.126  0.0079 -0.4782 -0.1277
10744TIP3    H153723   3.970   1.238   4.109  0.3141  0.8390 -1.8144
10744TIP3    H253724   4.082   1.140   4.139 -1.4303 -0.8222 -0.4604
10745TIP3   OH253725   5.835   3.653  14.322 -0.1729 -0.8561 -0.8593
10745TIP3    H153726   5.766   3.674  14.259 -1.6963 -0.6252  0.8081
10745TIP3    H253727   5.829   3.723  14.387  2.4117 -0.1980 -1.2252
10746TIP3   OH253728   5.477   2.368  15.294 -0.3395 -0.0110  0.0181
10746TIP3    H153729   5.507   2.314  15.220  0.0636  1.6451 -1.0924
10746TIP3    H253730   5.480   2.457  15.260 -0.6162  0.7538  1.9185
10747TIP3   OH253731   4.168   6.390   2.859  0.2131 -0.8209 -0.0839
10747TIP3    H153732   4.251   6.432   2.834  0.9729 -1.9182  0.4874
10747TIP3    H253733   4.154   6.418   2.950  0.0053 -0.7190 -0.1472
10748TIP3   OH253734   1.498   0.731  12.276  0.4821 -0.3813 -0.0816
10748TIP3    H153735   1.589   0.722  12.249  0.5673  1.2087 -0.3842
10748TIP3    H253736   1.462   0.799  12.219 -0.4345  0.2071  1.1456
10749TIP3   OH253737   0.621   5.901  10.851 -0.6255 -0.4057 -0.0747
10749TIP3    H153738   0.650   5.826  10.800 -0.4746 -1.6454  1.7401
10749TIP3    H253739   0.686   5.909  10.921 -1.9084 -0.0711  1.1298
10750TIP3   OH253740   4.588   6.634   5.588 -0.2150  0.4910 -0.2067
10750TIP3    H153741   4.502   6.677   5.583  0.1681  1.3834  0.5985
10750TIP3    H253742   4.584   6.581   5.668  0.2846  1.2384  0.3255
10751TIP3   OH253743   1.262   1.622   5.570 -0.0880 -0.4838  0.0055
10751TIP3    H153744   1.270   1.718   5.572 -0.4593 -0.4651  0.9139
10751TIP3    H253745   1.169   1.605   5.580  0.1364 -0.9646  1.6006
10752TIP3   OH253746   6.123   6.233  11.194  0.4185 -0.1600 -0.0014
10752TIP3    H153747   6.209   6.273  11.205  1.2773 -1.9151  0.0104
10752TIP3    H253748   6.106   6.189  11.278 -0.0712 -0.5580 -0.3015
10753TIP3   OH253749   2.121   3.205  16.572  0.3876 -0.3372  0.2056
10753TIP3    H153750   2.074   3.288  16.579  0.3999 -0.0484 -2.3053
10753TIP3    H253751   2.205   3.221  16.615 -0.1055  0.5230  0.8730
10754TIP3   OH253752   6.575   2.366   1.645 -0.0325  0.5812 -0.1292
10754TIP3    H153753   6.512   2.294   1.647 -1.0979  1.4863  1.1964
10754TIP3    H253754   6.576   2.396   1.555 -2.6423  1.4620  0.0678
10755TIP3   OH253755   6.110   5.018  16.219 -0.7613 -0.0477 -0.0098
10755TIP3    H153756   6.023   4.993  16.187 -0.3419 -1.7276  0.0670
10755TIP3    H253757   6.096   5.099  16.268 -1.8480  1.1705 -2.1979
10756TIP3   OH253758   0.687   2.530  14.656  0.9111  0.2627  0.2568
10756TIP3    H153759   0.606   2.574  14.633  1.4984  0.3997 -1.6738
10756TIP3    H253760   0.662   2.470  14.727 -0.8781  0.2201 -0.3597
10757TIP3   OH253761   1.602   3.643  16.457 -0.0901 -0.0212 -0.0978
10757TIP3    H153762   1.664   3.714  16.470 -1.6058  1.3262  0.1293
10757TIP3    H253763   1.545   3.646  16.533 -0.2441 -1.4423 -0.1289
10758TIP3   OH253764   4.912   0.587   3.357  0.0513  0.2372  0.3848
10758TIP3    H153765   4.964   0.525   3.408  0.0399  0.9698  1.3120
10758TIP3    H253766   4.831   0.596   3.406 -0.1311  0.6391  0.0144
10759TIP3   OH253767   6.523   6.676  15.564 -0.4085  0.5809 -0.4388
10759TIP3    H153768   6.492   6.711  15.480 -1.3252  0.3954 -0.1947
10759TIP3    H253769   6.586   6.741  15.595  1.7382 -0.4418 -2.3404
10760TIP3   OH253770   0.635   1.293   4.630 -0.2805  0.4238 -0.3526
10760TIP3    H153771   0.602   1.383   4.625  0.4809  0.7245 -0.1837
10760TIP3    H253772   0.705   1.297   4.695 -0.3064 -0.3198 -0.2678
10761TIP3   OH253773   1.858   4.876  13.733 -0.2068 -0.5055 -0.3962
10761TIP3    H153774   1.937   4.865  13.786 -0.4484  1.2113  0.3750
10761TIP3    H253775   1.890   4.892  13.644  0.4015  1.6358  0.1673
10762TIP3   OH253776   4.938   6.551   5.106 -0.3886 -0.1977  0.1778
10762TIP3    H153777   4.847   6.578   5.116 -1.2458 -2.5901 -0.4186
10762TIP3    H253778   4.957   6.567   5.013 -1.1038 -2.0804 -0.3284
10763TIP3   OH253779   4.654   0.313  11.392 -0.2717  0.1039 -0.3173
10763TIP3    H153780   4.718   0.251  11.427  0.1704  0.4806 -0.4503
10763TIP3    H253781   4.704   0.366  11.330 -0.2379  1.6646  0.9830
10764TIP3   OH253782   4.724   3.736   6.630  0.2217 -0.0421  0.5475
10764TIP3    H153783   4.629   3.732   6.642  0.2002  1.7468  1.1612
10764TIP3    H253784   4.738   3.698   6.543 -1.2616  1.2925 -0.3392
10765TIP3   OH253785   6.685   1.513   1.131 -0.0420  0.0938  0.2982
10765TIP3    H153786   6.673   1.599   1.090  0.3661  0.3087  0.6264
10765TIP3    H253787   6.610   1.462   1.101 -0.7268  0.8155  0.7381
10766TIP3   OH253788   1.553   5.397  16.623 -0.1714  0.4748  0.6196
10766TIP3    H153789   1.472   5.415  16.672 -1.4964  0.9408 -1.5613
10766TIP3    H253790   1.545   5.305  16.598  0.3437  0.3217  1.0201
10767TIP3   OH253791   4.162   0.595   1.252 -0.1147  0.4085  0.4647
10767TIP3    H153792   4.113   0.676   1.267 -1.2291  0.0633 -1.0654
10767TIP3    H253793   4.225   0.617   1.183 -2.0806 -0.5832 -1.7548
10768TIP3   OH253794   2.905   0.642   4.534  0.2362 -0.2231  0.2936
10768TIP3    H153795   2.941   0.665   4.620  0.3958  2.1194 -0.3366
10768TIP3    H253796   2.810   0.648   4.546  0.1933 -1.2977  0.6296
10769TIP3   OH253797   0.535   2.536   0.251 -0.5040 -0.1257  0.1835
10769TIP3    H153798   0.574   2.621   0.232  0.2007 -0.0777  1.6662
10769TIP3    H253799   0.607   2.485   0.289 -1.6549 -0.2997  2.2923
10770TIP3   OH253800   6.232   5.471   5.498 -0.0722 -0.4231 -0.3907
10770TIP3    H153801   6.327   5.460   5.501 -0.0415 -0.0331  0.3809
10770TIP3    H253802   6.212   5.522   5.576 -1.1268 -1.9894  0.4117
10771TIP3   OH253803   6.205   1.092   5.839  0.3743  0.0056  0.8634
10771TIP3    H153804   6.165   1.005   5.841  1.2180 -0.4482  4.0350
10771TIP3    H253805   6.295   1.077   5.809  0.5019 -0.2359  1.3536
10772TIP3   OH253806   6.349   4.652  14.004 -0.9361  0.0462  0.3112
10772TIP3    H153807   6.376   4.737  14.036 -1.6014  0.0328  0.9247
10772TIP3    H253808   6.270   4.669  13.953 -0.2461 -0.0149 -0.8315
10773TIP3   OH253809   3.777   2.502   4.726 -0.2327  0.8394 -0.1150
10773TIP3    H153810   3.719   2.469   4.795  2.3928 -3.5220  0.3900
10773TIP3    H253811   3.817   2.580   4.763 -1.6076  0.7196  1.7569
10774TIP3   OH253812   6.093   2.746  14.206  0.6207  0.2422 -0.0864
10774TIP3    H153813   6.123   2.755  14.115  0.6827 -0.8760 -0.1834
10774TIP3    H253814   6.005   2.709  14.199  0.3642  0.7630  0.2984
10775TIP3   OH253815   2.181   4.484   3.337 -0.0992  0.1508 -0.1307
10775TIP3    H153816   2.100   4.493   3.287 -0.8433 -1.2944  0.7460
10775TIP3    H253817   2.208   4.574   3.356 -1.6573  0.6668 -0.2031
10776TIP3   OH253818   0.621   3.190   1.246  0.0445  0.1860 -0.1287
10776TIP3    H153819   0.661   3.276   1.243  0.5161 -0.0448 -0.6790
10776TIP3    H253820   0.646   3.149   1.163 -0.1984 -0.4682  0.1116
10777TIP3   OH253821   1.579   5.833  12.187  0.2210 -0.1650  0.6655
10777TIP3    H153822   1.643   5.883  12.137 -0.7663  2.1082  1.5620
10777TIP3    H253823   1.630   5.760  12.223  1.5246 -0.3473 -1.3817
10778TIP3   OH253824   5.328   2.487   2.328  0.3546 -0.1843 -0.4307
10778TIP3    H153825   5.282   2.459   2.250 -0.7733  0.7037 -0.1180
10778TIP3    H253826   5.318   2.414   2.390 -0.5488 -0.0575 -0.4116
10779TIP3   OH253827   2.273   6.096  15.986 -0.0845 -0.3942 -0.5531
10779TIP3    H153828   2.329   6.106  15.909 -0.8400 -0.2806 -1.1081
10779TIP3    H253829   2.325   6.044  16.047  0.2961 -1.0374 -1.3998
10780TIP3   OH253830   1.854   1.245   2.276  0.4584  0.0103  0.0780
10780TIP3    H153831   1.806   1.164   2.292 -0.4165  0.6509  0.8006
10780TIP3    H253832   1.930   1.240   2.335 -0.1611  0.1788  0.9124
10781TIP3   OH253833   3.161   3.270  13.973  0.2899  0.2081 -0.2019
10781TIP3    H153834   3.120   3.342  13.925  0.7530 -0.6161 -1.9272
10781TIP3    H253835   3.236   3.245  13.920 -0.5498 -2.3345 -0.3383
10782TIP3   OH253836   1.998   6.279   1.811 -0.0449 -0.0270 -0.1639
10782TIP3    H153837   1.944   6.314   1.740 -0.7253  0.5725  0.6191
10782TIP3    H253838   2.029   6.357   1.858 -2.2906 -0.3687  2.1256
10783TIP3   OH253839   5.780   6.761  13.686  0.1052  0.4806 -0.0836
10783TIP3    H153840   5.809   6.848  13.660 -1.8746  1.0307 -0.6556
10783TIP3    H253841   5.820   6.747  13.772 -1.1549  2.8557  0.9951
10784TIP3   OH253842   4.377   3.120   5.726 -0.4998  0.3947 -0.2455
10784TIP3    H153843   4.460   3.118   5.678 -0.5166 -1.4769 -0.2765
10784TIP3    H253844   4.400   3.158   5.811  0.4090 -0.0911 -0.2546
10785TIP3   OH253845   1.584   6.570   4.586 -0.2690 -0.8654 -0.0990
10785TIP3    H153846   1.526   6.606   4.652 -1.7594 -2.3248 -0.5452
10785TIP3    H253847   1.529   6.558   4.509  1.3154  0.3938 -1.5249
10786TIP3   OH253848   6.149   1.487   4.378  0.2316 -0.4633  0.2736
10786TIP3    H153849   6.143   1.426   4.305 -0.4585 -1.4799  1.1587
10786TIP3    H253850   6.067   1.477   4.425  0.1638  1.0441  0.5422
10787TIP3   OH253851   4.169   3.221   5.566  0.3684 -0.4416  0.0950
10787TIP3    H153852   4.129   3.291   5.619  0.5163  1.0162 -1.6143
10787TIP3    H253853   4.260   3.217   5.597  1.3434  2.5208 -1.8863
10788TIP3   OH253854   2.280   2.752   5.593 -0.1132 -0.2024  0.2670
10788TIP3    H153855   2.337   2.693   5.642  0.9596  2.0206  1.8514
10788TIP3    H253856   2.291   2.837   5.635 -1.7267  1.1310 -1.7889
10789TIP3   OH253857   0.966   4.940  16.637  0.4528  0.2333 -0.1897
10789TIP3    H153858   0.898   4.936  16.570  0.3745 -1.1689 -0.0695
10789TIP3    H253859   1.020   5.015  16.613 -2.4319  2.9590  1.0006
10790TIP3   OH253860   3.468   3.758   0.829 -0.0158  1.0344  0.3152
10790TIP3    H153861   3.560   3.732   0.818 -0.2018 -0.1396  1.3428
10790TIP3    H253862   3.463   3.789   0.919 -1.0822 -1.0894  1.0474
10791TIP3   OH253863   5.498   2.450   2.797 -0.7689 -0.3724 -0.3757
10791TIP3    H153864   5.549   2.434   2.719  1.3426 -2.1773  1.2429
10791TIP3    H253865   5.540   2.525   2.839 -0.4661 -0.8380  0.1567
10792TIP3   OH253866   3.960   6.763   5.512 -0.0104  0.4104  0.0525
10792TIP3    H153867   4.007   6.698   5.461 -0.3440  1.0495 -1.1062
10792TIP3    H253868   3.906   6.809   5.448  0.1788  1.7897  0.8489
10793TIP3   OH253869   0.106   2.576  12.563 -1.1450 -0.1425  0.2030
10793TIP3    H153870   0.085   2.493  12.521 -1.0637  0.0140 -0.1498
10793TIP3    H253871   0.193   2.563  12.600 -2.0364 -0.9850  2.1662
10794TIP3   OH253872   4.483   3.195  14.838 -0.2527  0.0378  0.2595
10794TIP3    H153873   4.514   3.197  14.747  0.5332  1.4063  0.5321
10794TIP3    H253874   4.520   3.115  14.875 -0.8642 -0.7116 -0.7122
10795TIP3   OH253875   4.057   0.759   2.191 -0.3362  0.2311 -0.3489
10795TIP3    H153876   4.046   0.767   2.286  1.1830 -2.8991  0.2336
10795TIP3    H253877   3.968   0.765   2.156 -0.7915  2.9683  1.0323
10796TIP3   OH253878   5.362   2.169   6.188  0.4821 -0.3318 -0.6220
10796TIP3    H153879   5.306   2.096   6.215  1.1330 -0.0495  1.7804
10796TIP3    H253880   5.312   2.247   6.212  1.1372 -0.0575 -0.1046
10797TIP3   OH253881   4.670   3.215   3.069 -0.1669  0.3424 -0.0868
10797TIP3    H153882   4.696   3.133   3.112 -1.9108 -0.4155 -0.3941
10797TIP3    H253883   4.710   3.284   3.124  1.6414 -0.6743 -0.0408
10798TIP3   OH253884   5.187   0.559  15.748  0.2431 -0.3082  0.6908
10798TIP3    H153885   5.091   0.555  15.758  0.3287 -1.8485  1.1791
10798TIP3    H253886   5.200   0.605  15.665 -0.9154 -0.0404  0.6304
10799TIP3   OH253887   4.819   5.930  14.745  0.1783 -0.3598  0.6774
10799TIP3    H153888   4.909   5.935  14.713 -0.1107 -1.4542 -0.3605
10799TIP3    H253889   4.819   5.857  14.807  0.2402  0.3545  1.5375
10800TIP3   OH253890   2.480   1.869   2.474  0.1352  0.0807 -0.1716
10800TIP3    H153891   2.482   1.830   2.562  0.4027  0.9590  0.2185
10800TIP3    H253892   2.531   1.809   2.420  2.9895  1.2777  1.0155
10801TIP3   OH253893   4.671   0.320  11.887 -0.1716 -0.1896 -0.1873
10801TIP3    H153894   4.618   0.362  11.819  1.4442  1.6695 -0.3931
10801TIP3    H253895   4.685   0.231  11.856 -1.7618 -0.2259 -0.9085
10802TIP3   OH253896   3.180   4.738  12.412 -0.0272  0.7041 -0.1957
10802TIP3    H153897   3.274   4.732  12.392  0.2162 -1.3209  1.2252
10802TIP3    H253898   3.137   4.721  12.328  0.9182 -0.6806 -0.4433
10803TIP3   OH253899   6.253   5.635   3.636  0.0124  0.3835 -0.0318
10803TIP3    H153900   6.338   5.676   3.618  0.7164  0.8281  3.5519
10803TIP3    H253901   6.195   5.707   3.657 -0.4153 -0.0948  0.4580
10804TIP3   OH253902   5.740   2.896   3.316 -0.2669 -0.3323 -0.4742
10804TIP3    H153903   5.766   2.950   3.242  0.0104 -0.9229 -0.8111
10804TIP3    H253904   5.703   2.817   3.277  1.1137 -1.2378 -0.0042
10805TIP3   OH253905   1.105   2.883   5.980 -0.0881  0.3268  0.2817
10805TIP3    H153906   1.168   2.859   5.912 -3.0317 -1.8866 -1.9108
10805TIP3    H253907   1.148   2.954   6.028  2.6801  1.2674 -3.1538
10806TIP3   OH253908   3.848   2.873   2.173  0.5912  0.2960 -0.1879
10806TIP3    H153909   3.756   2.889   2.150  1.0892  2.1031 -1.0777
10806TIP3    H253910   3.861   2.780   2.155 -0.5859  0.4125 -1.8360
10807TIP3   OH253911   0.367   0.657   1.188 -0.1904  0.4649  0.3641
10807TIP3    H153912   0.353   0.752   1.194  2.0674  0.9138 -0.5795
10807TIP3    H253913   0.371   0.639   1.095  1.4132 -0.1878  0.5243
10808TIP3   OH253914   4.592   3.649  16.405  0.2380  0.2342 -0.1472
10808TIP3    H153915   4.524   3.668  16.469  0.1073  0.7687 -0.4356
10808TIP3    H253916   4.589   3.554  16.394 -0.3689  0.2405 -0.0556
10809TIP3   OH253917   4.954   2.642  11.832  0.9539 -0.2383 -0.1170
10809TIP3    H153918   4.898   2.720  11.831  1.6473  0.2724  0.0279
10809TIP3    H253919   4.947   2.606  11.743  0.6403 -0.0017 -0.1888
10810TIP3   OH253920   1.029   5.480   6.481 -0.5519  0.2555  0.0239
10810TIP3    H153921   0.943   5.518   6.464 -0.8517 -0.1243  0.6466
10810TIP3    H253922   1.016   5.423   6.557  0.9651  2.8321  2.3893
10811TIP3   OH253923   2.386   4.648   3.415 -0.3119 -0.1072 -0.5303
10811TIP3    H153924   2.427   4.609   3.337  0.9441 -0.3470  0.2188
10811TIP3    H253925   2.438   4.727   3.431  0.0666 -0.5793  0.6296
10812TIP3   OH253926   6.052   0.890  11.293 -0.3692 -0.1309  0.6656
10812TIP3    H153927   5.970   0.919  11.253 -1.6713 -0.0342  3.1532
10812TIP3    H253928   6.117   0.954  11.265 -1.4533  0.6009 -0.2618
10813TIP3   OH253929   2.620   3.503   2.343 -0.2943  0.0191  0.2094
10813TIP3    H153930   2.578   3.588   2.331  0.3514  0.1810 -1.0066
10813TIP3    H253931   2.707   3.524   2.378  0.0249 -0.0968 -0.4899
10814TIP3   OH253932   4.757   5.621  11.337 -0.4101  0.0379 -0.9650
10814TIP3    H153933   4.766   5.527  11.323 -0.3859 -0.2169  0.5687
10814TIP3    H253934   4.811   5.661  11.269 -0.4524 -1.0567 -1.6512
10815TIP3   OH253935   2.247   1.656   3.371  0.2898 -0.4878 -0.5160
10815TIP3    H153936   2.169   1.621   3.328 -0.5051  0.0223  0.4891
10815TIP3    H253937   2.319   1.605   3.334 -0.4554 -0.6467 -1.8079
10816TIP3   OH253938   1.637   0.852   3.390 -0.4360  0.4638  0.1700
10816TIP3    H153939   1.718   0.902   3.388 -0.9948  1.3942 -1.9433
10816TIP3    H253940   1.654   0.775   3.337 -0.8425  0.5147 -0.0380
10817TIP3   OH253941   4.143   6.396   3.124 -0.2890 -0.0096  0.4466
10817TIP3    H153942   4.106   6.471   3.170 -1.1703  0.4469 -0.9232
10817TIP3    H253943   4.086   6.323   3.148 -0.1897  0.0327  0.8053
10818TIP3   OH253944   2.688   0.284   3.787 -0.2154  0.1868 -0.1412
10818TIP3    H153945   2.656   0.356   3.732 -0.1449 -0.3097 -0.8611
10818TIP3    H253946   2.720   0.219   3.724  1.6703  0.3939  0.5236
10819TIP3   OH253947   2.275   5.919  11.401 -0.1944  0.1710  0.1778
10819TIP3    H153948   2.285   5.870  11.319 -0.5456 -2.8945  1.8458
10819TIP3    H253949   2.356   5.904  11.448 -0.4627  0.9512  0.9138
10820TIP3   OH253950   5.651   1.013  10.962  0.3466 -0.6902 -0.1533
10820TIP3    H153951   5.700   1.095  10.970  0.8231 -0.8915 -0.8863
10820TIP3    H253952   5.578   1.035  10.904  0.3388 -0.7213 -0.1555
10821TIP3   OH253953   3.050   3.726   2.679  0.0260 -0.2071  0.1767
10821TIP3    H153954   3.122   3.766   2.728 -0.9554  2.6195 -0.4740
10821TIP3    H253955   3.003   3.674   2.743  0.4358  1.0516  1.5670
10822TIP3   OH253956   2.887   0.027   0.439  0.2205  0.3678 -0.0193
10822TIP3    H153957   2.814  -0.026   0.407 -0.7299  1.3743  0.4267
10822TIP3    H253958   2.916  -0.019   0.518  0.9706 -0.7618 -0.9037
10823TIP3   OH253959   5.865   2.295   5.098  0.5416  0.0428 -0.1677
10823TIP3    H153960   5.836   2.384   5.117  0.6292 -0.4589  2.8189
10823TIP3    H253961   5.806   2.239   5.148  1.9736 -1.4009  0.0081
10824TIP3   OH253962   5.670   0.504   5.314  0.5264  0.6572  0.2610
10824TIP3    H153963   5.679   0.598   5.330  1.6705  0.9375 -1.7361
10824TIP3    H253964   5.600   0.498   5.249  0.1853  0.0795  0.6745
10825TIP3   OH253965   4.640   4.127  13.545 -0.8797  0.0825  0.0251
10825TIP3    H153966   4.649   4.035  13.573 -1.1860 -0.2429 -0.9010
10825TIP3    H253967   4.546   4.143  13.549 -0.9535 -0.0355 -0.9775
10826TIP3   OH253968   3.623   6.448   2.450 -0.3234  0.7887  0.0142
10826TIP3    H153969   3.541   6.399   2.455 -0.9065  1.6368 -0.8183
10826TIP3    H253970   3.645   6.450   2.356  1.2686 -0.3857  0.3165
10827TIP3   OH253971   4.034   1.302   5.211 -0.0310 -0.0757  0.3455
10827TIP3    H153972   4.019   1.331   5.301 -2.1890  2.2782 -0.6380
10827TIP3    H253973   3.946   1.291   5.174  0.7991 -1.3805 -1.3797
10828TIP3   OH253974   1.163   0.235  14.622  0.0844  0.5386  0.2039
10828TIP3    H153975   1.169   0.157  14.567  0.1398  0.8349 -0.2161
10828TIP3    H253976   1.250   0.274  14.618 -0.2239  1.1726 -0.4163
10829TIP3   OH253977   3.576   4.078   1.314  0.6912  0.0715 -0.2052
10829TIP3    H153978   3.521   4.095   1.237  0.0910  1.8517  0.5689
10829TIP3    H253979   3.583   3.983   1.317 -1.7840 -0.1954 -0.7563
10830TIP3   OH253980   6.622   1.874   3.345  0.1528  0.0725  0.3085
10830TIP3    H153981   6.557   1.827   3.293 -0.2240  0.8510  0.0618
10830TIP3    H253982   6.698   1.881   3.288 -0.1622  0.6810 -0.0466
10831TIP3   OH253983   0.754   3.637   2.043  0.3015  0.3013 -0.2746
10831TIP3    H153984   0.759   3.713   1.985  0.6537  1.3650  1.0886
10831TIP3    H253985   0.798   3.665   2.123  0.8647 -1.5167  0.1026
10832TIP3   OH253986   2.866   0.147  13.699  0.2615 -0.0727 -0.2408
10832TIP3    H153987   2.895   0.103  13.620 -0.0832 -0.0067 -0.4073
10832TIP3    H253988   2.825   0.078  13.751  1.0882 -0.2529  0.1866
10833TIP3   OH253989   5.889   2.219  14.650 -0.1661 -0.6682 -0.2434
10833TIP3    H153990   5.799   2.252  14.642 -0.2477 -0.8366 -0.0231
10833TIP3    H253991   5.933   2.285  14.703 -0.7098 -1.6165  1.4725
10834TIP3   OH253992   3.516   1.427   4.391  0.1653 -0.1094  0.4184
10834TIP3    H153993   3.469   1.510   4.402  0.0415 -0.2669  1.1278
10834TIP3    H253994   3.467   1.381   4.323  0.1277  0.3266  0.1509
10835TIP3   OH253995   4.646   5.589  15.218  0.1923 -0.0453  0.0418
10835TIP3    H153996   4.723   5.634  15.181  0.0409 -0.2443 -0.5187
10835TIP3    H253997   4.600   5.658  15.267 -0.1732  0.4904 -1.0204
10836TIP3   OH253998   5.553   5.761   5.155  0.3033  0.1203 -0.4826
10836TIP3    H153999   5.586   5.701   5.088  1.3963  0.8023 -0.5817
10836TIP3    H254000   5.610   5.748   5.230  0.4072  0.8568 -0.4201
10837TIP3   OH254001   6.507   5.232  15.115  0.1553 -0.5271 -0.2106
10837TIP3    H154002   6.435   5.172  15.093  0.4359 -0.5876 -0.9993
10837TIP3    H254003   6.582   5.175  15.129  0.5339 -0.3438 -1.4144
10838TIP3   OH254004   5.452   4.050  16.035  0.3230 -0.1324  0.5234
10838TIP3    H154005   5.499   4.073  15.955  1.9911 -1.2787  1.1173
10838TIP3    H254006   5.518   4.056  16.104 -0.0411 -2.9951  1.2311
10839TIP3   OH254007   3.791   3.146   4.326 -0.3786 -0.6078  0.1671
10839TIP3    H154008   3.753   3.207   4.390 -0.2092  0.3052 -0.5676
10839TIP3    H254009   3.748   3.063   4.344 -3.1001  0.4418 -0.8607
10840TIP3   OH254010   0.727   1.860   3.543  0.0683  0.2915 -0.0542
10840TIP3    H154011   0.657   1.877   3.606 -0.4603  1.6789 -0.9504
10840TIP3    H254012   0.718   1.767   3.522 -0.8153  0.1997  0.6637
10841TIP3   OH254013   6.269   6.494  15.604  0.5336 -0.2512 -0.3979
10841TIP3    H154014   6.222   6.520  15.683  1.3821 -0.5988  0.2242
10841TIP3    H254015   6.356   6.532  15.614  0.9538 -1.1070 -0.7124
10842TIP3   OH254016   1.115   5.913  13.584  0.0251 -0.3503 -0.2477
10842TIP3    H154017   1.077   5.946  13.665 -0.8008 -1.0656 -0.3322
10842TIP3    H254018   1.183   5.977  13.562 -0.3042  0.2963  0.5577
10843TIP3   OH254019   5.161   0.303  15.472 -0.0083  0.2700 -0.5330
10843TIP3    H154020   5.229   0.253  15.427  1.2334  1.3282  0.1002
10843TIP3    H254021   5.136   0.248  15.547  0.3758  0.0070 -0.5927
10844TIP3   OH254022   0.236   0.556   0.346  0.0390  0.4620  1.2286
10844TIP3    H154023   0.330   0.552   0.360  0.5601  0.9544 -1.5550
10844TIP3    H254024   0.226   0.586   0.255 -2.7979  0.3420  1.4003
10845TIP3   OH254025   0.884   0.722   2.418 -0.3732 -0.1797 -0.1678
10845TIP3    H154026   0.865   0.775   2.496 -1.6391 -0.3871 -0.3111
10845TIP3    H254027   0.868   0.632   2.446  1.2635 -0.4768 -0.0815
10846TIP3   OH254028   3.144   0.989   4.495  0.0220 -0.1226 -0.5624
10846TIP3    H154029   3.236   0.998   4.468  0.2099  0.9685  0.3806
10846TIP3    H254030   3.105   0.933   4.428  1.4322 -0.8062 -0.8490
10847TIP3   OH254031   2.093   2.928   1.724 -0.2106 -0.1038 -0.3222
10847TIP3    H154032   2.157   2.942   1.794 -0.1509  1.3231 -0.6401
10847TIP3    H254033   2.145   2.927   1.644 -0.6562  2.2624 -0.7025
10848TIP3   OH254034   0.467   5.516  10.945 -0.0248  0.5390  0.0120
10848TIP3    H154035   0.558   5.535  10.969  0.3154 -1.1609  0.2210
10848TIP3    H254036   0.462   5.537  10.852 -0.0524  2.7081  0.4491
10849TIP3   OH254037   4.372   6.120   5.765 -0.7346 -0.0133  0.0874
10849TIP3    H154038   4.363   6.121   5.670  0.6025  0.2084 -0.0506
10849TIP3    H254039   4.407   6.033   5.784 -1.3625 -0.1968  0.4191
10850TIP3   OH254040   3.063   1.217  14.504  0.0565 -0.0852 -0.3703
10850TIP3    H154041   3.049   1.208  14.410  1.0182 -1.1417 -0.4360
10850TIP3    H254042   2.979   1.192  14.543 -0.7990  1.7102 -0.9556
10851TIP3   OH254043   1.036   4.265   6.192  0.3097  0.0492  0.3753
10851TIP3    H154044   1.129   4.254   6.211  0.8174  0.2624 -1.7413
10851TIP3    H254045   0.994   4.269   6.278  2.3382  0.7031  1.3932
10852TIP3   OH254046   5.852   0.864   1.889 -0.4446 -0.7492 -0.0366
10852TIP3    H154047   5.932   0.846   1.939  0.3420  0.9903 -0.5871
10852TIP3    H254048   5.803   0.781   1.891  1.0329 -1.6483  0.9003
10853TIP3   OH254049   1.431   4.824  12.794  0.0609  0.3947  0.1412
10853TIP3    H154050   1.477   4.776  12.726  0.1135  0.1339  0.3616
10853TIP3    H254051   1.440   4.770  12.873 -1.2387 -0.0191  0.0311
10854TIP3   OH254052   0.924   3.462  12.779  0.3256  1.1076  0.0920
10854TIP3    H154053   0.884   3.379  12.752  2.9944 -0.0726 -0.5402
10854TIP3    H254054   0.892   3.525  12.715  0.2287  0.0129 -0.9819
10855TIP3   OH254055   1.928   4.284   6.296 -0.2982 -0.1198  0.8018
10855TIP3    H154056   1.928   4.308   6.389 -2.9091 -0.1966  0.8988
10855TIP3    H254057   1.950   4.365   6.250  1.0934 -0.1011  1.4533
10856TIP3   OH254058   3.954   1.831  13.146 -0.2343  0.1263  0.3296
10856TIP3    H154059   3.953   1.919  13.184 -1.8545  0.5358 -0.5530
10856TIP3    H254060   3.990   1.775  13.215  1.0592  1.4899  0.8264
10857TIP3   OH254061   4.052   0.853   0.696 -0.4552 -0.3887  0.1100
10857TIP3    H154062   4.026   0.766   0.727  0.0180 -0.2063  1.0394
10857TIP3    H254063   4.139   0.866   0.733 -1.2474  1.2391  1.5275
10858TIP3   OH254064   4.929   3.686  12.227 -0.3027  0.0663  0.0988
10858TIP3    H154065   4.897   3.770  12.259 -1.3706  0.4443 -1.8191
10858TIP3    H254066   4.852   3.628  12.230 -0.4719  0.1360 -1.7309
10859TIP3   OH254067   5.816   5.296  11.160  0.0685  0.0362 -0.0614
10859TIP3    H154068   5.871   5.243  11.103 -0.8006 -0.0457 -0.8409
10859TIP3    H254069   5.856   5.383  11.157 -0.8369  0.4393 -2.0722
10860TIP3   OH254070   1.603   0.824   0.386 -0.7915 -0.6774  0.2822
10860TIP3    H154071   1.639   0.902   0.429 -0.5377 -0.6699  0.0541
10860TIP3    H254072   1.508   0.830   0.401 -0.6412 -1.0680  1.5117
10861TIP3   OH254073   5.044   2.536   2.609 -0.5512  0.1245  0.1282
10861TIP3    H154074   5.088   2.466   2.656  1.2135  1.9464  1.3408
10861TIP3    H254075   4.971   2.561   2.666 -1.0452 -0.5545 -0.1989
10862TIP3   OH254076   5.106   6.321  16.902 -0.0926  0.3072 -0.1644
10862TIP3    H154077   5.197   6.344  16.921 -0.8446  3.1865  0.3117
10862TIP3    H254078   5.112   6.234  16.861  2.7886  0.1663  0.3357
10863TIP3   OH254079   3.281   1.982  13.565  1.0962  0.3932  0.0794
10863TIP3    H154080   3.279   1.997  13.470  0.3744 -0.3336 -0.0291
10863TIP3    H254081   3.297   1.888  13.574  1.9552  0.5880  0.6993
10864TIP3   OH254082   4.223   2.513  12.363 -0.0800 -0.0289  0.3469
10864TIP3    H154083   4.299   2.454  12.354  1.8910  2.5838 -1.8069
10864TIP3    H254084   4.254   2.584  12.418 -0.7830  1.3247 -0.9480
10865TIP3   OH254085   6.770   3.428   0.597  0.0029  0.2602 -0.0002
10865TIP3    H154086   6.770   3.343   0.553  1.3741  0.3019 -0.1414
10865TIP3    H254087   6.840   3.421   0.662 -0.1202  1.1577  0.2366
10866TIP3   OH254088   1.981   4.539   5.928  0.4378  0.5786 -0.1125
10866TIP3    H154089   1.921   4.572   5.861 -0.9763 -1.3394  0.1580
10866TIP3    H254090   2.068   4.565   5.896 -0.4707  3.7771 -0.3084
10867TIP3   OH254091   1.388   0.800   3.106  0.1017 -0.5818  0.5022
10867TIP3    H154092   1.430   0.723   3.069 -0.8978 -0.3113 -1.3762
10867TIP3    H254093   1.294   0.778   3.107 -0.3060  0.8509 -0.9041
10868TIP3   OH254094   5.943   3.667   1.041 -0.1657 -0.6324 -0.2302
10868TIP3    H154095   5.871   3.719   1.005 -1.4184 -1.5390  0.8665
10868TIP3    H254096   5.903   3.585   1.068  0.6995 -0.1983  2.8256
10869TIP3   OH254097   0.953   4.104   3.098 -0.2160 -0.2434  0.6692
10869TIP3    H154098   0.967   4.195   3.074  0.6058 -1.0651 -2.5171
10869TIP3    H254099   0.978   4.099   3.190 -0.4656  2.7196  1.0034
10870TIP3   OH254100   6.259   1.591   0.474  0.0930  0.0687 -0.1596
10870TIP3    H154101   6.323   1.645   0.521 -0.8472  0.8997  0.1758
10870TIP3    H254102   6.174   1.621   0.505 -0.4945 -0.5299 -1.1528
10871TIP3   OH254103   3.445   0.144   5.658  0.4506  0.0155  0.3903
10871TIP3    H154104   3.441   0.146   5.754  0.3447  1.1198  0.3680
10871TIP3    H254105   3.367   0.191   5.629  0.7983  0.2214 -0.2370
10872TIP3   OH254106   4.601   6.554  14.048 -0.1576  0.4079 -0.0060
10872TIP3    H154107   4.672   6.617  14.035 -0.2044  0.3203 -0.7257
10872TIP3    H254108   4.616   6.518  14.136 -0.6242  2.0430  0.8009
10873TIP3   OH254109   4.244   6.570  13.556  0.3887 -0.9353 -0.5307
10873TIP3    H154110   4.227   6.532  13.642 -0.7953  0.4557 -0.1081
10873TIP3    H254111   4.182   6.525  13.498  0.6222 -1.2921 -0.5106
10874TIP3   OH254112   1.335   5.013   0.510 -0.1776 -0.7767 -0.7028
10874TIP3    H154113   1.404   5.009   0.576  0.5752 -1.4069 -1.4885
10874TIP3    H254114   1.376   5.055   0.435 -0.3512 -1.9474 -1.4913
10875TIP3   OH254115   5.239   1.926   6.281 -0.1555  0.3769  0.0769
10875TIP3    H154116   5.314   1.877   6.317 -0.0278 -0.5726 -1.4127
10875TIP3    H254117   5.248   1.917   6.186 -0.2427  3.1620 -0.2699
10876TIP3   OH254118   3.279   3.510   3.931  0.3705  0.1029 -0.2887
10876TIP3    H154119   3.262   3.604   3.939 -1.5820 -0.3458  1.8057
10876TIP3    H254120   3.224   3.470   3.998  1.0540 -2.5690 -1.2063
10877TIP3   OH254121   1.980   0.604   3.257 -0.1706  0.2552  0.5979
10877TIP3    H154122   1.889   0.623   3.232 -0.5389  1.2148  2.4705
10877TIP3    H254123   1.975   0.586   3.351  1.8614  2.7635  1.3013
10878TIP3   OH254124   5.768   3.888   0.603  0.1387 -0.0576 -0.1121
10878TIP3    H154125   5.688   3.848   0.635  0.0034 -0.9473 -1.4548
10878TIP3    H254126   5.777   3.855   0.513  1.3458  1.0043 -0.4170
10879TIP3   OH254127   2.558   5.433   0.784  0.6407  0.1299  0.7023
10879TIP3    H154128   2.615   5.473   0.850  0.3489  1.0160  0.4328
10879TIP3    H254129   2.471   5.439   0.822  0.5512  0.0642  0.5065
10880TIP3   OH254130   3.458   3.939  15.798  0.0144 -0.0028 -0.1100
10880TIP3    H154131   3.445   3.966  15.707 -3.4241  0.1356  0.2810
10880TIP3    H254132   3.400   3.996  15.849 -0.8415 -2.3191  1.7391
10881TIP3   OH254133   2.719   5.853  16.072 -0.2907  0.2330 -0.2037
10881TIP3    H154134   2.760   5.766  16.082  0.1723  0.5057  0.3364
10881TIP3    H254135   2.789   5.914  16.093 -0.9670  0.7170  0.6569
10882TIP3   OH254136   5.034   0.690   5.909  0.0269 -0.0516 -0.2708
10882TIP3    H154137   4.947   0.700   5.870  0.5754 -2.6962 -2.4043
10882TIP3    H254138   5.021   0.628   5.981 -0.1277  1.0560  0.6901
10883TIP3   OH254139   3.409   3.512   0.728  0.4243 -0.2811 -0.0431
10883TIP3    H154140   3.325   3.501   0.684  1.5805  1.6298 -2.9745
10883TIP3    H254141   3.412   3.604   0.753  1.5075 -0.4211  0.4203
10884TIP3   OH254142   6.339   1.873   5.133  0.2452  0.0847  0.0423
10884TIP3    H154143   6.344   1.965   5.159 -2.5274  0.2373  0.3563
10884TIP3    H254144   6.257   1.866   5.084 -0.5847 -2.5391  1.5581
10885TIP3   OH254145   5.330   5.196  14.755 -0.4931 -0.3909  0.3055
10885TIP3    H154146   5.378   5.135  14.811  1.5246  1.3757  0.6236
10885TIP3    H254147   5.332   5.156  14.668 -1.7103 -2.0756  0.9912
10886TIP3   OH254148   1.368   0.095  15.837  0.0588  0.2865 -0.0521
10886TIP3    H154149   1.374   0.049  15.753  1.5947  0.9691 -0.3607
10886TIP3    H254150   1.442   0.155  15.836  0.9968 -0.6788  2.3822
10887TIP3   OH254151   0.232   4.704  12.778 -0.0899 -0.1603  0.2997
10887TIP3    H154152   0.324   4.688  12.756 -0.0793  0.5673 -0.2267
10887TIP3    H254153   0.185   4.695  12.695 -0.6111 -1.2995  0.7038
10888TIP3   OH254154   1.950   5.845  11.188 -0.4202  0.4363 -0.7930
10888TIP3    H154155   1.863   5.866  11.221 -0.2526  0.5076 -0.3880
10888TIP3    H254156   1.992   5.930  11.175  0.0975  0.3857  0.4110
10889TIP3   OH254157   3.805   5.573  14.068  0.1553 -0.4545 -0.4470
10889TIP3    H154158   3.797   5.657  14.023 -0.4145 -1.4087 -2.2130
10889TIP3    H254159   3.899   5.563  14.081  0.5550 -0.8914 -3.0456
10890TIP3   OH254160   0.577   3.835   5.068  0.2922 -0.3403 -0.0699
10890TIP3    H154161   0.645   3.891   5.105 -0.4531 -1.1900  2.8186
10890TIP3    H254162   0.528   3.803   5.143 -1.3349 -2.3216 -1.8321
10891TIP3   OH254163   6.297   4.525   3.908 -0.1339  0.0230 -0.1151
10891TIP3    H154164   6.332   4.612   3.926  1.2328 -0.7211  1.0668
10891TIP3    H254165   6.321   4.508   3.817  0.8028  0.3526  0.0566
10892TIP3   OH254166   6.039   5.900  14.224  0.1230  0.1119  0.3911
10892TIP3    H154167   6.095   5.921  14.299 -1.1943 -0.7068  1.6601
10892TIP3    H254168   6.035   5.804  14.223  0.1287  0.1074 -0.7532
10893TIP3   OH254169   0.256   5.198   2.319  0.1922 -0.2011  0.8397
10893TIP3    H154170   0.195   5.272   2.319  2.5795  1.9771  2.5132
10893TIP3    H254171   0.243   5.156   2.404 -0.3066 -0.9608  0.3939
10894TIP3   OH254172   0.565   0.722   0.792 -0.2670 -0.4502  0.0140
10894TIP3    H154173   0.616   0.725   0.711 -0.6763  0.9245 -0.2152
10894TIP3    H254174   0.567   0.630   0.818 -0.8675 -1.0974 -2.0290
10895TIP3   OH254175   0.433   6.490   3.298  0.3497  0.1688  0.5656
10895TIP3    H154176   0.477   6.406   3.310  0.6598  0.3099  0.4130
10895TIP3    H254177   0.389   6.482   3.213  0.4068  0.1759  0.5357
10896TIP3   OH254178   4.456   5.424  15.099  0.4323 -0.4018 -0.4043
10896TIP3    H154179   4.519   5.479  15.144  0.8760 -0.2858 -1.1564
10896TIP3    H254180   4.371   5.450  15.134  0.7272  0.0512 -0.0278
10897TIP3   OH254181   4.523   1.895   2.385  0.2482 -0.0884  0.4656
10897TIP3    H154182   4.543   1.811   2.343  0.3317 -0.9337  2.1297
10897TIP3    H254183   4.567   1.891   2.469  0.2077  1.6292  0.6000
10898TIP3   OH254184   3.476   5.973  10.627  0.0235 -0.1748 -0.0132
10898TIP3    H154185   3.416   5.943  10.560 -1.3983 -1.9037  1.8950
10898TIP3    H254186   3.424   6.030  10.683 -0.0255 -1.8860  1.8090
10899TIP3   OH254187   4.429   4.821  16.873 -0.4965  0.1248  0.2559
10899TIP3    H154188   4.462   4.829  16.963 -2.8529 -1.0842  1.3073
10899TIP3    H254189   4.342   4.783  16.882 -1.7876  2.0918 -2.4010
10900TIP3   OH254190   5.765   5.332  13.522  0.3016  0.4959 -0.3175
10900TIP3    H154191   5.799   5.314  13.435  1.5615  0.5897  0.1297
10900TIP3    H254192   5.843   5.352  13.574 -0.3724 -0.1036  0.9631
10901TIP3   OH254193   4.103   0.209   3.115 -0.1368 -0.0721  0.2977
10901TIP3    H154194   4.008   0.208   3.128 -0.0591  1.8643  1.4975
10901TIP3    H254195   4.128   0.299   3.135  1.8701 -0.3467 -0.7819
10902TIP3   OH254196   4.847   6.032   5.243 -0.3232  0.2196 -0.3326
10902TIP3    H154197   4.897   5.972   5.299 -1.5841  0.1961  0.8005
10902TIP3    H254198   4.853   5.993   5.156 -0.9426 -1.4646  0.3469
10903TIP3   OH254199   3.038   5.187   4.568 -0.3387 -0.0010  0.1720
10903TIP3    H154200   3.072   5.267   4.530 -0.1808 -1.5060 -3.1954
10903TIP3    H254201   3.094   5.118   4.533 -1.9983 -1.8187  0.8846
10904TIP3   OH254202   4.215   2.821   2.009 -0.2906  0.6336 -0.2159
10904TIP3    H154203   4.284   2.796   2.070 -0.2779  0.7248 -0.1925
10904TIP3    H254204   4.187   2.908   2.038 -1.4354 -0.0052  0.6874
10905TIP3   OH254205   3.952   3.627   5.698  0.1304  0.1388  0.4715
10905TIP3    H154206   4.013   3.700   5.691 -0.0280  0.2935  0.7079
10905TIP3    H254207   3.947   3.609   5.792 -0.8333  0.6775  0.5380
10906TIP3   OH254208   3.235   0.783   4.773 -0.2446 -0.6731 -0.4031
10906TIP3    H154209   3.151   0.742   4.753  0.7090 -2.2795 -1.3490
10906TIP3    H254210   3.232   0.798   4.868 -1.9476  0.1952 -0.5606
10907TIP3   OH254211   1.855   6.716  15.677 -0.2304 -0.6518 -0.1192
10907TIP3    H154212   1.875   6.749  15.764  2.0265 -0.5616 -0.6025
10907TIP3    H254213   1.767   6.748  15.658 -0.1056  0.7364  1.4464
10908TIP3   OH254214   0.410   4.216  12.616 -0.1612 -0.2704 -0.7007
10908TIP3    H154215   0.339   4.205  12.553 -1.2767 -1.2497  0.6656
10908TIP3    H254216   0.428   4.310  12.616 -1.6976  0.0494 -0.8467
10909TIP3   OH254217   3.063   2.144   4.746 -0.3069  0.2759  0.0965
10909TIP3    H154218   3.106   2.094   4.815  0.3407 -0.3618 -0.7304
10909TIP3    H254219   2.972   2.150   4.772 -0.1972 -0.5265  0.6825
10910TIP3   OH254220   3.526   0.713   2.943  0.4650 -0.0752 -0.4116
10910TIP3    H154221   3.569   0.638   2.983 -0.5195 -1.1334 -1.2882
10910TIP3    H254222   3.569   0.789   2.982  1.4545 -1.0859  0.5144
10911TIP3   OH254223   5.863   0.553   0.579 -0.3167 -0.3386  0.1001
10911TIP3    H154224   5.888   0.625   0.521  0.3248 -0.4722  0.2011
10911TIP3    H254225   5.793   0.507   0.532  0.2601 -0.5005 -0.6190
10912TIP3   OH254226   5.565   1.585   1.053  0.0865 -0.1473 -0.4575
10912TIP3    H154227   5.483   1.570   1.006  0.4476 -0.0301 -1.1384
10912TIP3    H254228   5.633   1.578   0.985  0.6652 -0.5434  0.1497
10913TIP3   OH254229   1.453   6.674  10.753  0.1567  0.2913 -0.1722
10913TIP3    H154230   1.403   6.653  10.673  0.2948 -1.0425  0.0775
10913TIP3    H254231   1.543   6.650  10.732  0.7708  2.6992 -0.6199
10914TIP3   OH254232   0.450   3.581   4.049 -0.0240 -0.2529 -0.5538
10914TIP3    H154233   0.450   3.487   4.069 -1.0327  0.0367  1.0133
10914TIP3    H254234   0.415   3.622   4.128  0.0643  1.4250 -1.3430
10915TIP3   OH254235   5.170   6.393  15.308  0.2187 -0.3728  0.2230
10915TIP3    H154236   5.185   6.369  15.217  0.9934  0.1913  0.1871
10915TIP3    H254237   5.141   6.312  15.350  1.7301 -1.1167 -0.1130
10916TIP3   OH254238   4.663   1.382  13.425 -0.1291 -0.6703  0.1154
10916TIP3    H154239   4.655   1.289  13.406 -1.3583 -0.1869 -2.0050
10916TIP3    H254240   4.758   1.398  13.428  0.1432 -1.5451 -2.0610
10917TIP3   OH254241   2.215   1.290  11.498 -0.2115  0.1541  0.5980
10917TIP3    H154242   2.202   1.207  11.452  0.2130  0.1944  0.4017
10917TIP3    H254243   2.214   1.356  11.429 -2.4696  0.5477  0.9140
10918TIP3   OH254244   0.085   0.083  13.015 -0.2748  0.1151 -0.4475
10918TIP3    H154245   0.089   0.112  12.924 -1.1382  1.5908 -0.0420
10918TIP3    H254246   0.000   0.040  13.024  0.9570 -2.6499 -1.0216
10919TIP3   OH254247   1.204   6.195  11.849  0.0121 -0.3703 -0.4750
10919TIP3    H154248   1.130   6.254  11.862 -0.0911 -0.5094 -0.4319
10919TIP3    H254249   1.274   6.233  11.902  0.3392  0.4308 -1.4624
10920TIP3   OH254250   2.016   4.611  14.778 -0.1812  0.1911 -0.3769
10920TIP3    H154251   1.972   4.527  14.766 -0.0064  0.1524 -0.7463
10920TIP3    H254252   2.096   4.604  14.727  0.2120  0.3007  0.2159
10921TIP3   OH254253   4.012   3.803   4.707 -0.3077  0.1964  0.0994
10921TIP3    H154254   3.961   3.873   4.748  0.1509  1.2935 -1.1249
10921TIP3    H254255   4.098   3.842   4.690  0.1898 -0.8848  0.0050
10922TIP3   OH254256   6.243   4.486   4.360  0.0631 -0.2224  0.2524
10922TIP3    H154257   6.296   4.562   4.386  0.5360 -0.9086  1.3495
10922TIP3    H254258   6.300   4.435   4.303 -0.3283  0.3379 -0.6576
10923TIP3   OH254259   1.141   4.153  11.110 -0.2597 -0.1590  0.4129
10923TIP3    H154260   1.047   4.140  11.119 -0.3480 -1.3803 -1.6872
10923TIP3    H254261   1.165   4.107  11.030  2.5251 -1.8527  2.0252
10924TIP3   OH254262   4.637   3.695  15.068 -0.1434 -0.2477  0.0204
10924TIP3    H154263   4.567   3.634  15.089 -0.5495  0.8400  2.1165
10924TIP3    H254264   4.710   3.670  15.125  0.4006 -0.0022 -0.5495
10925TIP3   OH254265   3.007   1.339  16.723  0.1523  0.2499  0.6745
10925TIP3    H154266   2.998   1.430  16.695  0.0033 -0.3576 -1.4145
10925TIP3    H254267   2.921   1.300  16.705  0.5919 -0.5949  0.3542
10926TIP3   OH254268   6.559   6.087   4.886 -0.0314  0.1011  0.8886
10926TIP3    H154269   6.573   6.156   4.951 -0.6370 -0.7040  1.8805
10926TIP3    H254270   6.501   6.128   4.821 -1.3676  0.1698  2.0893
10927TIP3   OH254271   4.839   5.681   3.513  0.4735 -0.5141 -0.0304
10927TIP3    H154272   4.817   5.634   3.594  4.1677  0.4547  1.7394
10927TIP3    H254273   4.903   5.624   3.470  1.1282  0.5460 -0.4800
10928TIP3   OH254274   3.425   3.399  16.817  0.2728  0.1758  0.1834
10928TIP3    H154275   3.400   3.479  16.770  0.7604  0.4475  0.3797
10928TIP3    H254276   3.382   3.407  16.902 -1.8308 -0.9975 -0.6699
10929TIP3   OH254277   6.623   3.392   2.150 -0.0999  0.5248 -0.4463
10929TIP3    H154278   6.585   3.346   2.075  0.7552  1.1651 -1.3089
10929TIP3    H254279   6.578   3.476   2.152 -0.4713  0.3195  0.0816
10930TIP3   OH254280   0.451   1.107  12.591 -0.1284 -0.2489 -0.3281
10930TIP3    H154281   0.518   1.113  12.659 -0.3302  0.0054 -0.1496
10930TIP3    H254282   0.483   1.038  12.532  1.3680  1.3207 -1.4560
10931TIP3   OH254283   5.570   5.738   4.483 -0.1069 -0.4585  0.1719
10931TIP3    H154284   5.478   5.765   4.486  0.3029  1.0854 -0.3739
10931TIP3    H254285   5.612   5.788   4.553  0.4192 -0.7742  0.0873
10932TIP3   OH254286   1.022   4.433  16.795 -0.0424 -0.2476  0.6495
10932TIP3    H154287   0.962   4.368  16.758  1.3250 -1.2975  0.1490
10932TIP3    H254288   0.979   4.464  16.874 -0.7582 -1.7783  0.9003
10933TIP3   OH254289   2.700   6.476   2.104 -0.6377  0.5647 -0.0260
10933TIP3    H154290   2.686   6.483   2.010 -1.3589 -0.1916  0.0123
10933TIP3    H254291   2.776   6.531   2.122 -0.7384  1.0256 -0.9884
10934TIP3   OH254292   2.963   5.445   3.487 -0.0751  0.2586 -0.5623
10934TIP3    H154293   3.035   5.384   3.472 -1.2087 -1.1287 -0.5242
10934TIP3    H254294   2.924   5.417   3.570 -1.0530  0.5972 -0.8895
10935TIP3   OH254295   3.816   3.047   0.372  0.2490  0.1471  0.0916
10935TIP3    H154296   3.877   3.008   0.311 -0.1894  0.5806 -0.6355
10935TIP3    H254297   3.731   3.041   0.329  0.0862  1.3980  0.1924
10936TIP3   OH254298   5.479   5.946  16.583 -0.1855 -0.1186 -0.3653
10936TIP3    H154299   5.571   5.950  16.557 -0.2148 -0.1063 -0.4680
10936TIP3    H254300   5.448   6.036  16.575 -0.3858 -0.2350 -0.9899
10937TIP3   OH254301   4.314   5.396   1.365  0.0906 -0.4855 -0.3640
10937TIP3    H154302   4.392   5.390   1.420  1.1091 -0.7481 -1.7917
10937TIP3    H254303   4.326   5.477   1.314 -1.2966  0.2776  0.4380
10938TIP3   OH254304   4.282   1.637   1.518  0.1818  0.2722  0.2820
10938TIP3    H154305   4.235   1.685   1.450 -0.8665  0.2051  0.9348
10938TIP3    H254306   4.214   1.611   1.581  1.1827  0.8112  1.6472
10939TIP3   OH254307   2.067   5.384  15.697  0.6537  0.5724  0.4268
10939TIP3    H154308   1.984   5.410  15.738 -0.2198 -0.7855 -0.4080
10939TIP3    H254309   2.091   5.459  15.643 -1.0954  0.2651 -0.8745
10940TIP3   OH254310   6.815   3.009   4.740  0.1003  0.1415 -0.2181
10940TIP3    H154311   6.787   3.097   4.715 -2.9368 -1.1781 -2.0012
10940TIP3    H254312   6.799   2.956   4.662 -2.7825 -2.8576  2.1366
10941TIP3   OH254313   5.276   2.081   5.813  0.2521 -0.0252  0.0104
10941TIP3    H154314   5.345   2.041   5.760  2.3064  0.1035  2.3837
10941TIP3    H254315   5.265   2.169   5.776  1.3453 -0.0731 -0.4661
10942TIP3   OH254316   3.627   5.823  16.163  0.6010 -0.1393 -0.2004
10942TIP3    H154317   3.590   5.833  16.251 -1.3893 -0.7592 -0.9041
10942TIP3    H254318   3.713   5.784  16.177 -0.9651 -3.3811  1.3914
10943TIP3   OH254319   5.523   0.983   1.881 -0.4106 -0.3582  0.1232
10943TIP3    H154320   5.552   0.963   1.792 -0.2579 -1.1904  0.3506
10943TIP3    H254321   5.573   1.060   1.906 -0.4347 -0.1360 -0.4999
10944TIP3   OH254322   3.166   6.393   5.089 -0.3334 -0.3605 -0.2521
10944TIP3    H154323   3.236   6.423   5.148 -1.6745  1.6564  0.4166
10944TIP3    H254324   3.176   6.448   5.011  0.9524 -2.4959 -1.7312
10945TIP3   OH254325   0.513   6.536   5.976 -0.5762 -0.5587 -0.1767
10945TIP3    H154326   0.495   6.442   5.976 -1.6631 -0.3656 -0.3940
10945TIP3    H254327   0.545   6.553   5.888 -1.5222 -0.5358 -0.5291
10946TIP3   OH254328   2.739   0.745  10.664  0.1165  0.3043  0.2443
10946TIP3    H154329   2.766   0.735  10.572  0.3686 -1.9823  0.5086
10946TIP3    H254330   2.643   0.745  10.660  0.0953  1.9658 -0.1255
10947TIP3   OH254331   3.305   6.575  16.159  0.4394  0.1541  0.4660
10947TIP3    H154332   3.281   6.540  16.245 -0.1135 -1.3253 -0.2588
10947TIP3    H254333   3.378   6.634  16.177 -0.4031  0.7837  2.0843
10948TIP3   OH254334   6.078   3.153   4.142 -0.2147  0.4694 -0.2619
10948TIP3    H154335   6.058   3.059   4.145 -0.6845  0.5755  0.0202
10948TIP3    H254336   6.108   3.174   4.231 -1.6546  0.9167  0.1361
10949TIP3   OH254337   5.761   3.529   2.765  0.1297 -0.4712  0.1610
10949TIP3    H154338   5.750   3.470   2.690  3.8078  0.2194 -1.1532
10949TIP3    H254339   5.803   3.475   2.832  0.9983 -0.0301 -0.0159
10950TIP3   OH254340   1.287   2.196  11.589  0.1890  0.4618  0.0751
10950TIP3    H154341   1.336   2.214  11.509  1.0360 -1.2869  0.1427
10950TIP3    H254342   1.353   2.199  11.659 -0.0173 -0.5680  0.3409
10951TIP3   OH254343   6.223   2.752  12.128  0.2908  0.2657  0.6826
10951TIP3    H154344   6.208   2.743  12.222 -0.4836  0.4689  0.5871
10951TIP3    H254345   6.147   2.801  12.096  0.1720 -0.4369 -0.1607
10952TIP3   OH254346   3.894   4.364  13.481 -0.0328 -0.6151 -0.3841
10952TIP3    H154347   3.801   4.350  13.493 -0.5220  2.0781 -0.3154
10952TIP3    H254348   3.930   4.368  13.570 -0.3176  0.7186 -0.3084
10953TIP3   OH254349   5.853   1.819  16.794 -0.1198  0.1222  0.0619
10953TIP3    H154350   5.769   1.790  16.760 -0.2374  1.1131 -0.5341
10953TIP3    H254351   5.917   1.764  16.749 -0.4138 -0.2794  0.1270
10954TIP3   OH254352   4.515   4.260   5.944 -0.0438  0.4542  0.5151
10954TIP3    H154353   4.444   4.196   5.935  1.3389 -0.8551 -1.8717
10954TIP3    H254354   4.512   4.312   5.864  1.3992  0.7025  0.5934
10955TIP3   OH254355   4.443   3.704   6.620  0.0581 -0.2829 -0.2537
10955TIP3    H154356   4.355   3.668   6.625  0.6766 -1.6886  2.5715
10955TIP3    H254357   4.480   3.668   6.540 -1.2213 -1.4673 -0.3339
10956TIP3   OH254358   3.503   1.045   1.428  0.0311 -0.6150  0.0407
10956TIP3    H154359   3.430   1.086   1.381  1.1049  0.6478 -0.6007
10956TIP3    H254360   3.471   1.035   1.518 -0.2485  1.7916  0.2584
10957TIP3   OH254361   6.558   2.655  15.231  0.6511 -0.1616  0.3217
10957TIP3    H154362   6.552   2.559  15.238 -2.6445 -0.3178 -2.2786
10957TIP3    H254363   6.546   2.686  15.321 -2.5031 -2.2019  0.7848
10958TIP3   OH254364   5.120   6.339   4.277  0.0872  0.9178 -0.1149
10958TIP3    H154365   5.046   6.369   4.223  1.7090  1.2812 -2.2690
10958TIP3    H254366   5.158   6.419   4.311  0.6755  0.8965 -0.6996
10959TIP3   OH254367   6.031   0.296  14.801 -0.3005 -0.0571  0.1158
10959TIP3    H154368   6.104   0.260  14.751 -0.2245 -0.9303  0.8219
10959TIP3    H254369   5.988   0.357  14.741 -0.6992 -1.6520 -1.2883
10960TIP3   OH254370   6.031   4.842   0.213  0.8518 -0.4376 -0.1442
10960TIP3    H154371   5.996   4.915   0.263  1.1102  0.3396 -1.0721
10960TIP3    H254372   5.962   4.775   0.217 -0.2796  0.6347 -1.0016
10961TIP3   OH254373   3.391   2.988  13.865  0.0967  0.1527  0.2302
10961TIP3    H154374   3.385   3.083  13.850  0.6734  0.0674 -0.5993
10961TIP3    H254375   3.482   2.966  13.844 -0.3532 -0.7842 -0.7980
10962TIP3   OH254376   3.569   6.379   0.906  0.1443  0.1770 -0.1168
10962TIP3    H154377   3.647   6.325   0.921 -0.9729 -1.9202 -1.2986
10962TIP3    H254378   3.541   6.407   0.993  1.5085 -0.0498  0.4145
10963TIP3   OH254379   5.037   5.480   3.468 -0.8175  0.3326  0.3598
10963TIP3    H154380   4.989   5.397   3.467 -0.2667 -0.1693  3.6083
10963TIP3    H254381   5.124   5.457   3.500  0.3168  1.8350 -1.4328
10964TIP3   OH254382   6.352   1.012  12.889 -0.3944  0.3133  0.4988
10964TIP3    H154383   6.426   1.059  12.927  0.6518 -0.7431 -0.1584
10964TIP3    H254384   6.392   0.953  12.825 -1.6982 -1.1974  1.0430
10965TIP3   OH254385   5.435   1.091   3.939 -0.7403  0.6976  0.4739
10965TIP3    H154386   5.343   1.097   3.963 -1.8720 -4.1629 -1.6052
10965TIP3    H254387   5.435   1.075   3.845  2.4142  1.8149  0.1492
10966TIP3   OH254388   5.249   0.743  15.563  0.3624  0.3262 -0.1846
10966TIP3    H154389   5.290   0.695  15.492  0.8942 -0.2725  0.5069
10966TIP3    H254390   5.239   0.832  15.530  0.1036 -0.0725 -1.1936
10967TIP3   OH254391   1.590   4.641  14.775 -0.3311 -0.3509  0.3991
10967TIP3    H154392   1.626   4.616  14.860 -1.4772  0.2958  1.1063
10967TIP3    H254393   1.564   4.733  14.786 -0.9589 -0.4034 -0.4845
10968TIP3   OH254394   6.310   1.159   4.773  0.4555 -0.3060  0.4382
10968TIP3    H154395   6.367   1.204   4.711 -0.6439  0.2604 -0.1916
10968TIP3    H254396   6.329   1.202   4.857 -0.2486  1.0552 -0.0692
10969TIP3   OH254397   5.171   0.627  12.666  0.2748  0.5026 -0.5577
10969TIP3    H154398   5.098   0.689  12.665 -0.5476 -0.4532 -0.4340
10969TIP3    H254399   5.164   0.582  12.750 -1.2343 -2.1694 -1.9962
10970TIP3   OH254400   1.366   3.198  11.635  0.1553  0.4626  0.2676
10970TIP3    H154401   1.296   3.135  11.652 -0.2094  1.1339  1.3511
10970TIP3    H254402   1.323   3.268  11.585  0.3735  0.2327 -0.2440
10971TIP3   OH254403   2.340   6.729  16.477 -0.1224 -0.0539 -0.5778
10971TIP3    H154404   2.335   6.756  16.385 -0.5973 -1.0833 -0.8635
10971TIP3    H254405   2.377   6.641  16.475  0.3601  0.1224  0.2616
10972TIP3   OH254406   1.204   3.472   2.338  0.3104  0.4145 -0.4343
10972TIP3    H154407   1.156   3.552   2.359  0.4807 -0.2340  3.1137
10972TIP3    H254408   1.138   3.403   2.347  0.5963 -0.0212 -1.5763
10973TIP3   OH254409   2.663   4.875  11.240  0.3987 -0.1118  0.3349
10973TIP3    H154410   2.740   4.819  11.233  0.8996  0.7499 -2.1241
10973TIP3    H254411   2.694   4.953  11.287  0.7173 -0.2774  0.4009
10974TIP3   OH254412   0.114   0.068  11.228 -0.5905 -0.0889 -0.2334
10974TIP3    H154413   0.111   0.097  11.137  0.2000  1.9632  0.3462
10974TIP3    H254414   0.086  -0.024  11.225 -1.7236  0.2632 -2.3850
10975TIP3   OH254415   5.496   5.052   1.753  0.0098 -0.6363 -0.1782
10975TIP3    H154416   5.522   5.107   1.679 -0.1869 -0.3930 -0.0680
10975TIP3    H254417   5.402   5.043   1.744 -0.2475  0.6620  0.8874
10976TIP3   OH254418   5.739   0.225  16.283 -0.6067  0.3972  0.9997
10976TIP3    H154419   5.691   0.290  16.335 -1.7602  1.7921 -1.5754
10976TIP3    H254420   5.825   0.264  16.269 -1.0154  1.0114  0.1455
10977TIP3   OH254421   3.148   3.544   5.494  0.4440  0.3011 -0.6759
10977TIP3    H154422   3.225   3.599   5.479  0.9396 -0.2238 -0.1263
10977TIP3    H254423   3.183   3.456   5.505 -0.1405  0.1927  0.5187
10978TIP3   OH254424   1.517   4.604  13.885  0.0704  0.1195 -0.3486
10978TIP3    H154425   1.597   4.566  13.849  0.4132 -1.4270  1.8423
10978TIP3    H254426   1.486   4.663  13.817  2.5323  0.0237 -1.6683
10979TIP3   OH254427   3.413   3.326   1.138 -0.3104  0.0095  0.2019
10979TIP3    H154428   3.416   3.236   1.170  0.1571 -0.6079 -1.4736
10979TIP3    H254429   3.325   3.336   1.101  0.1236 -0.3015 -0.9840
10980TIP3   OH254430   4.010   3.505  13.172 -0.2336  0.0512  0.0276
10980TIP3    H154431   3.989   3.411  13.171  0.2975 -0.0825  0.4402
10980TIP3    H254432   4.007   3.531  13.080 -1.8803 -0.0099  0.0340
10981TIP3   OH254433   3.517   5.514  15.272  0.0841 -0.2134  0.1482
10981TIP3    H154434   3.545   5.555  15.190  0.2461 -1.4397 -0.4281
10981TIP3    H254435   3.592   5.526  15.331  1.2060 -1.9772 -0.8504
10982TIP3   OH254436   0.941   5.111   1.722 -0.0891  0.7045 -0.0172
10982TIP3    H154437   0.867   5.052   1.731  1.1788 -0.9024  0.5106
10982TIP3    H254438   0.915   5.190   1.768 -1.0676 -0.2369  1.1079
10983TIP3   OH254439   4.281   4.858   5.655 -0.1753 -0.0580  0.5975
10983TIP3    H154440   4.329   4.805   5.718 -0.4679 -0.7916  0.2049
10983TIP3    H254441   4.349   4.909   5.610  0.3399 -1.6170 -0.4660
10984TIP3   OH254442   2.489   4.453   0.331  0.6270  0.0773  0.2872
10984TIP3    H154443   2.583   4.434   0.330  0.6499  0.1859 -0.2857
10984TIP3    H254444   2.450   4.380   0.282  0.3063 -0.4679  1.3295
10985TIP3   OH254445   0.424   4.841  10.655  0.3136 -0.5133  0.0950
10985TIP3    H154446   0.421   4.936  10.651 -0.0268 -0.5566 -0.8504
10985TIP3    H254447   0.518   4.820  10.649  0.3933 -0.2441  0.3653
10986TIP3   OH254448   6.620   6.131  12.732  0.4465  0.1022 -0.4768
10986TIP3    H154449   6.685   6.185  12.688  1.2047 -0.6294 -0.2692
10986TIP3    H254450   6.599   6.063  12.668 -0.2210  0.4125 -0.5946
10987TIP3   OH254451   3.282   0.851   2.540  0.2797 -0.3571 -0.2184
10987TIP3    H154452   3.317   0.765   2.560 -1.2987 -1.3581 -1.4495
10987TIP3    H254453   3.319   0.873   2.454  0.8393  0.2925  0.1846
10988TIP3   OH254454   2.050   4.266   2.953  0.6885 -0.0363 -0.3821
10988TIP3    H154455   1.970   4.275   3.006  0.9504  1.2650 -0.1621
10988TIP3    H254456   2.069   4.173   2.955 -0.2225 -0.2334  0.4768
10989TIP3   OH254457   6.663   2.277  12.741 -0.1193  0.1806 -0.1867
10989TIP3    H154458   6.593   2.329  12.779  0.8512  0.9417  0.6311
10989TIP3    H254459   6.707   2.237  12.816 -0.4498 -1.3453 -0.7601
10990TIP3   OH254460   4.321   4.026  11.779 -0.6631 -0.3639 -0.4042
10990TIP3    H154461   4.369   3.947  11.805  2.1519  2.1383  3.0559
10990TIP3    H254462   4.363   4.054  11.698  0.0870 -1.0550 -0.2668
10991TIP3   OH254463   5.905   6.564  16.552 -0.5681  0.2179 -0.3489
10991TIP3    H154464   5.871   6.653  16.564 -0.5562  0.0497  1.1173
10991TIP3    H254465   5.834   6.518  16.508 -1.0255  0.6729 -0.1026
10992TIP3   OH254466   0.889   2.607   5.198  1.1685  0.2482 -0.5281
10992TIP3    H154467   0.932   2.666   5.136 -1.8595  2.4983 -0.7426
10992TIP3    H254468   0.879   2.659   5.278 -1.9522  0.3356 -0.8485
10993TIP3   OH254469   5.604   1.289   2.032  0.1162 -0.6967  0.2068
10993TIP3    H154470   5.636   1.342   2.105 -0.6453 -1.0605  0.8190
10993TIP3    H254471   5.681   1.238   2.004  1.1404  1.4310 -1.0712
10994TIP3   OH254472   4.991   6.030   5.964  0.2938 -0.2091 -0.0097
10994TIP3    H154473   5.004   6.035   6.058 -1.8495  3.1939  0.2518
10994TIP3    H254474   5.076   6.055   5.927  0.3421  1.4657  1.1294
10995TIP3   OH254475   3.370   3.790   0.547  0.1538  0.1719 -0.0756
10995TIP3    H154476   3.428   3.854   0.587 -0.4020  0.7654 -0.2062
10995TIP3    H254477   3.294   3.786   0.605 -0.0148 -0.0350 -0.3079
10996TIP3   OH254478   2.390   6.566   3.255 -0.1702  0.7925 -0.7849
10996TIP3    H154479   2.366   6.521   3.174  0.0556 -1.0722  0.1377
10996TIP3    H254480   2.308   6.570   3.305 -0.0150  0.7108 -0.5271
10997TIP3   OH254481   0.524   6.179   1.681 -0.2505 -0.0275  0.2918
10997TIP3    H154482   0.560   6.099   1.719 -0.7202 -0.5405 -0.3185
10997TIP3    H254483   0.432   6.179   1.708 -0.6385 -0.4906 -0.9379
10998TIP3   OH254484   1.604   1.422  15.704 -0.0414 -0.3358  0.7757
10998TIP3    H154485   1.648   1.389  15.626  0.5532 -0.0118  0.9639
10998TIP3    H254486   1.571   1.344  15.748 -0.5730 -0.5041  0.0894
10999TIP3   OH254487   0.245   5.159   0.393  0.3149 -0.3185 -0.0729
10999TIP3    H154488   0.197   5.154   0.310 -1.0500  0.0518  0.6488
10999TIP3    H254489   0.199   5.097   0.450 -0.0747  0.9204  0.9999
11000TIP3   OH254490   2.293   3.079  14.121 -0.1346 -0.2472 -0.1089
11000TIP3    H154491   2.318   3.142  14.053  0.4780 -0.3747 -0.0051
11000TIP3    H254492   2.283   2.996  14.074  0.6095 -0.4062 -0.0012
11001TIP3   OH254493   2.994   0.417  16.170 -0.5239 -0.3227  0.0804
11001TIP3    H154494   3.000   0.495  16.115  0.4157  0.0951  0.7551
11001TIP3    H254495   2.956   0.447  16.252  1.0132 -0.2886  0.8137
11002TIP3   OH254496   6.144   1.159   0.318  0.0695 -0.3655  0.6557
11002TIP3    H154497   6.137   1.064   0.316  0.5339 -0.4050 -1.1990
11002TIP3    H254498   6.151   1.181   0.411 -3.1653 -1.8460  1.3934
11003TIP3   OH254499   2.593   5.663  15.023  0.2225  0.9081  0.0114
11003TIP3    H154500   2.501   5.688  15.029 -0.4313 -1.1017 -0.7267
11003TIP3    H254501   2.640   5.736  15.064 -1.5140  2.8759 -1.2777
11004TIP3   OH254502   2.521   0.694  13.253 -0.1446 -0.0747  0.7745
11004TIP3    H154503   2.541   0.655  13.168  0.0783  0.9378  0.3478
11004TIP3    H254504   2.532   0.788  13.239 -1.0021  0.1738  1.6792
11005TIP3   OH254505   5.476   6.371   4.799  0.1323 -0.0950 -0.5854
11005TIP3    H154506   5.437   6.386   4.712 -1.3197 -0.8429 -0.0845
11005TIP3    H254507   5.473   6.277   4.811  0.9506 -0.0549  0.0270
11006TIP3   OH254508   0.678   3.363   4.858 -0.4143  0.3207 -0.1898
11006TIP3    H154509   0.594   3.355   4.902  0.2234 -0.1586  0.9849
11006TIP3    H254510   0.667   3.437   4.799 -0.8208  2.0441  1.9264
11007TIP3   OH254511   2.795   5.549  16.920  0.1299 -0.8652 -0.1004
11007TIP3    H154512   2.860   5.479  16.930  1.0691 -0.1456 -0.9728
11007TIP3    H254513   2.809   5.606  16.996 -0.3433 -1.3830  0.3802
11008TIP3   OH254514   2.260   6.565  16.158 -0.4626  0.0915  0.7249
11008TIP3    H154515   2.213   6.483  16.174 -0.0594 -0.2694  0.0913
11008TIP3    H254516   2.213   6.604  16.084 -0.6674  0.4442  1.0419
11009TIP3   OH254517   5.641   4.216   0.124  0.0614  0.5174 -0.2543
11009TIP3    H154518   5.698   4.139   0.128  0.0911  0.5948  1.0333
11009TIP3    H254519   5.588   4.210   0.203  0.7393  2.3367  0.3808
11010TIP3   OH254520   3.749   6.092   4.295  0.1502 -0.2615  0.1421
11010TIP3    H154521   3.734   6.093   4.201  1.8644 -4.7151 -0.4486
11010TIP3    H254522   3.822   6.152   4.308  0.1958  0.0687 -1.4457
11011TIP3   OH254523   2.432   4.880  12.820  0.1073 -0.3121 -0.0843
11011TIP3    H154524   2.484   4.803  12.795 -1.4087 -0.7058 -2.3157
11011TIP3    H254525   2.448   4.944  12.751 -0.5602  0.4579  0.4424
11012TIP3   OH254526   2.042   6.593   3.748 -0.2867  0.6579  0.0308
11012TIP3    H154527   2.136   6.596   3.730 -0.0910  0.4524  0.9743
11012TIP3    H254528   2.036   6.566   3.839 -1.2687  0.6410 -0.0310
11013TIP3   OH254529   0.446   1.078   1.488  0.3720  0.2229 -0.1534
11013TIP3    H154530   0.440   1.112   1.578 -0.1550  0.3541 -0.2345
11013TIP3    H254531   0.424   0.985   1.497  2.0565 -0.1807  0.1049
11014TIP3   OH254532   4.483   3.857  14.050 -0.2887 -0.1864 -0.7087
11014TIP3    H154533   4.470   3.787  14.114  0.0551  0.6955  0.3587
11014TIP3    H254534   4.564   3.833  14.004  0.2335 -0.1234  0.1590
11015TIP3   OH254535   6.440   0.836  12.242  0.1295 -0.1811 -0.0055
11015TIP3    H154536   6.437   0.928  12.268  0.3329 -0.0301 -0.4888
11015TIP3    H254537   6.462   0.839  12.148 -0.5980 -0.6977 -0.1957
11016TIP3   OH254538   6.065   3.657  13.794  0.3564 -0.2911 -0.0593
11016TIP3    H154539   6.054   3.750  13.776  0.4044 -0.2652  0.0460
11016TIP3    H254540   6.040   3.647  13.886  2.3512 -0.0217  0.5494
11017TIP3   OH254541   1.250   6.011   2.636 -0.2252 -0.5561 -0.2869
11017TIP3    H154542   1.269   5.957   2.559 -2.4366 -1.0632 -0.5719
11017TIP3    H254543   1.278   5.959   2.711 -4.0195 -3.1602 -0.4240
11018TIP3   OH254544   1.723   0.137   2.176 -0.0852 -0.4943  0.4576
11018TIP3    H154545   1.790   0.148   2.110 -1.6906  0.2039 -1.1404
11018TIP3    H254546   1.762   0.172   2.257  2.3297 -2.4126  0.2305
11019TIP3   OH254547   0.194   2.680  15.097 -0.1492  0.1784 -0.0580
11019TIP3    H154548   0.275   2.702  15.052 -0.3550  1.1676  0.0345
11019TIP3    H254549   0.168   2.596  15.060  1.2519 -0.4851  0.3877
11020TIP3   OH254550   3.031   4.851   0.755  0.4225  0.0602 -0.0411
11020TIP3    H154551   2.938   4.864   0.736  0.1516 -1.1197  0.3779
11020TIP3    H254552   3.053   4.920   0.817  0.0827  0.9394 -0.8706
11021TIP3   OH254553   5.962   6.410   5.483  0.0066 -0.5459  0.3700
11021TIP3    H154554   5.875   6.422   5.445 -0.4597 -0.5292  1.4257
11021TIP3    H254555   6.021   6.405   5.407 -0.8213  0.1310 -0.3318
11022TIP3   OH254556   2.423   2.014   6.178 -0.9160 -0.4243 -0.0919
11022TIP3    H154557   2.423   2.057   6.093  2.8353 -1.4272 -0.7818
11022TIP3    H254558   2.483   2.065   6.232 -0.8986 -1.5148  0.9716
11023TIP3   OH254559   2.594   0.748   1.536 -0.7979  0.3745  0.4401
11023TIP3    H154560   2.671   0.804   1.535  0.4894 -1.2976  0.4742
11023TIP3    H254561   2.552   0.763   1.451 -0.3387  1.1903  0.3514
11024TIP3   OH254562   2.172   4.933  13.922  0.5732 -0.0077 -0.0091
11024TIP3    H154563   2.244   4.971  13.973  0.8080 -1.9336  1.2099
11024TIP3    H254564   2.108   4.906  13.987 -1.5643  2.0843 -1.0958
11025TIP3   OH254565   0.770   3.525   4.474 -0.6398  0.3157 -0.1604
11025TIP3    H154566   0.694   3.514   4.417 -1.2827 -0.4752  0.8242
11025TIP3    H254567   0.797   3.436   4.496 -1.5689  0.5833  2.2823
11026TIP3   OH254568   5.799   2.548  11.408 -0.2147 -0.1365  0.0112
11026TIP3    H154569   5.789   2.514  11.319  1.4318  0.0777 -0.2825
11026TIP3    H254570   5.727   2.508  11.457 -0.2772 -1.4229 -1.0769
11027TIP3   OH254571   5.798   4.832  12.373  0.1979 -0.0082  0.4760
11027TIP3    H154572   5.708   4.799  12.363  0.3886 -0.4091  0.0323
11027TIP3    H254573   5.841   4.764  12.426  0.9443 -1.1643 -1.5157
11028TIP3   OH254574   4.153   4.693  11.502  0.1167 -0.3986 -0.0770
11028TIP3    H154575   4.145   4.613  11.554 -0.1395 -1.4912 -1.7141
11028TIP3    H254576   4.230   4.679  11.447  1.0078  1.1679  0.6891
11029TIP3   OH254577   0.214   0.005  16.316  0.3660  0.0038  0.3101
11029TIP3    H154578   0.284  -0.041  16.363  0.1082 -1.4714 -0.6898
11029TIP3    H254579   0.144   0.014  16.380  0.7075 -0.3163  0.7347
11030TIP3   OH254580   0.890   4.797  14.609 -0.5944 -0.2829 -0.6646
11030TIP3    H154581   0.863   4.842  14.689  0.1521 -1.6546  0.4152
11030TIP3    H254582   0.946   4.859  14.564 -0.3236  0.2104  0.3219
11031TIP3   OH254583   2.453   2.378   2.698 -0.2404  0.6781  0.3275
11031TIP3    H154584   2.395   2.453   2.711  0.6690  0.9518  3.6352
11031TIP3    H254585   2.513   2.407   2.629 -0.9593  2.3166  0.3339
11032TIP3   OH254586   6.116   2.854   1.712  0.6959 -0.0513 -0.1701
11032TIP3    H154587   6.176   2.865   1.785  0.9166  2.3672 -0.6378
11032TIP3    H254588   6.031   2.839   1.753  1.1796 -1.0044  0.5209
11033TIP3   OH254589   6.434   4.459  15.723  0.2808 -0.7649  0.4390
11033TIP3    H154590   6.509   4.430  15.671 -0.3006 -2.3169  0.4301
11033TIP3    H254591   6.458   4.437  15.813  1.2730  1.8835  0.9236
11034TIP3   OH254592   0.331   1.508  11.393 -0.0475 -0.0429 -0.0742
11034TIP3    H154593   0.341   1.454  11.315  2.2803 -0.1821  0.2423
11034TIP3    H254594   0.374   1.459  11.463  1.5557  1.8470  0.3713
11035TIP3   OH254595   1.737   0.803  14.731  0.1403  0.0596  0.3457
11035TIP3    H154596   1.757   0.748  14.655 -1.9342  0.6389 -0.6916
11035TIP3    H254597   1.765   0.891  14.706 -0.3038  0.2035  0.3401
11036TIP3   OH254598   4.805   2.542  16.072  0.5691 -0.0823 -0.3417
11036TIP3    H154599   4.876   2.492  16.030  1.2138  0.4769  0.0575
11036TIP3    H254600   4.781   2.608  16.007  0.3605 -0.3276 -0.5128
11037TIP3   OH254601   1.103   2.905   5.297  0.3082 -0.4180  0.1168
11037TIP3    H154602   1.023   2.866   5.331 -0.6613  1.1285 -0.2924
11037TIP3    H254603   1.084   2.999   5.292  2.2033  0.0078  0.1537
11038TIP3   OH254604   2.466   2.072  14.762 -0.1296  0.0684  0.1747
11038TIP3    H154605   2.492   2.100  14.850  0.1095 -0.6142  0.3279
11038TIP3    H254606   2.506   1.985  14.752 -0.1425  0.1523 -0.6154
11039TIP3   OH254607   1.712   1.945   0.203  0.7562  0.4896  0.0482
11039TIP3    H154608   1.660   1.973   0.278 -2.1533  2.1081 -2.3685
11039TIP3    H254609   1.788   2.003   0.203 -0.1254  1.6701  0.7277
11040TIP3   OH254610   4.890   6.653  16.266  0.0719  0.5325  0.3785
11040TIP3    H154611   4.942   6.620  16.339  1.2316  2.2382  0.3887
11040TIP3    H254612   4.948   6.643  16.190 -0.4202  0.4777  0.0041
11041TIP3   OH254613   5.183   0.295   5.193  0.1283  0.3929 -0.4322
11041TIP3    H154614   5.246   0.224   5.182 -0.5015 -0.1037 -0.8893
11041TIP3    H254615   5.098   0.255   5.177 -0.2390  1.2611 -0.7178
11042TIP3   OH254616   1.468   3.033  13.015 -0.5283  0.5519 -0.1006
11042TIP3    H154617   1.386   3.082  13.007 -1.0690  0.4316  3.2375
11042TIP3    H254618   1.442   2.948  13.049  0.9720  0.8039  1.8404
11043TIP3   OH254619   4.666   4.448   2.288 -0.0011  0.4550 -0.0582
11043TIP3    H154620   4.605   4.456   2.215 -1.9159  1.9193  1.5906
11043TIP3    H254621   4.651   4.527   2.341  0.5707 -1.0039  2.4469
11044TIP3   OH254622   0.107   0.120  10.958 -0.2754 -0.0366  0.0620
11044TIP3    H154623   0.080   0.158  10.875  3.1142 -2.2469 -2.3086
11044TIP3    H254624   0.042   0.052  10.976 -0.6478 -0.0315 -1.2059
11045TIP3   OH254625   0.757   0.941   6.853 -0.2303 -0.2481  0.6706
11045TIP3    H154626   0.787   0.916   6.766  1.2422  0.4191  0.9590
11045TIP3    H254627   0.755   1.036   6.851  0.4197 -0.2121  1.5626
11046TIP3   OH254628   1.036   3.089   5.702 -0.1944  0.1694  0.7781
11046TIP3    H154629   1.123   3.120   5.727  0.2845  0.7159 -1.3099
11046TIP3    H254630   0.976   3.146   5.749  0.6595  2.8237 -1.0602
11047TIP3   OH254631   0.609   4.074   4.196 -0.5531 -0.0515 -0.6404
11047TIP3    H154632   0.581   4.117   4.115 -0.2970  0.0776 -0.6602
11047TIP3    H254633   0.657   4.141   4.243 -0.0611 -0.3462 -0.7163
11048TIP3   OH254634   3.476   4.925  17.170  0.4686 -0.3701 -0.2017
11048TIP3    H154635   3.412   4.857  17.191  0.5673 -0.3699  0.1108
11048TIP3    H254636   3.497   4.966  17.254  2.3465 -1.6757  0.0399
11049TIP3   OH254637   3.775   4.540   3.427  0.0016 -0.5895  0.4694
11049TIP3    H154638   3.783   4.491   3.345  1.8372 -1.8565  1.3447
11049TIP3    H254639   3.693   4.589   3.417 -0.0638 -1.0509 -1.9155
11050TIP3   OH254640   5.935   1.292   0.194 -0.3441  0.0767  0.1770
11050TIP3    H154641   6.016   1.278   0.245 -0.1881  1.2910  0.2784
11050TIP3    H254642   5.965   1.298   0.104 -0.3808  0.0962  0.1663
11051TIP3   OH254643   5.047   3.019   2.306 -0.1584 -0.1766 -0.1172
11051TIP3    H154644   5.046   3.061   2.220  1.1546 -1.4952 -0.8127
11051TIP3    H254645   5.123   2.960   2.304 -0.0539 -0.2089  1.9648
11052TIP3   OH254646   0.734   6.118  12.006  0.3023 -0.2272 -0.2829
11052TIP3    H154647   0.686   6.201  12.007 -1.5759 -1.2571  0.1682
11052TIP3    H254648   0.745   6.097  11.914 -1.3943 -0.6482 -0.4082
11053TIP3   OH254649   3.723   1.040  13.385 -0.2909 -0.2369 -0.7752
11053TIP3    H154650   3.719   1.043  13.289 -0.8325  0.9106 -0.7373
11053TIP3    H254651   3.720   1.132  13.412 -1.3822 -0.5777  0.3746
11054TIP3   OH254652   2.558   0.301   1.039 -0.2868  0.4770  0.0046
11054TIP3    H154653   2.613   0.287   0.962 -0.9364  2.4860 -0.8990
11054TIP3    H254654   2.469   0.298   1.005 -0.5573  3.0878  0.2793
11055TIP3   OH254655   4.152   0.296  13.217  0.2924  0.6347 -0.0581
11055TIP3    H154656   4.227   0.274  13.161 -0.4020 -2.4372 -0.0080
11055TIP3    H254657   4.161   0.238  13.292 -2.0636  0.2134 -0.0282
11056TIP3   OH254658   2.602   2.317  10.845 -0.4300 -0.4336  0.1297
11056TIP3    H154659   2.659   2.361  10.781 -1.0453 -0.8877 -0.7555
11056TIP3    H254660   2.660   2.298  10.919  1.0645 -2.4061 -1.4162
11057TIP3   OH254661   5.361   5.023  15.248 -0.1580  0.2913 -0.1149
11057TIP3    H154662   5.371   4.953  15.312  0.5736  0.3593 -0.1492
11057TIP3    H254663   5.273   5.057  15.263 -0.4401 -0.4905  0.0468
11058TIP3   OH254664   2.354   1.874  12.297  0.1939  0.1850  0.7640
11058TIP3    H154665   2.303   1.800  12.263  0.0750  0.7601 -0.3849
11058TIP3    H254666   2.293   1.922  12.352 -0.4994  0.7838 -0.4828
11059TIP3   OH254667   3.926   2.292  17.197 -0.3542 -0.1604  0.6778
11059TIP3    H154668   3.921   2.368  17.255 -0.2787  0.0192  0.4503
11059TIP3    H254669   3.836   2.259  17.193 -1.4195  2.4686 -2.6078
11060TIP3   OH254670   3.203   4.376   3.521  0.2672  0.2512  0.0913
11060TIP3    H154671   3.125   4.387   3.576 -0.6072 -0.3045 -0.9964
11060TIP3    H254672   3.226   4.284   3.530 -0.6912 -0.1749 -1.4753
11061TIP3   OH254673   5.108   5.127   2.374  0.0331  0.5157 -0.0703
11061TIP3    H154674   5.035   5.137   2.435 -1.5425 -1.2242 -1.5903
11061TIP3    H254675   5.148   5.214   2.372 -2.0470  1.5674  0.7318
11062TIP3   OH254676   6.306   3.866  17.106 -1.0896 -0.4871 -0.0665
11062TIP3    H154677   6.353   3.849  17.024 -0.2275  0.1746  0.2646
11062TIP3    H254678   6.216   3.838  17.089 -0.9185 -0.3738 -1.2292
11063TIP3   OH254679   4.550   3.435   6.135 -0.1212 -0.2461 -0.0309
11063TIP3    H154680   4.458   3.456   6.119 -0.1669 -0.6468 -0.3182
11063TIP3    H254681   4.549   3.377   6.211 -0.2784 -1.7135 -1.1088
11064TIP3   OH254682   3.381   4.147   1.102 -0.3657 -0.4688  0.1403
11064TIP3    H154683   3.447   4.167   1.036  0.1072  0.0126  0.7472
11064TIP3    H254684   3.297   4.162   1.058 -0.0500  0.5722 -0.1247
11065TIP3   OH254685   3.676   1.724   4.204 -0.0349  0.1872 -0.2230
11065TIP3    H154686   3.617   1.666   4.155 -1.7377 -0.2533  2.1164
11065TIP3    H254687   3.617   1.774   4.261  1.7573  0.9548  1.0447
11066TIP3   OH254688   5.459   6.267   2.514  0.1708  0.2785 -0.1131
11066TIP3    H154689   5.403   6.285   2.590  0.6618  1.9725 -0.1000
11066TIP3    H254690   5.434   6.180   2.485 -0.7271  0.0038  1.3970
11067TIP3   OH254691   2.111   1.648  12.677  0.3473  0.0368  0.2270
11067TIP3    H154692   2.163   1.632  12.599 -0.1860  0.4198 -0.2201
11067TIP3    H254693   2.092   1.561  12.712 -0.2529 -0.1876 -0.6351
11068TIP3   OH254694   6.368   3.972  16.426 -0.1660  0.2351  0.0202
11068TIP3    H154695   6.295   3.942  16.372  0.9309 -2.1393 -0.2532
11068TIP3    H254696   6.343   3.949  16.515 -0.1702  0.3684  0.0551
11069TIP3   OH254697   4.452   2.148  12.730  0.1930 -0.1502  0.7417
11069TIP3    H154698   4.390   2.182  12.665  0.2961  1.7176  1.5584
11069TIP3    H254699   4.453   2.054  12.714 -0.4471  0.1355 -1.3811
11070TIP3   OH254700   0.665   1.030  13.403  0.0169 -0.1264  0.5272
11070TIP3    H154701   0.713   0.994  13.478 -1.1620  0.0500  1.3967
11070TIP3    H254702   0.693   0.977  13.329  1.6277  0.0424  0.9788
11071TIP3   OH254703   4.599   3.064  12.613  0.4258 -0.3893  0.2239
11071TIP3    H154704   4.514   3.021  12.604 -0.1359  0.9062 -0.9064
11071TIP3    H254705   4.649   3.006  12.671 -1.1100 -1.3203  0.6627
11072TIP3   OH254706   0.466   6.637  12.189  0.1038  0.3214  0.2947
11072TIP3    H154707   0.526   6.703  12.223  0.9395  0.5501 -1.4822
11072TIP3    H254708   0.523   6.565  12.161 -0.5415  0.0461 -0.3478
11073TIP3   OH254709   5.496   1.638  13.669  0.4214  0.0212 -0.1730
11073TIP3    H154710   5.569   1.700  13.676 -0.0488  0.6022 -0.3457
11073TIP3    H254711   5.420   1.692  13.647 -0.7419 -0.1354  2.9267
11074TIP3   OH254712   5.042   4.406   1.149  0.3417  0.3837  0.5035
11074TIP3    H154713   5.018   4.394   1.241  0.6179  2.4964  0.8989
11074TIP3    H254714   5.012   4.494   1.128  0.9160  0.1902 -1.2391
11075TIP3   OH254715   3.558   6.296   5.584  0.2102 -0.4293  0.4785
11075TIP3    H154716   3.571   6.372   5.526  0.7374 -0.2292  0.8531
11075TIP3    H254717   3.636   6.242   5.570  2.8489  1.8552  4.4006
11076TIP3   OH254718   4.502   2.898   5.244  0.1126  0.1235  0.2870
11076TIP3    H154719   4.496   2.850   5.161 -0.2447  0.0951  0.3270
11076TIP3    H254720   4.411   2.917   5.267  0.1844 -0.2382  0.8889
11077TIP3   OH254721   1.241   3.755  15.033  0.5086 -0.2709 -0.1381
11077TIP3    H154722   1.282   3.834  15.068 -1.8956  2.0596 -2.2057
11077TIP3    H254723   1.247   3.764  14.938  0.2430 -2.6879 -0.4501
11078TIP3   OH254724   0.996   2.692  15.028 -0.5321  0.1691 -0.0442
11078TIP3    H154725   0.958   2.614  15.068 -0.5371  0.5855  0.7745
11078TIP3    H254726   0.959   2.693  14.939 -1.8714  0.1493  0.4809
11079TIP3   OH254727   0.274   3.052   5.126  0.4377  0.5847  0.3280
11079TIP3    H154728   0.250   3.144   5.135 -0.9468  0.2774  0.0405
11079TIP3    H254729   0.281   3.021   5.217  2.4660  1.3026  0.4781
11080TIP3   OH254730   1.806   2.990   1.691  0.1161 -0.3404  0.0615
11080TIP3    H154731   1.901   2.974   1.686  0.5785  1.9864  0.0808
11080TIP3    H254732   1.780   2.950   1.774  1.7058  1.3239  1.4792
11081TIP3   OH254733   3.343   6.420   4.810  0.6350 -0.1097  0.4347
11081TIP3    H154734   3.361   6.327   4.797  0.3906 -0.0922 -0.0279
11081TIP3    H254735   3.419   6.452   4.858 -1.1680 -1.4646  4.6820
11082TIP3   OH254736   6.219   6.569   3.224 -0.3339 -0.5875  0.0145
11082TIP3    H154737   6.218   6.613   3.140  0.5634 -0.5539  0.0087
11082TIP3    H254738   6.198   6.638   3.288  1.8831  0.0950  0.0916
11083TIP3   OH254739   1.159   4.321  12.917  0.0423 -0.3267 -0.5569
11083TIP3    H154740   1.187   4.348  13.005  0.6011 -0.8536 -0.5689
11083TIP3    H254741   1.198   4.387  12.859  0.0449 -0.2346 -0.4529
11084TIP3   OH254742   1.930   1.089  11.760  0.0637 -0.5164  0.3150
11084TIP3    H154743   1.982   1.010  11.744 -0.0287 -0.6764  0.8052
11084TIP3    H254744   1.847   1.057  11.796 -0.6495 -0.3117 -1.0561
11085TIP3   OH254745   3.998   0.569   5.381  0.2559  0.6004 -0.0373
11085TIP3    H154746   3.944   0.515   5.323  0.6918  0.8213 -0.6570
11085TIP3    H254747   4.088   0.552   5.354  0.4864  0.5598  0.7110
11086TIP3   OH254748   5.519   3.492  13.325  0.0541  0.4133 -0.6734
11086TIP3    H154749   5.537   3.412  13.373  1.0291  2.0255  1.8416
11086TIP3    H254750   5.423   3.500  13.328 -0.1327 -1.0291 -1.7143
11087TIP3   OH254751   2.720   1.532  12.575  0.0173 -0.0021 -0.4325
11087TIP3    H154752   2.705   1.489  12.491 -0.5589  0.8283 -0.7575
11087TIP3    H254753   2.767   1.612  12.554 -0.3533  0.3384  0.0121
11088TIP3   OH254754   4.285   1.108  13.717  0.0427 -0.4774 -0.5801
11088TIP3    H154755   4.329   1.033  13.676  0.9177 -0.3042  0.0327
11088TIP3    H254756   4.349   1.179  13.714 -0.4363 -0.0238 -0.2870
11089TIP3   OH254757   6.110   3.259   6.011  0.0525  0.1902 -0.5841
11089TIP3    H154758   6.116   3.325   6.080 -0.5974 -0.7919  0.4520
11089TIP3    H254759   6.192   3.211   6.016 -0.6478 -0.9381  0.6535
11090TIP3   OH254760   6.090   5.859  11.704 -0.3571  0.2840 -0.6042
11090TIP3    H154761   6.172   5.896  11.736 -0.4426  1.0726 -1.2618
11090TIP3    H254762   6.114   5.771  11.674 -0.4429 -0.8462  2.3379
11091TIP3   OH254763   1.160   1.728   1.277 -0.3978  0.2672  0.0027
11091TIP3    H154764   1.164   1.784   1.355 -0.2704 -0.9593  0.8983
11091TIP3    H254765   1.243   1.745   1.232  0.0597  0.0859  0.7680
11092TIP3   OH254766   3.107   0.026  11.210 -0.0104 -0.1356 -0.3172
11092TIP3    H154767   3.074   0.019  11.120  0.3081  0.3727 -0.4850
11092TIP3    H254768   3.198  -0.005  11.204 -0.3843 -1.3191  0.0929
11093TIP3   OH254769   4.187   5.166   0.816  0.0266 -0.0201 -0.0002
11093TIP3    H154770   4.146   5.165   0.729 -0.0418 -0.9755  0.0244
11093TIP3    H254771   4.186   5.074   0.843  0.3972  0.2189  0.8509
11094TIP3   OH254772   1.706   0.085   1.267  0.3582 -0.1720 -0.1001
11094TIP3    H154773   1.652   0.156   1.234  0.3606 -0.1622 -0.0829
11094TIP3    H254774   1.665   0.005   1.233  0.3676 -0.1614 -0.1368
11095TIP3   OH254775   5.245   0.473  11.344 -0.4184 -0.0939 -0.2006
11095TIP3    H154776   5.209   0.531  11.277 -0.0081 -0.1855 -0.5017
11095TIP3    H254777   5.170   0.452  11.400 -0.4569  1.1730  0.2433
11096TIP3   OH254778   4.292   6.194  11.284  0.6495 -0.4800  0.1578
11096TIP3    H154779   4.348   6.222  11.356  1.7260  0.0447 -0.8615
11096TIP3    H254780   4.352   6.171  11.213 -0.3837  0.9378 -1.2849
11097TIP3   OH254781   0.047   2.733  17.170 -0.6434  0.4098  0.0467
11097TIP3    H154782  -0.038   2.773  17.188 -0.7942  1.1198 -1.9645
11097TIP3    H254783   0.088   2.791  17.106  0.0427 -1.5293 -1.3716
11098TIP3   OH254784   5.477   1.002   3.672 -0.0982  0.0758  0.6639
11098TIP3    H154785   5.559   0.973   3.633 -0.4881 -0.5186  0.2671
11098TIP3    H254786   5.485   1.097   3.677 -0.4805  0.3148 -1.9595
11099TIP3   OH254787   3.498   4.349   5.545 -0.1707 -0.0273 -0.3233
11099TIP3    H154788   3.414   4.393   5.557  0.0060 -0.2462  2.0194
11099TIP3    H254789   3.479   4.256   5.559  0.0971 -0.3749 -1.9631
11100TIP3   OH254790   6.555   5.118  16.147 -0.2609  0.3771  0.1659
11100TIP3    H154791   6.554   5.030  16.187  1.1509  0.7132  1.0074
11100TIP3    H254792   6.576   5.102  16.055  1.7476 -0.0965  0.6595
11101TIP3   OH254793   6.662   6.533   0.722  0.3407  0.1622  0.5723
11101TIP3    H154794   6.609   6.455   0.707  2.1348 -1.7744  3.3327
11101TIP3    H254795   6.666   6.577   0.637  1.5780 -4.2502 -1.9239
11102TIP3   OH254796   5.018   6.583  11.667 -0.2406 -0.5552 -0.0106
11102TIP3    H154797   5.042   6.506  11.718 -1.8947 -1.1053 -0.0072
11102TIP3    H254798   5.102   6.620  11.638  0.7765 -0.3326  2.9125
11103TIP3   OH254799   1.033   4.944  16.348 -0.5174 -0.0856 -0.3709
11103TIP3    H154800   1.094   5.016  16.357 -0.5298 -0.1990  0.7286
11103TIP3    H254801   1.086   4.865  16.362 -0.6607 -0.2554 -0.7522
11104TIP3   OH254802   5.839   6.099   5.029  0.4035 -0.0669  0.0022
11104TIP3    H154803   5.746   6.117   5.042  0.3615 -0.8933  1.0140
11104TIP3    H254804   5.843   6.006   5.005  0.8278  0.4419 -2.1964
11105TIP3   OH254805   4.885   6.820  10.749 -0.6492 -0.2685 -0.4239
11105TIP3    H154806   4.816   6.844  10.810  0.1521  0.3393  0.2742
11105TIP3    H254807   4.908   6.902  10.705 -0.0321 -0.3569 -0.2799
11106TIP3   OH254808   4.810   0.868  17.060  0.5252  0.2764  0.2590
11106TIP3    H154809   4.888   0.815  17.076 -0.3232 -1.4773 -1.1494
11106TIP3    H254810   4.843   0.944  17.011  1.5420  0.3489  1.0122
11107TIP3   OH254811   5.500   0.917  11.765  0.2962 -0.3353 -0.0212
11107TIP3    H154812   5.471   1.006  11.786  2.5097  0.7995 -1.3190
11107TIP3    H254813   5.509   0.917  11.670 -0.2314 -2.1742 -0.1065
11108TIP3   OH254814   1.689   6.231  14.211  0.3265 -0.0121  0.1047
11108TIP3    H154815   1.695   6.309  14.155 -0.1802  1.1775  1.6543
11108TIP3    H254816   1.650   6.262  14.292  0.5076 -1.8154  0.9331
11109TIP3   OH254817   2.160   0.784   2.287  0.0008 -0.5638 -0.3870
11109TIP3    H154818   2.237   0.779   2.231  0.5833 -0.4935  0.3939
11109TIP3    H254819   2.165   0.706   2.343  0.5271  0.3951  0.9441
11110TIP3   OH254820   4.840   2.662  15.057  0.0422  0.3613 -0.2257
11110TIP3    H154821   4.836   2.611  15.138 -1.3603 -1.1437 -1.1778
11110TIP3    H254822   4.752   2.698  15.047  0.0437  0.0841 -1.3421
11111TIP3   OH254823   6.200   1.410  15.109  0.2826  0.5475  0.3317
11111TIP3    H154824   6.211   1.494  15.153 -0.0727  1.0846 -0.5681
11111TIP3    H254825   6.222   1.428  15.017 -2.4219  0.3609 -0.4438
11112TIP3   OH254826   5.126   6.741   0.400  0.1585  0.2856 -0.8458
11112TIP3    H154827   5.213   6.727   0.361  0.3903  0.4890 -0.4045
11112TIP3    H254828   5.084   6.804   0.341  0.6491  0.8850 -0.5729
11113TIP3   OH254829   4.330   3.305  17.019 -0.2161 -0.6145 -0.1642
11113TIP3    H154830   4.272   3.381  17.016 -1.1586 -1.3375 -0.9074
11113TIP3    H254831   4.280   3.240  17.069 -1.0028 -1.9768 -2.5755
11114TIP3   OH254832   3.710   3.608  13.040 -0.6616 -0.0722  0.7298
11114TIP3    H154833   3.643   3.611  12.972 -0.1129  3.1431  0.1703
11114TIP3    H254834   3.787   3.571  12.996 -0.9953 -0.2932  0.3252
11115TIP3   OH254835   0.626   2.887  11.309  0.0478 -0.2868 -0.3833
11115TIP3    H154836   0.597   2.801  11.279 -0.9195  0.2363 -1.0105
11115TIP3    H254837   0.576   2.949  11.256 -0.6881  0.6696  1.3485
11116TIP3   OH254838   5.600   2.537   2.230 -0.4274  0.0722  0.8124
11116TIP3    H154839   5.619   2.508   2.140  1.5058  2.4498  0.3646
11116TIP3    H254840   5.505   2.523   2.239 -0.3161 -2.3377 -0.7398
11117TIP3   OH254841   1.424   1.399  14.768 -0.4461  0.4908  0.0800
11117TIP3    H154842   1.439   1.381  14.860 -2.1573 -0.2454  0.2453
11117TIP3    H254843   1.482   1.473  14.748  0.7110 -0.0060  1.4516
11118TIP3   OH254844   6.770   1.380   3.053 -0.0003  0.5202 -0.3170
11118TIP3    H154845   6.813   1.423   3.128  0.6702 -0.5331 -0.0721
11118TIP3    H254846   6.838   1.324   3.016 -0.8500 -0.3364 -0.6101
11119TIP3   OH254847   5.261   1.937   1.092  0.6840 -0.5416 -0.8641
11119TIP3    H154848   5.319   1.872   1.131  1.1433 -0.5634 -1.5762
11119TIP3    H254849   5.211   1.889   1.027 -1.1783 -0.8459  0.7054
11120TIP3   OH254850   2.168   3.471  17.147 -0.4652  0.3893 -0.1176
11120TIP3    H154851   2.140   3.481  17.056 -0.7864 -1.6767 -0.3095
11120TIP3    H254852   2.147   3.380  17.168 -0.1403  0.7478  1.9480
11121TIP3   OH254853   5.881   2.422  14.451 -0.6773 -0.2460  0.4921
11121TIP3    H154854   5.892   2.352  14.515  1.0506 -0.9112 -0.4523
11121TIP3    H254855   5.939   2.492  14.481 -1.1411  0.1135  0.5517
11122TIP3   OH254856   5.802   2.704  10.936  0.0149 -0.4822  0.3932
11122TIP3    H154857   5.753   2.688  10.856  0.1151  0.8817  0.0267
11122TIP3    H254858   5.880   2.649  10.928 -0.0554 -0.4857 -0.3823
11123TIP3   OH254859   4.695   0.523   0.994  0.4287  0.5800  0.2565
11123TIP3    H154860   4.745   0.604   1.011  0.0526  0.7164  0.7490
11123TIP3    H254861   4.652   0.539   0.910  1.8467  0.1408 -0.5722
11124TIP3   OH254862   2.747   6.311  16.968  0.4442  0.6024  0.3203
11124TIP3    H154863   2.809   6.314  16.895  0.4852 -1.0886  0.2368
11124TIP3    H254864   2.740   6.402  16.998  2.2147  0.9831 -0.3009
11125TIP3   OH254865   0.891   4.356   1.477  0.1421  0.7665 -0.1294
11125TIP3    H154866   0.855   4.311   1.401 -0.8173  0.3957  0.5266
11125TIP3    H254867   0.815   4.392   1.523  0.2786 -1.8468  2.4658
11126TIP3   OH254868   1.022   0.169   4.033  0.1267 -0.0255  0.1393
11126TIP3    H154869   1.061   0.132   4.112 -1.3043 -1.2022  0.3294
11126TIP3    H254870   1.083   0.238   4.007  0.9097  0.0333  1.9510
11127TIP3   OH254871   6.365   5.051  14.454  0.2410 -0.0178 -0.1376
11127TIP3    H154872   6.359   5.099  14.371 -0.5923 -0.8707 -0.5857
11127TIP3    H254873   6.333   4.964  14.434  0.1772 -0.2873  1.0556
11128TIP3   OH254874   3.613   0.788   0.065  0.4939 -0.1054  0.1546
11128TIP3    H154875   3.697   0.763   0.027  0.5640 -0.2938  0.4269
11128TIP3    H254876   3.592   0.716   0.125 -0.7508 -1.0096 -1.2742
11129TIP3   OH254877   4.162   1.929  12.739  0.0410 -0.3529 -0.1372
11129TIP3    H154878   4.156   2.024  12.749 -1.3562 -0.6111  2.2925
11129TIP3    H254879   4.222   1.901  12.808  2.1934 -1.1323 -2.1822
11130TIP3   OH254880   4.992   0.793   2.124 -0.0607 -0.9073  0.5061
11130TIP3    H154881   5.002   0.698   2.134  2.3376 -0.8074 -0.3089
11130TIP3    H254882   5.005   0.809   2.030 -4.1716 -0.0520 -0.1515
11131TIP3   OH254883   1.263   0.819  10.972 -0.4327 -0.2367 -0.8538
11131TIP3    H154884   1.231   0.764  11.044 -0.2970 -1.9271 -2.0171
11131TIP3    H254885   1.224   0.905  10.989 -1.4537 -0.9226  0.5332
11132TIP3   OH254886   3.343   4.270   4.018 -0.2663 -0.6058 -0.0166
11132TIP3    H154887   3.347   4.326   3.940  1.0180 -0.2820  0.2526
11132TIP3    H254888   3.260   4.224   4.010 -0.1306 -0.6390 -1.6262
11133TIP3   OH254889   5.330   6.834  16.544  1.2027 -0.0325  0.0272
11133TIP3    H154890   5.330   6.835  16.448 -1.0447  1.5695 -0.0419
11133TIP3    H254891   5.331   6.741  16.567  2.4404 -0.4389 -1.5082
11134TIP3   OH254892   3.864   1.004  15.648  0.1791  0.1503  0.3856
11134TIP3    H154893   3.801   1.057  15.599 -0.0666  2.6795  3.1606
11134TIP3    H254894   3.810   0.949  15.704  0.4318  0.6473  1.1224
11135TIP3   OH254895   6.273   4.812   4.678 -0.3109  0.1394 -0.1509
11135TIP3    H154896   6.203   4.748   4.685 -0.6344  0.5598  0.6169
11135TIP3    H254897   6.237   4.892   4.718  0.2592  0.6448 -0.6298
11136TIP3   OH254898   0.541   2.597   2.166  0.4804  0.3629  0.5981
11136TIP3    H154899   0.624   2.580   2.122  0.4580  2.5024 -0.3381
11136TIP3    H254900   0.474   2.567   2.105  0.5194 -0.3231  0.8814
11137TIP3   OH254901   2.348   6.455  10.841  0.2445 -0.6458  0.0708
11137TIP3    H154902   2.268   6.407  10.820 -0.1101  0.2378 -0.6178
11137TIP3    H254903   2.348   6.459  10.937 -0.9484  0.0269  0.0590
11138TIP3   OH254904   0.239   5.406  16.943  0.0363  0.7221 -0.3368
11138TIP3    H154905   0.145   5.416  16.931  0.2484  1.1392 -1.8819
11138TIP3    H254906   0.269   5.493  16.971 -0.2713  0.0862  2.2075
11139TIP3   OH254907   4.847   1.993  15.644  0.1839 -0.4183  0.0262
11139TIP3    H154908   4.933   1.968  15.610  0.2763 -2.5200  1.6177
11139TIP3    H254909   4.785   1.947  15.588  0.2522 -1.7202  0.9750
11140TIP3   OH254910   5.873   1.184   3.084 -0.2097  0.0487 -0.0853
11140TIP3    H154911   5.890   1.267   3.128  0.9326  0.6789 -1.6502
11140TIP3    H254912   5.780   1.167   3.100 -0.1108  0.8270  1.5309
11141TIP3   OH254913   2.372   6.289  16.657 -0.1928  0.4832  0.1859
11141TIP3    H154914   2.343   6.198  16.665  0.1206  0.3499 -0.1610
11141TIP3    H254915   2.294   6.341  16.676 -0.2626  0.1464  0.8390
11142TIP3   OH254916   2.719   1.040  13.166 -0.4608 -0.3188 -0.5668
11142TIP3    H154917   2.717   1.048  13.070  0.9514 -0.3224 -0.6120
11142TIP3    H254918   2.627   1.047  13.192 -0.7382  1.2199 -1.7964
11143TIP3   OH254919   3.371   3.464  11.697  0.1110  0.4966 -0.2395
11143TIP3    H154920   3.461   3.434  11.685 -0.3218 -0.1801 -1.9289
11143TIP3    H254921   3.357   3.526  11.626 -2.1350 -2.7355 -2.9164
11144TIP3   OH254922   0.286   6.770  16.755  0.0898  0.1245  0.3270
11144TIP3    H154923   0.380   6.780  16.742 -0.2386  0.6221 -2.2737
11144TIP3    H254924   0.254   6.859  16.769  0.0150 -0.0638  1.3929
11145TIP3   OH254925   0.546   0.044   3.770 -0.4697  0.0586 -0.5021
11145TIP3    H154926   0.522   0.108   3.837 -2.0507 -1.5765  0.5625
11145TIP3    H254927   0.630   0.009   3.800 -1.3305 -0.9160  0.8785
11146TIP3   OH254928   5.050   3.127   3.509 -0.1924 -0.1673 -0.2358
11146TIP3    H154929   5.089   3.167   3.431 -1.0798  1.7960  0.2653
11146TIP3    H254930   5.074   3.185   3.581 -4.0026  1.2736  0.0875
11147TIP3   OH254931   1.509   1.992  14.541 -0.2508  0.0104  0.0352
11147TIP3    H154932   1.562   1.921  14.504  1.5928  0.5162  1.5147
11147TIP3    H254933   1.557   2.071  14.520 -0.9264  0.5876  0.6037
11148TIP3   OH254934   2.812   5.573  13.875  0.3165  0.1457  0.0067
11148TIP3    H154935   2.842   5.558  13.965 -0.2259  0.0259  0.1679
11148TIP3    H254936   2.802   5.486  13.837  2.2452  0.2020 -0.7524
11149TIP3   OH254937   6.397   4.158  13.378 -0.2698 -0.0327 -0.0842
11149TIP3    H154938   6.466   4.117  13.430 -1.8003 -3.7029 -0.6747
11149TIP3    H254939   6.342   4.203  13.442  1.3765  1.0688  0.6211
11150TIP3   OH254940   1.725   5.653   5.750 -0.5211  0.2171  0.6554
11150TIP3    H154941   1.703   5.567   5.784 -1.0658  0.3327  0.6102
11150TIP3    H254942   1.732   5.709   5.828  0.7658 -0.0636  0.7552
11151TIP3   OH254943   3.320   3.151  14.913  0.1262 -0.4616 -0.4029
11151TIP3    H154944   3.373   3.114  14.842 -1.6958 -0.2714 -1.9327
11151TIP3    H254945   3.236   3.171  14.872 -1.1619 -0.7707  1.9213
11152TIP3   OH254946   3.516   6.086   1.788 -0.2553 -0.0132 -0.0517
11152TIP3    H154947   3.494   6.069   1.880  0.7155 -0.7492  0.0535
11152TIP3    H254948   3.570   6.165   1.791 -1.0948  0.5762 -0.1060
11153TIP3   OH254949   3.648   6.408   4.147  0.7195  0.2171 -0.3277
11153TIP3    H154950   3.689   6.327   4.116  1.3230  0.7541 -0.9439
11153TIP3    H254951   3.721   6.468   4.162  0.1964  1.0492 -1.0472
11154TIP3   OH254952   2.884   1.781  14.872 -0.2055 -0.1760  0.2485
11154TIP3    H154953   2.936   1.725  14.815 -0.8307  0.4412 -0.9623
11154TIP3    H254954   2.947   1.844  14.908 -0.0760  0.6384 -1.2964
11155TIP3   OH254955   1.497   5.103  15.414 -0.3828 -0.1073 -0.2252
11155TIP3    H154956   1.534   5.187  15.440 -1.0364  0.2418 -0.3854
11155TIP3    H254957   1.507   5.048  15.492  0.0238  0.1259 -0.1097
11156TIP3   OH254958   6.101   0.674   2.624  0.2045  0.1450  0.5413
11156TIP3    H154959   6.074   0.617   2.696 -1.0716  0.1961  0.1309
11156TIP3    H254960   6.031   0.739   2.616  0.5269  0.4025 -0.4688
11157TIP3   OH254961   1.422   3.273  14.497 -0.2265  0.3271  0.4603
11157TIP3    H154962   1.346   3.219  14.522 -0.4709  0.7888  0.7300
11157TIP3    H254963   1.402   3.360  14.533 -0.2599  0.8416 -0.7363
11158TIP3   OH254964   5.411   2.289  13.469 -0.0432 -0.3803 -0.4862
11158TIP3    H154965   5.444   2.341  13.542 -0.1340 -0.1132 -0.6334
11158TIP3    H254966   5.363   2.352  13.415 -1.5442 -0.9362  0.1703
11159TIP3   OH254967   6.306   0.201   3.070  0.4240  0.3885  0.3634
11159TIP3    H154968   6.251   0.264   3.117 -0.4470 -0.4461  0.4915
11159TIP3    H254969   6.380   0.185   3.129 -0.3945 -0.2567  1.2310
11160TIP3   OH254970   1.220   1.277  13.527  0.0225 -0.1478  0.0654
11160TIP3    H154971   1.268   1.336  13.585  0.6853 -1.3850  0.8046
11160TIP3    H254972   1.220   1.192  13.572 -2.9811 -0.2188  0.1752
11161TIP3   OH254973   2.906   3.180   0.639 -0.3508 -0.2726  0.8101
11161TIP3    H154974   2.867   3.103   0.598  2.4939 -0.7330 -1.3236
11161TIP3    H254975   2.901   3.248   0.572 -0.9049  0.7843  1.8909
11162TIP3   OH254976   5.198   0.211  12.957 -0.1378  0.0572 -0.5045
11162TIP3    H154977   5.286   0.226  12.990 -0.9352 -0.0883  1.8297
11162TIP3    H254978   5.212   0.170  12.871  2.0764 -0.9304  0.2477
11163TIP3   OH254979   2.410   0.838  16.275 -0.0918 -0.3710 -0.3093
11163TIP3    H154980   2.315   0.842  16.271 -0.3688 -3.3513  0.5474
11163TIP3    H254981   2.440   0.922  16.241 -3.0255  1.1434  0.5933
11164TIP3   OH254982   0.871   3.902  14.458 -0.4880 -0.1340 -0.8697
11164TIP3    H154983   0.812   3.841  14.415 -0.7885 -2.4628  2.5114
11164TIP3    H254984   0.817   3.980  14.475 -1.8026 -1.1360 -0.3104
11165TIP3   OH254985   6.778   4.579   3.543 -0.1645 -0.2582  0.4804
11165TIP3    H154986   6.696   4.599   3.587 -1.0016 -1.7164 -0.3256
11165TIP3    H254987   6.827   4.661   3.544 -1.1849  0.3689  1.8973
11166TIP3   OH254988   2.839   6.308   1.460 -0.2753  0.1697 -0.2062
11166TIP3    H154989   2.789   6.379   1.501  0.1774 -0.0385  0.7419
11166TIP3    H254990   2.776   6.263   1.404 -1.4842 -0.7736  1.8139
11167TIP3   OH254991   6.156   3.013  14.227 -1.0811 -0.0497 -0.5818
11167TIP3    H154992   6.116   2.928  14.246  1.2767 -1.0890  0.0068
11167TIP3    H254993   6.221   2.994  14.159 -0.3721  1.2363 -0.2869
11168TIP3   OH254994   2.727   6.456   0.873 -0.6478 -0.1149 -0.5390
11168TIP3    H154995   2.718   6.506   0.792 -0.4630 -0.4173 -0.7493
11168TIP3    H254996   2.816   6.423   0.871 -0.6007 -0.0182 -0.1464
11169TIP3   OH254997   0.895   5.126   5.245 -0.2496  0.0662 -0.2398
11169TIP3    H154998   0.887   5.034   5.271 -0.6072  0.3813  0.8060
11169TIP3    H254999   0.972   5.158   5.291 -1.0750  0.7214  0.7297
11170TIP3   OH255000   2.726   3.802  10.594  0.0862  0.3373 -0.0771
11170TIP3    H155001   2.786   3.728  10.600  2.4318  2.0745 -0.5897
11170TIP3    H255002   2.646   3.765  10.556  0.9263 -2.0185  0.2920
11171TIP3   OH255003   2.052   4.615  12.631  0.1368  0.5029  0.3231
11171TIP3    H155004   2.080   4.538  12.680  1.3103 -0.2847 -1.4776
11171TIP3    H255005   2.011   4.671  12.696 -0.0673 -1.3043  1.8285
11172TIP3   OH255006   5.417   3.669   1.426 -0.5258 -0.1998  0.0908
11172TIP3    H155007   5.332   3.712   1.424 -0.5725 -0.3087 -0.3967
11172TIP3    H255008   5.457   3.691   1.342 -0.9357 -1.8751 -0.5815
11173TIP3   OH255009   5.037   5.214  11.819 -0.3128 -0.3004  0.2455
11173TIP3    H155010   5.107   5.272  11.789  0.1706 -0.8700  0.2568
11173TIP3    H255011   5.030   5.148  11.751  0.7185 -1.5492  1.3011
11174TIP3   OH255012   4.781   2.426   1.456 -0.2405 -0.3480 -0.3158
11174TIP3    H155013   4.710   2.452   1.398 -1.5034 -0.2303  1.2105
11174TIP3    H255014   4.846   2.496   1.448 -0.8356  0.1532 -0.8386
11175TIP3   OH255015   5.985   6.381  13.833 -0.1723 -0.0765  0.4650
11175TIP3    H155016   5.920   6.402  13.901 -0.7339 -0.1585 -0.0304
11175TIP3    H255017   6.032   6.305  13.868  0.5593  0.7840  1.4159
11176TIP3   OH255018   0.906   4.809   3.640 -0.3496  0.0073  0.2640
11176TIP3    H155019   0.838   4.768   3.587 -1.3972  0.9170  0.8750
11176TIP3    H255020   0.950   4.870   3.580  0.6457 -1.2972 -0.4081
11177TIP3   OH255021   5.800   4.527  13.760 -0.2093  1.1113  0.1891
11177TIP3    H155022   5.756   4.549  13.678  0.8667  2.1120 -0.1589
11177TIP3    H255023   5.744   4.462  13.801 -1.4284  1.5334 -0.7399
11178TIP3   OH255024   3.039   1.626  16.813  0.0403 -0.0038 -0.1896
11178TIP3    H155025   3.021   1.710  16.770 -1.5777 -1.0693 -1.7071
11178TIP3    H255026   2.996   1.633  16.898 -0.2462  0.6192 -0.3804
11179TIP3   OH255027   5.133   5.310  16.300  0.2268  0.1808  1.0763
11179TIP3    H155028   5.074   5.236  16.284  2.3489 -1.3992  0.1878
11179TIP3    H255029   5.180   5.287  16.379  0.5206  0.8511  1.1068
11180TIP3   OH255030   3.257   0.891  13.785  0.0337 -0.7159 -0.4036
11180TIP3    H155031   3.270   0.802  13.751 -0.0327 -1.1039  0.5675
11180TIP3    H255032   3.345   0.919  13.813  0.0909 -0.3889 -0.8899
11181TIP3   OH255033   5.590   2.920  16.060  0.2621 -0.2310 -0.1740
11181TIP3    H155034   5.598   2.993  16.121 -1.0820 -0.6220  0.5368
11181TIP3    H255035   5.634   2.949  15.980  2.6051  0.0733  1.1495
11182TIP3   OH255036   2.160   0.746  16.659 -0.4106 -0.0956  0.0840
11182TIP3    H155037   2.095   0.727  16.726 -0.7042  0.4159 -0.0548
11182TIP3    H255038   2.178   0.660  16.619 -0.1553 -0.4185  0.8704
11183TIP3   OH255039   5.040   3.463   1.252 -0.1439 -0.3221 -0.4371
11183TIP3    H155040   4.967   3.465   1.314 -1.4540 -0.3466 -1.9065
11183TIP3    H255041   5.075   3.374   1.259  0.4442 -0.0106  1.0029
11184TIP3   OH255042   5.746   0.213  15.005  0.7222  0.1510  0.5249
11184TIP3    H155043   5.787   0.299  15.001 -0.5865  0.7766 -2.6000
11184TIP3    H255044   5.656   0.231  15.032  0.7487 -0.4031  1.0012
11185TIP3   OH255045   2.989   5.304  11.440  0.5098  0.3561 -0.6474
11185TIP3    H155046   2.980   5.232  11.503  0.7234 -0.5357 -1.6219
11185TIP3    H255047   3.062   5.356  11.474 -0.3851  0.8056  0.6972
11186TIP3   OH255048   0.357   6.012  16.077  0.3926  0.0229 -0.6585
11186TIP3    H155049   0.346   6.012  15.982  1.6908  1.3876 -0.8492
11186TIP3    H255050   0.436   5.961  16.092 -1.6728 -3.3074  0.0663
11187TIP3   OH255051   5.940   0.335   1.447  0.3024  0.4192 -0.1347
11187TIP3    H155052   5.962   0.412   1.394 -2.3633  0.3917 -1.4547
11187TIP3    H255053   5.874   0.366   1.509 -1.6047 -0.9072 -1.3761
11188TIP3   OH255054   6.480   1.434   0.929 -0.0195  0.2947 -0.1288
11188TIP3    H155055   6.395   1.463   0.896  0.4879 -1.7129 -3.6803
11188TIP3    H255056   6.464   1.345   0.961  0.6389  0.1176 -0.2788
11189TIP3   OH255057   0.139   2.364  13.902 -0.7757  0.0741  0.4960
11189TIP3    H155058   0.213   2.305  13.895 -0.2931  0.8133 -1.1862
11189TIP3    H255059   0.164   2.440  13.849 -2.7794  0.2757 -0.2548
11190TIP3   OH255060   4.620   5.831  14.232  0.3120 -0.9224 -0.4968
11190TIP3    H155061   4.687   5.878  14.282  0.4450  0.2491 -1.6985
11190TIP3    H255062   4.643   5.739  14.240  0.3437 -0.7717  1.5338
11191TIP3   OH255063   1.605   3.466  16.803 -0.4534  0.2456 -0.8889
11191TIP3    H155064   1.618   3.439  16.894  0.0499  0.4236 -0.9065
11191TIP3    H255065   1.625   3.388  16.752 -2.4890 -0.4094 -0.7803
11192TIP3   OH255066   2.596   6.466  13.201 -0.5669  0.1240  0.0774
11192TIP3    H155067   2.556   6.532  13.257 -1.4895  0.2899 -0.7595
11192TIP3    H255068   2.573   6.492  13.112 -0.2640 -0.8793 -0.3115
11193TIP3   OH255069   5.913   2.492  16.445 -0.1280 -0.7579  0.1054
11193TIP3    H155070   5.966   2.553  16.394 -0.1757 -0.9281 -0.1512
11193TIP3    H255071   5.910   2.529  16.532  0.2588 -0.6512  0.0715
11194TIP3   OH255072   2.679   4.041  11.911  0.3633  0.0843  0.2135
11194TIP3    H155073   2.718   4.128  11.900 -0.1932  0.2746 -0.3298
11194TIP3    H255074   2.602   4.042  11.854 -0.3243 -0.3493  1.1072
11195TIP3   OH255075   4.591   1.800   4.115 -0.4113 -0.2830 -0.5737
11195TIP3    H155076   4.564   1.815   4.205 -0.1562 -0.9262 -0.3833
11195TIP3    H255077   4.565   1.710   4.096 -1.3308  0.1525 -1.4648
11196TIP3   OH255078   0.649   0.492   1.256 -0.1100  0.8073 -0.2876
11196TIP3    H155079   0.594   0.563   1.290 -2.2411 -1.2183  0.7744
11196TIP3    H255080   0.622   0.483   1.165 -1.3826  0.0389  0.1388
11197TIP3   OH255081   2.378   5.932  15.594  0.3441 -0.1828  0.3066
11197TIP3    H155082   2.432   5.925  15.672  1.0089  1.3642  0.0211
11197TIP3    H255083   2.305   5.989  15.619 -0.5400 -1.2965  0.3479
11198TIP3   OH255084   1.865   5.243  10.528  0.2831  0.3186  0.2904
11198TIP3    H155085   1.881   5.330  10.567 -1.6475  2.6473 -3.4975
11198TIP3    H255086   1.925   5.240  10.454 -1.2828 -0.5344 -0.9814
11199TIP3   OH255087   3.614   0.575  16.803  0.1222 -0.7400  0.2954
11199TIP3    H155088   3.565   0.593  16.883  1.8932 -2.0704  1.7673
11199TIP3    H255089   3.550   0.535  16.745 -1.8295  2.4073 -0.0034
11200TIP3   OH255090   1.857   5.220   3.019 -0.0319  0.6945 -0.2407
11200TIP3    H155091   1.793   5.216   2.948 -1.0497  1.5544  0.6021
11200TIP3    H255092   1.942   5.214   2.975 -0.6692 -0.2820 -1.3909
11201TIP3   OH255093   6.354   4.528   5.176 -0.0007  0.1757  0.2518
11201TIP3    H155094   6.378   4.553   5.265  2.2613  1.7071 -0.6885
11201TIP3    H255095   6.266   4.564   5.164 -1.1109 -1.5977  2.3600
11202TIP3   OH255096   4.400   1.861  10.790 -0.1709 -0.0154  0.3385
11202TIP3    H155097   4.345   1.835  10.716  0.7685  0.3715 -0.5117
11202TIP3    H255098   4.343   1.852  10.867 -1.9148  1.7697 -0.6546
11203TIP3   OH255099   0.318   5.423  13.179 -0.3196  0.1864  0.4808
11203TIP3    H155100   0.248   5.456  13.237  0.4591  1.1286  0.9146
11203TIP3    H255101   0.302   5.329  13.173 -0.7234  0.1489  1.8315
11204TIP3   OH255102   2.573   5.776   5.917  0.0365 -0.3503  0.2591
11204TIP3    H155103   2.601   5.866   5.900 -0.4596 -0.4836 -1.5730
11204TIP3    H255104   2.648   5.735   5.961  0.9392  0.5113 -0.4156
11205TIP3   OH255105   6.140   6.362   4.082 -0.2637 -0.1417  0.1172
11205TIP3    H155106   6.101   6.294   4.026  0.3532  1.1108 -1.9271
11205TIP3    H255107   6.233   6.341   4.083 -0.5823 -1.9783  3.3746
11206TIP3   OH255108   6.825   4.535   0.498  0.1626  0.5650 -0.4897
11206TIP3    H155109   6.840   4.505   0.588 -0.0702 -2.5532 -1.3860
11206TIP3    H255110   6.913   4.536   0.459  0.2210  1.5907 -0.3641
11207TIP3   OH255111   5.894   3.307  11.880  0.1680 -0.2762 -0.2414
11207TIP3    H155112   5.831   3.377  11.894  1.2725  0.7227 -0.1836
11207TIP3    H255113   5.850   3.228  11.913 -1.1338  0.3560 -0.4390
11208TIP3   OH255114   0.305   4.754  16.242 -0.0458  0.1364 -0.1533
11208TIP3    H155115   0.379   4.785  16.190 -0.6851  0.9887 -0.5756
11208TIP3    H255116   0.343   4.733  16.327  0.7406  0.2415 -0.4721
11209TIP3   OH255117   0.938   6.330  14.190 -0.4094  0.7136 -0.4095
11209TIP3    H155118   0.955   6.274  14.266 -1.1329  0.5338 -0.3703
11209TIP3    H255119   0.878   6.279  14.136 -0.5772  1.1942 -0.6815
11210TIP3   OH255120   2.430   1.072  16.500  0.2771  0.3702  0.5362
11210TIP3    H155121   2.433   0.983  16.535  1.1671  0.2271  0.1238
11210TIP3    H255122   2.397   1.125  16.573 -2.5182 -0.6002  0.0948
11211TIP3   OH255123   0.232   5.734  12.285  0.0304 -0.2381  0.6268
11211TIP3    H155124   0.316   5.692  12.264 -0.4406 -0.5532 -0.8074
11211TIP3    H255125   0.253   5.827  12.294  0.5084 -0.2753  0.0111
11212TIP3   OH255126   4.984   4.764  13.763  0.2695 -0.3603 -0.2888
11212TIP3    H155127   4.945   4.847  13.790 -0.3635 -0.8448  0.3348
11212TIP3    H255128   5.052   4.747  13.827 -0.5733 -1.0219  0.4639
11213TIP3   OH255129   2.373   4.707   0.364  0.2452  0.0184  0.4863
11213TIP3    H155130   2.438   4.644   0.333  0.0905 -0.4038  0.9859
11213TIP3    H255131   2.305   4.652   0.405 -0.9912  0.3675 -1.0136
11214TIP3   OH255132   4.451   6.149  11.060  0.4153  0.0156 -0.2817
11214TIP3    H155133   4.534   6.103  11.052 -1.0737 -2.8895 -0.5941
11214TIP3    H255134   4.417   6.154  10.970  0.2077  1.1391 -0.1602
11215TIP3   OH255135   3.663   1.610   3.449  0.8790  0.2126  0.3393
11215TIP3    H155136   3.695   1.585   3.536  1.0563 -1.8209 -0.2687
11215TIP3    H255137   3.653   1.528   3.402 -1.2004  1.0980 -0.9266
11216TIP3   OH255138   3.534   0.879  13.883 -0.0207  0.2918 -0.2553
11216TIP3    H155139   3.545   0.934  13.806  0.1480 -0.2893 -0.6575
11216TIP3    H255140   3.538   0.789  13.849  2.7831 -0.0697  0.7460
11217TIP3   OH255141   0.909   1.021   0.988 -0.1412 -0.7630  0.0953
11217TIP3    H155142   0.875   1.039   0.900  1.2342  2.1128  0.0528
11217TIP3    H255143   0.835   1.038   1.046 -0.6067 -1.1171 -0.3793
11218TIP3   OH255144   0.854   2.304  14.574 -0.3811 -0.1612 -0.3720
11218TIP3    H155145   0.807   2.340  14.649 -0.3449  0.7809 -0.7927
11218TIP3    H255146   0.786   2.270  14.516 -0.4375 -0.4297 -0.1489
11219TIP3   OH255147   4.417   2.693   0.513  0.2214 -0.0094  0.3268
11219TIP3    H155148   4.487   2.644   0.556  0.3053  0.1578  0.3828
11219TIP3    H255149   4.376   2.630   0.454  1.2509  0.2336 -0.6690
11220TIP3   OH255150   0.457   5.245  16.061  0.0823  0.0300 -0.3767
11220TIP3    H155151   0.431   5.228  15.970 -1.4294 -0.0966  0.0435
11220TIP3    H255152   0.450   5.340  16.070 -2.5882 -0.1503  0.3325
11221TIP3   OH255153   5.536   0.530  12.807  0.4635  0.0877 -0.1789
11221TIP3    H155154   5.578   0.459  12.758  0.6290  0.2002 -0.2010
11221TIP3    H255155   5.607   0.591  12.825 -0.0706  1.3477 -2.0955
11222TIP3   OH255156   1.879   2.477   1.940 -0.6288  0.9271 -0.3808
11222TIP3    H155157   1.870   2.520   1.855 -0.4057  0.3863 -0.6839
11222TIP3    H255158   1.822   2.400   1.934 -1.4852  1.4898  0.3681
11223TIP3   OH255159   5.369   1.660  15.785  0.2192 -0.1303 -0.1399
11223TIP3    H155160   5.404   1.727  15.727  1.3023  0.2118  0.8562
11223TIP3    H255161   5.407   1.578  15.753  2.1243  0.2484  0.9866
11224TIP3   OH255162   1.534   5.552   6.054  0.5888  0.2704  0.0353
11224TIP3    H155163   1.542   5.470   6.103  2.3932  0.2559 -0.2385
11224TIP3    H255164   1.596   5.612   6.096  1.4196  0.5726 -1.5518
11225TIP3   OH255165   5.026   3.735   4.404 -0.6386  0.3020 -0.2592
11225TIP3    H155166   5.001   3.644   4.420 -2.4168  0.8345  0.2266
11225TIP3    H255167   4.990   3.755   4.317 -0.1486  0.5091 -0.4172
11226TIP3   OH255168   4.362   3.278   1.909 -0.2106 -0.5973  0.2140
11226TIP3    H155169   4.270   3.273   1.934 -0.2114  1.2981  0.7653
11226TIP3    H255170   4.410   3.283   1.992  0.2130  0.3008 -0.0668
11227TIP3   OH255171   3.955   3.706  13.949  0.1108 -0.2247  0.0267
11227TIP3    H155172   3.930   3.793  13.980 -0.9220  0.0716 -1.4972
11227TIP3    H255173   3.937   3.647  14.023 -0.2682  0.7069  0.6876
11228TIP3   OH255174   6.092   3.392  13.222 -0.0415  0.2339 -0.0076
11228TIP3    H155175   6.017   3.360  13.272 -1.0381  0.5251 -1.2537
11228TIP3    H255176   6.064   3.479  13.191  1.3172  0.9014  0.5786
11229TIP3   OH255177   1.742   2.606   0.970  0.0992  0.1742 -0.3385
11229TIP3    H155178   1.753   2.518   1.007  0.3053  0.1796 -0.3871
11229TIP3    H255179   1.756   2.665   1.044  1.0163  0.2046 -0.5229
11230TIP3   OH255180   3.198   6.272  17.043 -0.5384 -0.2860 -0.3269
11230TIP3    H155181   3.273   6.261  16.985  0.2867 -1.3310  0.9031
11230TIP3    H255182   3.177   6.365  17.037  1.6840  0.3105  0.3169
11231TIP3   OH255183   3.601   2.441   3.014 -0.8244  0.1005 -0.3720
11231TIP3    H155184   3.638   2.493   3.085  1.9015 -2.9290  0.7028
11231TIP3    H255185   3.667   2.445   2.944  0.5390 -3.2668  0.5278
11232TIP3   OH255186   0.286   0.968   6.068 -0.1730  0.1268 -0.2914
11232TIP3    H155187   0.327   1.055   6.061 -0.9709  0.5014 -0.3742
11232TIP3    H255188   0.318   0.934   6.152 -0.9911  1.1211  0.4591
11233TIP3   OH255189   3.881   2.810   5.078  0.0570 -0.3699  0.2539
11233TIP3    H155190   3.859   2.901   5.099 -0.4110 -0.0172 -1.6087
11233TIP3    H255191   3.965   2.795   5.121  0.1460  0.9392  0.5766
11234TIP3   OH255192   0.936   4.983  12.328  0.1371  0.2403  0.1829
11234TIP3    H155193   0.967   5.072  12.345 -1.1763  0.9975 -1.2287
11234TIP3    H255194   0.934   4.975  12.233  0.3261 -1.3638  0.2757
11235TIP3   OH255195   1.023   4.364  14.193 -0.1469  0.4295 -0.0670
11235TIP3    H155196   1.096   4.335  14.139 -0.6740 -0.1600 -0.4749
11235TIP3    H255197   0.981   4.283  14.221  1.1089  0.5980  2.6702
11236TIP3   OH255198   1.154   2.214  15.141  0.1365 -0.0512 -0.5544
11236TIP3    H155199   1.069   2.170  15.135  0.7512 -1.7306  1.8011
11236TIP3    H255200   1.171   2.222  15.235  0.9546  3.6568 -0.8322
11237TIP3   OH255201   4.936   2.951   4.327 -0.1775 -0.2649  0.1424
11237TIP3    H155202   4.942   2.860   4.301 -1.1007  0.2515 -2.1266
11237TIP3    H255203   5.026   2.984   4.323 -0.0815 -0.6247 -0.8813
11238TIP3   OH255204   0.297   5.596   3.044  0.2169  0.6433 -0.0462
11238TIP3    H155205   0.210   5.635   3.051  0.5020  1.2379  0.2255
11238TIP3    H255206   0.282   5.512   3.000 -0.8447 -0.4732  2.3099
11239TIP3   OH255207   2.941   0.719   4.270 -0.3036 -0.0001 -0.5213
11239TIP3    H155208   2.924   0.641   4.218 -1.2891  0.4799 -0.9553
11239TIP3    H255209   2.931   0.690   4.361 -0.5629 -0.4053 -0.6762
11240TIP3   OH255210   3.487   4.481   5.894 -0.2610  0.2501  0.1050
11240TIP3    H155211   3.513   4.390   5.888 -1.5887 -0.1220 -0.4847
11240TIP3    H255212   3.520   4.521   5.814 -0.0756  0.1772  0.1453
11241TIP3   OH255213   6.807   5.994  16.697 -0.1803  0.0568  0.2811
11241TIP3    H155214   6.727   5.979  16.646 -0.2926  3.2323 -0.6620
11241TIP3    H255215   6.776   6.021  16.783 -0.1745  1.3488 -0.1027
11242TIP3   OH255216   5.120   3.231   0.956  0.7154 -0.4943 -0.5469
11242TIP3    H155217   5.035   3.262   0.924  0.3426 -0.6515  0.2816
11242TIP3    H255218   5.183   3.291   0.916  0.0862  0.7552  0.2605
11243TIP3   OH255219   1.722   5.305   2.784  0.1035 -0.2305  0.3050
11243TIP3    H155220   1.782   5.266   2.720  0.1994 -0.6368  0.6361
11243TIP3    H255221   1.708   5.394   2.752 -0.6074 -0.7238 -0.8023
11244TIP3   OH255222   0.496   5.580   5.688 -0.3037  0.3701 -0.5764
11244TIP3    H155223   0.538   5.666   5.693  0.6687 -0.1498  0.9926
11244TIP3    H255224   0.515   5.550   5.599  0.0799  1.4116 -0.8676
11245TIP3   OH255225   0.637   6.467  10.912 -0.4390  0.4888 -0.0668
11245TIP3    H155226   0.583   6.507  10.844 -0.5669  0.9476  0.2941
11245TIP3    H255227   0.709   6.425  10.865 -1.2012 -0.2857 -0.5639
11246TIP3   OH255228   5.560   6.076  12.894 -0.3920 -0.2192 -0.4168
11246TIP3    H155229   5.620   6.127  12.948  1.3677 -1.0932 -1.4494
11246TIP3    H255230   5.608   6.061  12.813 -2.1024 -0.8098 -1.3770
11247TIP3   OH255231   6.707   3.531   5.371  0.1827 -0.6929  0.2416
11247TIP3    H155232   6.768   3.537   5.297 -0.5765 -0.6375 -0.3910
11247TIP3    H255233   6.624   3.562   5.336 -0.3151 -1.1713  0.9782
11248TIP3   OH255234   2.043   1.288  16.212 -0.0180  0.1411  0.5688
11248TIP3    H155235   2.042   1.270  16.306  1.3612 -0.6957  0.4598
11248TIP3    H255236   1.983   1.223  16.174  1.0150 -0.9307  0.6965
11249TIP3   OH255237   0.822   0.608  15.321 -0.1411  0.0672 -0.2073
11249TIP3    H155238   0.884   0.598  15.248 -0.8594  1.7361 -1.1132
11249TIP3    H255239   0.737   0.618  15.279 -0.6480  0.5092  0.8913
11250TIP3   OH255240   6.283   3.631   1.513  0.3258  0.2746  0.2433
11250TIP3    H155241   6.219   3.639   1.443 -0.3316  1.9378  1.0130
11250TIP3    H255242   6.319   3.542   1.502 -1.0879 -0.1708 -1.0350
11251TIP3   OH255243   4.193   1.535   4.341 -0.2882 -0.3065 -0.0958
11251TIP3    H155244   4.126   1.541   4.273  1.5245 -0.0933 -1.9396
11251TIP3    H255245   4.143   1.520   4.422 -2.4600 -2.1902 -1.6511
11252TIP3   OH255246   3.998   6.369  13.490 -0.4752  0.2733  0.1580
11252TIP3    H155247   3.922   6.319  13.520  0.4481 -0.7948  0.7935
11252TIP3    H255248   4.040   6.312  13.425 -1.5324  1.8598 -2.0448
11253TIP3   OH255249   5.355   6.551   5.960 -0.3548 -0.6214  0.6710
11253TIP3    H155250   5.444   6.546   5.924 -0.0136 -0.6803  1.4944
11253TIP3    H255251   5.318   6.464   5.945  0.1259 -0.9448  1.3065
11254TIP3   OH255252   1.723   0.732   1.682  0.4888 -0.3929 -0.0186
11254TIP3    H155253   1.774   0.809   1.707  0.2766 -0.5489  0.9466
11254TIP3    H255254   1.789   0.666   1.661  0.6798 -0.2264  0.0556
11255TIP3   OH255255   0.546   3.067  16.580  0.7635  0.0715 -0.5417
11255TIP3    H155256   0.641   3.058  16.586  0.7446 -0.7189 -1.2721
11255TIP3    H255257   0.526   3.145  16.632  1.8683  0.5676 -0.8382
11256TIP3   OH255258   5.123   0.650   1.027  0.1623 -0.0802  0.1928
11256TIP3    H155259   5.056   0.717   1.034  1.6794  1.8570 -2.0113
11256TIP3    H255260   5.109   0.593   1.103 -0.5088  3.3875  2.9510
11257TIP3   OH255261   4.371   0.543   3.721  0.2426 -0.0444 -0.5100
11257TIP3    H155262   4.297   0.572   3.668 -0.8469  0.9002  1.4013
11257TIP3    H255263   4.440   0.608   3.704  1.3614 -1.8409 -3.5751
11258TIP3   OH255264   2.792   4.640   3.288 -0.1195 -0.1481 -0.4506
11258TIP3    H155265   2.702   4.636   3.256 -0.1542  2.1813 -0.7865
11258TIP3    H255266   2.823   4.549   3.283 -1.5216 -0.5782 -3.0486
11259TIP3   OH255267   6.564   4.832  12.070 -0.3979  0.0811 -0.1621
11259TIP3    H155268   6.553   4.748  12.026  0.9275 -0.0606 -0.2688
11259TIP3    H255269   6.520   4.821  12.154 -1.1821 -0.3430 -0.6262
11260TIP3   OH255270   5.000   1.805  11.083  0.5642  0.3968 -0.5572
11260TIP3    H155271   4.961   1.724  11.115  0.3047  0.9332  0.5485
11260TIP3    H255272   4.926   1.866  11.076  0.8518  0.7303 -0.7226
11261TIP3   OH255273   6.522   5.348  15.411 -0.5042  0.5521 -0.0952
11261TIP3    H155274   6.584   5.377  15.344 -1.8605  2.4288 -0.6425
11261TIP3    H255275   6.446   5.318  15.361 -0.8820  0.3919  0.5753
11262TIP3   OH255276   5.987   0.164   1.214  0.7056 -0.4457 -0.2512
11262TIP3    H155277   6.012   0.212   1.135  0.5170 -1.4070 -0.9262
11262TIP3    H255278   5.959   0.231   1.276 -0.7513  0.2506 -1.5951
11263TIP3   OH255279   3.148   2.555  11.475  0.4422 -0.2806 -0.4725
11263TIP3    H155280   3.095   2.579  11.551  2.9931 -1.4494  1.8655
11263TIP3    H255281   3.150   2.634  11.421  1.4019  1.9433  2.5115
11264TIP3   OH255282   0.779   4.476   0.008 -0.6602  0.3567  0.3429
11264TIP3    H155283   0.764   4.542   0.075  1.2790  0.3292  0.8816
11264TIP3    H255284   0.757   4.393   0.049  0.8572  0.3015  1.1369
11265TIP3   OH255285   4.704   1.425   0.867 -0.4712 -0.0351 -0.2064
11265TIP3    H155286   4.648   1.495   0.902 -0.2543  0.1665 -0.2577
11265TIP3    H255287   4.793   1.453   0.888 -0.3093  0.2982 -1.2962
11266TIP3   OH255288   2.894   5.320   3.720 -0.6111  0.2346 -0.0874
11266TIP3    H155289   2.959   5.252   3.701 -0.2130  0.8027 -0.8227
11266TIP3    H255290   2.936   5.375   3.786 -0.9684 -0.2724  0.5731
11267TIP3   OH255291   2.556   3.842   2.075  0.7455  0.0044  0.2017
11267TIP3    H155292   2.484   3.804   2.024  0.9161 -0.8573  0.5848
11267TIP3    H255293   2.551   3.798   2.159  1.9632 -0.3393  0.1039
11268TIP3   OH255294   1.184   5.808  11.541 -0.2143 -0.2999 -0.0025
11268TIP3    H155295   1.179   5.888  11.594 -0.8594  0.3867 -1.0652
11268TIP3    H255296   1.277   5.800  11.519 -0.0019 -0.3736  0.8863
11269TIP3   OH255297   0.352   2.076   4.015 -0.3595 -0.0907 -0.1629
11269TIP3    H155298   0.278   2.015   4.015 -1.1223  0.7999 -0.7301
11269TIP3    H255299   0.387   2.071   4.104  0.2722 -2.1054 -0.4651
11270TIP3   OH255300   1.994   4.227   5.902  0.6865 -0.0106 -0.1294
11270TIP3    H155301   1.917   4.224   5.959  1.3544 -0.4353  0.7833
11270TIP3    H255302   1.977   4.300   5.843 -0.9942 -0.8835 -0.8024
11271TIP3   OH255303   0.086   6.399  14.736  0.1417 -0.1857 -0.0019
11271TIP3    H155304   0.115   6.403  14.827  1.0590 -0.2296 -0.2861
11271TIP3    H255305   0.167   6.393  14.685 -0.2043  2.4009 -0.9924
11272TIP3   OH255306   0.402   3.005  14.612 -0.4032  0.2339  0.0716
11272TIP3    H155307   0.492   3.033  14.630 -0.0539 -1.0155  0.3788
11272TIP3    H255308   0.361   3.081  14.571  0.9093  0.6843 -0.4608
11273TIP3   OH255309   5.172   3.059   1.462  0.6786 -0.6487 -0.2796
11273TIP3    H155310   5.107   2.989   1.460 -0.8116  0.6846 -0.4302
11273TIP3    H255311   5.150   3.115   1.388  1.9581 -0.1000 -0.2785
11274TIP3   OH255312   6.502   2.617   3.381 -0.4574  0.2003  0.0616
11274TIP3    H155313   6.506   2.559   3.305  1.2749 -1.0728  1.0555
11274TIP3    H255314   6.433   2.580   3.436  0.5447 -0.9082  0.6251
11275TIP3   OH255315   0.863   0.411   3.090 -0.0649 -0.3499  0.2857
11275TIP3    H155316   0.852   0.349   3.018  0.7341  0.9154 -0.9811
11275TIP3    H255317   0.784   0.464   3.088 -0.4828 -0.9211  0.9965
11276TIP3   OH255318   1.873   5.645   2.194  0.5518 -0.4467 -0.3565
11276TIP3    H155319   1.861   5.740   2.189 -0.5576 -0.6120 -1.1923
11276TIP3    H255320   1.961   5.630   2.161  1.3300  0.4066  1.2094
11277TIP3   OH255321   6.025   2.258  13.105 -0.4996  0.0108  0.4738
11277TIP3    H155322   6.064   2.273  13.019  0.2561 -1.2102  0.5780
11277TIP3    H255323   6.071   2.182  13.139 -1.4698 -0.1189  1.5589
11278TIP3   OH255324   5.648   5.929   3.166 -0.8397  0.6743  0.0388
11278TIP3    H155325   5.743   5.926   3.176 -0.7104  0.5567 -1.1003
11278TIP3    H255326   5.625   5.844   3.130 -1.2812  0.9887 -0.4377
11279TIP3   OH255327   4.293   1.302   0.991  0.3987  0.0911  0.6168
11279TIP3    H155328   4.227   1.258   0.938  1.1471 -0.2802 -0.0430
11279TIP3    H255329   4.376   1.263   0.961  1.1750  2.4618 -0.5258
11280TIP3   OH255330   4.556   3.919  14.908 -0.2716  0.4568 -0.7981
11280TIP3    H155331   4.547   3.852  14.976 -0.0558  0.7760 -0.4480
11280TIP3    H255332   4.607   3.877  14.839 -0.1479  0.2570 -0.5871
11281TIP3   OH255333   2.799   2.947  11.639  0.2439  0.2175 -0.1383
11281TIP3    H155334   2.884   2.985  11.664  0.0311  0.9356 -0.5073
11281TIP3    H255335   2.764   2.912  11.721  1.1140 -0.5202 -0.0683
11282TIP3   OH255336   3.070   4.984  13.557 -0.2357  0.0251 -0.4303
11282TIP3    H155337   3.063   4.897  13.597 -4.1599  0.1422 -0.4818
11282TIP3    H255338   3.033   4.973  13.470  1.9968  1.2205 -1.6175
11283TIP3   OH255339   1.216   2.864   2.479  0.0095 -0.1416 -0.0146
11283TIP3    H155340   1.250   2.935   2.424  0.3956  0.8200  1.4009
11283TIP3    H255341   1.139   2.833   2.432 -1.9828  3.2104  0.6685
11284TIP3   OH255342   4.432   5.132  11.698 -0.3238 -0.4485  0.0599
11284TIP3    H155343   4.434   5.227  11.687  1.5976 -0.3760  0.6430
11284TIP3    H255344   4.405   5.098  11.613 -1.0363  0.6183 -0.1543
11285TIP3   OH255345   2.306   0.662  14.824  0.2676 -0.0572  0.0123
11285TIP3    H155346   2.360   0.615  14.889  0.1580 -0.5524 -0.2489
11285TIP3    H255347   2.219   0.665  14.863  0.5764  1.1375  0.6334
11286TIP3   OH255348   4.086   5.630   3.797 -0.3154 -0.2643 -0.5519
11286TIP3    H155349   4.050   5.632   3.709 -3.0209 -1.1163  0.4121
11286TIP3    H255350   4.056   5.546   3.833  0.9621 -0.0817  1.0720
11287TIP3   OH255351   2.107   5.342   5.381  0.1436 -0.4671  0.6167
11287TIP3    H155352   2.034   5.402   5.395  0.6490 -0.1238  1.9456
11287TIP3    H255353   2.148   5.373   5.300 -0.8478 -0.3374  0.1499
11288TIP3   OH255354   3.507   1.307  14.332  0.2405 -0.9436  0.1668
11288TIP3    H155355   3.467   1.283  14.248  0.1112 -0.6235  0.1335
11288TIP3    H255356   3.436   1.348  14.381  0.5475 -0.2913  0.0730
11289TIP3   OH255357   5.500   2.039  12.082 -0.5295  0.0434  0.7146
11289TIP3    H155358   5.500   1.943  12.081 -0.5514  0.0203  1.7087
11289TIP3    H255359   5.592   2.063  12.092 -0.3918  0.1620 -0.7376
11290TIP3   OH255360   0.675   6.227   1.469  0.1710  0.6653  0.4380
11290TIP3    H155361   0.628   6.148   1.444  1.6529 -0.5501  1.3321
11290TIP3    H255362   0.654   6.240   1.562  0.1260  1.1826  0.3606
11291TIP3   OH255363   2.790   3.972  13.734  0.4023 -0.3875 -0.5521
11291TIP3    H155364   2.740   4.052  13.721  1.0275  0.0849 -0.0665
11291TIP3    H255365   2.724   3.907  13.761  0.1764  0.4932  1.1298
11292TIP3   OH255366   5.978   4.487   0.006 -0.2248 -0.0769  0.4945
11292TIP3    H155367   5.987   4.471  -0.088  2.6091 -0.4344  0.7226
11292TIP3    H255368   5.900   4.542   0.015 -0.1285  0.5845 -2.1285
11293TIP3   OH255369   1.300   3.308  10.903  0.4164  0.2567 -0.0506
11293TIP3    H155370   1.261   3.327  10.818  0.1249 -0.8390 -0.1739
11293TIP3    H255371   1.386   3.349  10.900  0.4908  0.0515 -0.9484
11294TIP3   OH255372   5.130   4.276   6.170  0.2496  0.2370  0.4565
11294TIP3    H155373   5.188   4.202   6.148 -0.2648  0.5412 -2.2263
11294TIP3    H255374   5.176   4.353   6.136 -1.0503  0.6481 -0.4282
11295TIP3   OH255375   3.250   4.892  11.433 -0.4519  0.3474  0.2050
11295TIP3    H155376   3.284   4.963  11.379 -0.2130  0.2462  0.2179
11295TIP3    H255377   3.292   4.904  11.518  2.5914 -1.9458 -0.7968
11296TIP3   OH255378   4.031   6.168   3.589  0.1757 -0.1578  0.2333
11296TIP3    H155379   4.096   6.236   3.570 -1.3967  0.9580 -1.5925
11296TIP3    H255380   4.035   6.109   3.514  1.5523 -2.2233  1.8224
11297TIP3   OH255381   4.787   3.708   1.841  0.0349 -0.6247  0.3025
11297TIP3    H155382   4.762   3.747   1.925  2.4416  0.0146  0.7917
11297TIP3    H255383   4.764   3.615   1.850 -0.5372 -0.3963  1.3316
11298TIP3   OH255384   1.111   0.948   5.344 -0.3502  0.0153 -0.6272
11298TIP3    H155385   1.142   0.858   5.348  0.3737  0.2651 -0.4720
11298TIP3    H255386   1.024   0.942   5.305 -1.8880 -1.1424  2.5735
11299TIP3   OH255387   0.980   1.217   5.384 -0.3825  0.8045 -1.0552
11299TIP3    H155388   1.062   1.167   5.388 -0.2648  0.9382 -1.7201
11299TIP3    H255389   0.933   1.191   5.463 -0.8263 -1.2457 -1.9224
11300TIP3   OH255390   6.208   2.531   5.811  0.1115 -0.0020  0.1818
11300TIP3    H155391   6.256   2.521   5.893 -0.5481 -1.1209  0.4532
11300TIP3    H255392   6.240   2.613   5.774  0.4267  0.5085  1.5488
11301TIP3   OH255393   2.370   3.771   4.628 -0.6481  0.5305 -0.2912
11301TIP3    H155394   2.353   3.854   4.674 -1.5860  1.5362 -2.3040
11301TIP3    H255395   2.404   3.713   4.695  0.2152  2.6060  1.1734
11302TIP3   OH255396   3.103   5.753   2.212 -0.5181  0.4145  0.3744
11302TIP3    H155397   3.038   5.709   2.157 -0.2818  0.8747 -0.2898
11302TIP3    H255398   3.057   5.771   2.294 -0.9192 -0.1642  0.2762
11303TIP3   OH255399   6.101   1.769   4.367  0.5254  0.3829  0.1939
11303TIP3    H155400   6.113   1.679   4.394 -0.4525  0.5795  1.3362
11303TIP3    H255401   6.162   1.780   4.294  1.0547 -1.0256  0.3941
11304TIP3   OH255402   4.336   5.349  13.089  0.0580  0.0490  0.6463
11304TIP3    H155403   4.423   5.387  13.092  0.4097 -0.6818 -0.0838
11304TIP3    H255404   4.311   5.340  13.181  1.0610 -0.4400  0.8845
11305TIP3   OH255405   3.156   4.383  16.796 -0.1089 -0.0332  0.0410
11305TIP3    H155406   3.184   4.468  16.828  1.9124 -0.9038  0.7268
11305TIP3    H255407   3.088   4.355  16.858  0.0340  0.5919  0.4846
11306TIP3   OH255408   4.137   3.489   3.873  0.6884  0.0613  0.4905
11306TIP3    H155409   4.123   3.514   3.781  3.6681 -1.2006 -0.4148
11306TIP3    H255410   4.140   3.572   3.920  0.7793  0.8437 -0.8259
11307TIP3   OH255411   1.445   1.311  15.314 -0.0143 -0.0132  0.3155
11307TIP3    H155412   1.410   1.396  15.342  2.0161  0.6895  0.9649
11307TIP3    H255413   1.416   1.250  15.382 -0.0046  0.5408  0.8321
11308TIP3   OH255414   1.317   2.548  16.794  0.2403 -0.2228 -0.5979
11308TIP3    H155415   1.241   2.604  16.777 -0.3201 -0.4875  0.8275
11308TIP3    H255416   1.289   2.460  16.771 -0.6751 -0.6531  1.8021
11309TIP3   OH255417   5.012   4.959   5.857 -0.2888 -0.1718 -0.1785
11309TIP3    H155418   5.057   4.967   5.773 -1.0360  0.1650 -0.5603
11309TIP3    H255419   5.042   5.034   5.907  1.4917 -1.2965  0.5278
11310TIP3   OH255420   1.438   2.699   3.520 -0.4588 -0.4868  0.0638
11310TIP3    H155421   1.444   2.747   3.602  1.3722  0.7447 -0.7193
11310TIP3    H255422   1.442   2.767   3.452  1.5856 -1.6320 -1.0735
11311TIP3   OH255423   2.877   0.902  11.755 -0.2768 -0.0037 -0.9628
11311TIP3    H155424   2.927   0.837  11.707 -1.1223 -1.1264 -0.3752
11311TIP3    H255425   2.941   0.942  11.815  0.3840  0.1678 -1.7667
11312TIP3   OH255426   0.791   4.529  12.406  0.6908 -0.0019 -0.4300
11312TIP3    H155427   0.872   4.579  12.405 -0.0192  1.1848 -1.2125
11312TIP3    H255428   0.727   4.587  12.448  0.3640 -1.1639  0.7665
11313TIP3   OH255429   0.689   4.815  12.387 -0.5102  0.7368 -0.3016
11313TIP3    H155430   0.749   4.797  12.315 -1.4424  1.0401 -1.1949
11313TIP3    H255431   0.745   4.836  12.462  0.4830  0.1609 -0.8719
11314TIP3   OH255432   4.280   3.825  15.906  0.2091  0.4443  0.2467
11314TIP3    H155433   4.319   3.743  15.935  0.0808 -0.4449 -1.9069
11314TIP3    H255434   4.187   3.815  15.924  0.3700  0.7821  1.3761
11315TIP3   OH255435   5.669   5.376  15.692 -0.6182 -0.0312 -0.5703
11315TIP3    H155436   5.748   5.430  15.696 -0.7484  0.1193 -0.0436
11315TIP3    H255437   5.622   5.395  15.773 -0.9032 -0.5725 -0.6034
11316TIP3   OH255438   0.581   0.335   2.971  0.2691  0.5223  0.1259
11316TIP3    H155439   0.536   0.379   3.044 -0.3502  1.2926 -0.7078
11316TIP3    H255440   0.571   0.395   2.897  0.3957 -0.5158 -0.7490
11317TIP3   OH255441   4.203   1.162   5.805  0.0646  0.8230  0.1927
11317TIP3    H155442   4.212   1.257   5.803  0.7183  0.8041 -3.1284
11317TIP3    H255443   4.126   1.144   5.751  0.1247 -0.5483  0.5233
11318TIP3   OH255444   1.656   3.982   4.034 -0.1208 -0.0599  0.6590
11318TIP3    H155445   1.684   4.057   3.983 -0.8006  0.8513  1.5999
11318TIP3    H255446   1.562   3.992   4.044 -0.2794 -1.2130  0.5337
11319TIP3   OH255447   1.343   2.950  16.738 -0.3275  0.5073 -0.0587
11319TIP3    H155448   1.276   2.979  16.676 -1.1393 -0.0733  0.5314
11319TIP3    H255449   1.367   3.029  16.786 -1.1791  0.5728  0.2712
11320TIP3   OH255450   6.265   4.804   2.051  0.1122  0.1737  0.5725
11320TIP3    H155451   6.282   4.715   2.083 -1.2890 -0.1372  0.5536
11320TIP3    H255452   6.288   4.861   2.125  4.1564  0.1755 -0.4505
11321TIP3   OH255453   3.796   1.054   1.484 -0.6388 -0.1291 -0.1849
11321TIP3    H155454   3.882   1.092   1.467  0.5112 -1.7761  1.5995
11321TIP3    H255455   3.745   1.074   1.405  1.3579  0.8750 -1.2961
11322TIP3   OH255456   6.105   3.894  15.793  0.2038 -0.1941 -0.2858
11322TIP3    H155457   6.119   3.989  15.797 -0.3925 -0.1014 -0.3953
11322TIP3    H255458   6.106   3.866  15.885 -0.6257  0.0662 -0.1940
11323TIP3   OH255459   6.465   5.501  15.052  0.0683 -0.6845 -0.0585
11323TIP3    H155460   6.372   5.522  15.061  0.1405  0.1632 -1.1587
11323TIP3    H255461   6.470   5.407  15.067 -0.7501 -0.5211  1.4893
11324TIP3   OH255462   6.581   4.648   4.051 -0.6786  0.4558  0.5127
11324TIP3    H155463   6.545   4.700   4.122  0.9000  0.0923  1.6253
11324TIP3    H255464   6.643   4.706   4.008 -0.3958  0.1384  0.4885
11325TIP3   OH255465   4.294   6.148  13.554  0.3880  0.0208 -0.0376
11325TIP3    H155466   4.271   6.231  13.511  1.0810  0.0718 -0.3343
11325TIP3    H255467   4.351   6.104  13.491 -1.5333 -1.6067 -0.7486
11326TIP3   OH255468   0.930   3.488  10.856 -0.6541 -0.3578 -0.0617
11326TIP3    H155469   0.941   3.452  10.768 -0.8768  1.1503 -0.7418
11326TIP3    H255470   0.844   3.529  10.854 -0.5363 -0.0573  0.7663
11327TIP3   OH255471   4.459   1.658  14.263 -0.5294 -0.5264  0.5095
11327TIP3    H155472   4.374   1.700  14.275 -0.6182 -1.1819  2.4608
11327TIP3    H255473   4.463   1.639  14.169 -2.9906 -1.4228  0.5122
11328TIP3   OH255474   4.600   0.490   3.240 -0.3318  0.3500  0.3817
11328TIP3    H155475   4.633   0.572   3.205  2.5406 -0.2242  1.4741
11328TIP3    H255476   4.548   0.515   3.317 -0.4029  1.1648  0.0703
11329TIP3   OH255477   4.199   3.425  13.706 -0.1371 -0.3405  0.5189
11329TIP3    H155478   4.235   3.495  13.652  0.6121 -0.9055  0.2653
11329TIP3    H255479   4.276   3.380  13.740 -0.5915 -1.7884 -0.2928
11330TIP3   OH255480   6.796   1.189  17.028  0.5761  0.0691 -0.1252
11330TIP3    H155481   6.835   1.242  17.097 -0.2470  1.1636 -0.4804
11330TIP3    H255482   6.726   1.141  17.071  1.3424 -0.7795  0.2035
11331TIP3   OH255483   2.955   2.519  14.201 -0.2288  0.4103  0.1259
11331TIP3    H155484   2.968   2.453  14.269 -1.4386 -0.4936 -0.4907
11331TIP3    H255485   2.936   2.599  14.249 -0.0948  0.0161  0.8591
11332TIP3   OH255486   1.676   2.647  11.347  0.2172  0.2103 -0.1476
11332TIP3    H155487   1.683   2.705  11.424  0.9806  0.4032 -0.3508
11332TIP3    H255488   1.767   2.633  11.320  0.0542 -1.2757  0.0300
11333TIP3   OH255489   0.560   1.207   4.961 -0.2577  0.0254  0.9204
11333TIP3    H155490   0.625   1.278   4.963  0.3483 -0.4970  0.3537
11333TIP3    H255491   0.496   1.235   4.896 -0.3833  0.3491  1.1770
11334TIP3   OH255492   4.414   4.850   0.344 -0.0409  0.3494 -0.1677
11334TIP3    H155493   4.364   4.782   0.390 -0.7525  2.0730  1.7486
11334TIP3    H255494   4.431   4.812   0.257 -3.0511 -1.0882 -0.2800
11335TIP3   OH255495   2.243   1.635   2.181  0.0940 -0.0379  0.1893
11335TIP3    H155496   2.228   1.637   2.275  0.0995  0.7714  0.1801
11335TIP3    H255497   2.326   1.682   2.169 -0.6459  1.2072 -0.3374
11336TIP3   OH255498   6.730   2.005  12.531 -0.1217 -0.2854 -0.4901
11336TIP3    H155499   6.796   1.986  12.597  1.0056 -0.8612 -1.7504
11336TIP3    H255500   6.654   2.037  12.582  0.6720 -0.7720  1.0620
11337TIP3   OH255501   6.374   6.670  14.724  0.0242  0.5052 -0.7045
11337TIP3    H155502   6.325   6.669  14.642  1.7645 -1.5910 -1.8247
11337TIP3    H255503   6.357   6.584  14.763  1.4488  0.3841 -0.3010
11338TIP3   OH255504   5.839   0.128   6.005  1.0330 -0.1320 -1.2224
11338TIP3    H155505   5.859   0.157   5.916  1.7532 -0.4777 -1.1823
11338TIP3    H255506   5.924   0.099   6.040  0.9154  0.7707 -0.1378
11339TIP3   OH255507   1.420   4.774  12.091 -0.3235  0.0184 -0.2566
11339TIP3    H155508   1.512   4.795  12.102 -0.6244  1.5587 -0.4832
11339TIP3    H255509   1.420   4.697  12.034  0.8233 -0.3121  0.1681
11340TIP3   OH255510   5.680   2.775   2.386  0.4190 -0.2571 -0.1013
11340TIP3    H155511   5.616   2.835   2.349  0.4266  0.9274  1.6750
11340TIP3    H255512   5.657   2.689   2.351  1.5036  0.9378 -4.2167
11341TIP3   OH255513   1.304   0.579  10.531 -0.1953 -0.2710  0.9085
11341TIP3    H155514   1.235   0.521  10.498 -0.8462  0.7464  0.4258
11341TIP3    H255515   1.281   0.595  10.622 -0.4026 -0.2173  0.8477
11342TIP3   OH255516   4.888   2.128   0.356  0.0874  0.1017 -0.2208
11342TIP3    H155517   4.880   2.076   0.435  2.3106 -2.9681 -1.8291
11342TIP3    H255518   4.817   2.098   0.300 -1.2931  2.0506  0.3553
11343TIP3   OH255519   6.566   0.172   5.856 -0.1826 -0.1557 -0.2115
11343TIP3    H155520   6.656   0.143   5.872  0.1558  0.1657 -1.4034
11343TIP3    H255521   6.558   0.253   5.906 -0.3787 -1.0577  1.2683
11344TIP3   OH255522   0.521   0.356  12.584 -0.0853  0.4975 -0.2145
11344TIP3    H155523   0.484   0.296  12.519  1.4272 -0.8521  0.0884
11344TIP3    H255524   0.542   0.435  12.535  2.1317 -0.9188 -1.7417
11345TIP3   OH255525   3.208   2.386  12.857  0.9204  0.0445 -0.0531
11345TIP3    H155526   3.184   2.307  12.808 -0.6343  0.1330  0.4884
11345TIP3    H255527   3.163   2.457  12.812 -0.0792  0.2007  1.1279
11346TIP3   OH255528   2.603   1.938  10.660 -0.3851  0.3101 -0.1627
11346TIP3    H155529   2.666   2.000  10.697  0.3515  0.6585 -1.8827
11346TIP3    H255530   2.518   1.969  10.689  0.0832  1.2323  0.2615
11347TIP3   OH255531   6.746   4.820   3.888  0.0786 -0.4894 -0.1686
11347TIP3    H155532   6.738   4.909   3.924 -1.7070  0.0128 -1.6668
11347TIP3    H255533   6.746   4.833   3.793  0.9502 -2.0400 -0.4060
11348TIP3   OH255534   5.536   4.055  11.988 -0.1935  0.5513  0.0141
11348TIP3    H155535   5.478   4.110  12.041  0.4744  1.7413 -0.4440
11348TIP3    H255536   5.486   4.039  11.908 -0.5752  0.0918  0.3396
11349TIP3   OH255537   0.578   4.820  15.271  0.4705 -0.7796  0.2639
11349TIP3    H155538   0.531   4.756  15.218 -0.3288 -0.5464  0.6771
11349TIP3    H255539   0.530   4.823  15.353  1.0508 -0.3292  0.5901
11350TIP3   OH255540   6.653   0.285  15.346  0.1148 -0.0828  0.0026
11350TIP3    H155541   6.576   0.323  15.389 -1.1806  0.7122 -2.7552
11350TIP3    H255542   6.617   0.224  15.282  1.7621  0.3784 -1.4333
11351TIP3   OH255543   6.419   1.233   3.103  0.0009 -0.3740  0.1088
11351TIP3    H155544   6.393   1.225   3.195  0.1867 -1.2143  0.0954
11351TIP3    H255545   6.507   1.197   3.100  0.4317  0.6695 -0.2054
11352TIP3   OH255546   2.596   6.835  15.563 -0.0856 -0.1230  0.0317
11352TIP3    H155547   2.557   6.847  15.476  0.0898 -0.8707 -0.1569
11352TIP3    H255548   2.567   6.748  15.590  0.3627 -0.1405  0.4617
11353TIP3   OH255549   0.616   5.866  14.306  0.3326 -0.1305  0.1944
11353TIP3    H155550   0.525   5.836  14.311 -0.0455  0.7430 -0.9829
11353TIP3    H255551   0.658   5.803  14.247  0.4438 -0.4085  0.5669
11354TIP3   OH255552   3.576   0.692  13.549 -0.2815 -0.3908  0.1267
11354TIP3    H155553   3.527   0.745  13.486  0.0107 -0.1871  0.0657
11354TIP3    H255554   3.611   0.619  13.498 -3.1703 -2.3687  0.7502
11355TIP3   OH255555   1.500   0.347   5.971  0.7199  0.3171  0.0194
11355TIP3    H155556   1.418   0.327   6.015  0.6475  0.9396  0.1884
11355TIP3    H255557   1.568   0.312   6.028  0.6491  1.5322  0.8974
11356TIP3   OH255558   4.252   1.537   5.099 -0.8378  0.2671 -0.4484
11356TIP3    H155559   4.169   1.583   5.100 -0.9671  0.0374  0.0704
11356TIP3    H255560   4.269   1.516   5.191 -0.4043 -0.0384 -0.5904
11357TIP3   OH255561   5.965   3.007  15.019  0.0970 -0.0662  0.0764
11357TIP3    H155562   6.056   2.995  14.990  0.6380 -1.8434  2.2171
11357TIP3    H255563   5.942   3.096  14.992  1.2750 -0.7078 -3.5070
11358TIP3   OH255564   2.165   3.902   5.154 -0.4735 -0.2960 -0.3592
11358TIP3    H155565   2.089   3.897   5.097  0.4450  0.5386 -1.7102
11358TIP3    H255566   2.184   3.995   5.162  0.7285 -0.5135 -0.4953
11359TIP3   OH255567   3.811   3.104  13.926  0.5168  0.3064  0.1282
11359TIP3    H155568   3.869   3.100  14.002  0.0717  0.9583  0.5189
11359TIP3    H255569   3.844   3.178  13.875 -0.0084  0.7312  0.3937
11360TIP3   OH255570   5.761   5.599   0.767  0.4119 -0.0067 -0.0447
11360TIP3    H155571   5.722   5.516   0.738 -1.5487  0.6676  0.5031
11360TIP3    H255572   5.741   5.661   0.696  1.3808  0.1473 -0.1997
11361TIP3   OH255573   4.629   1.606  17.184 -0.3572 -0.0390  0.2077
11361TIP3    H155574   4.562   1.548  17.221 -0.1608 -0.5635 -0.2390
11361TIP3    H255575   4.632   1.680  17.244  1.6440 -1.9500  2.6782
11362TIP3   OH255576   3.896   5.738   0.348  0.0688 -0.2547 -0.3556
11362TIP3    H155577   3.941   5.806   0.299  2.3889 -2.2809 -1.2462
11362TIP3    H255578   3.952   5.720   0.423 -2.0232  0.8088  1.5837
11363TIP3   OH255579   5.139   3.929  14.564 -0.4659 -0.0140  0.3650
11363TIP3    H155580   5.112   3.994  14.629  1.1910 -0.3374  1.4480
11363TIP3    H255581   5.087   3.852  14.583  0.2554 -0.2252  1.5822
11364TIP3   OH255582   6.718   3.975   2.932 -0.5738  0.7825 -0.1045
11364TIP3    H155583   6.766   4.005   2.855  0.1581 -0.1374 -0.0263
11364TIP3    H255584   6.634   3.944   2.897 -0.4335  0.8093 -0.4754
11365TIP3   OH255585   5.384   1.347  14.154  0.2203 -0.0080  0.1550
11365TIP3    H155586   5.329   1.409  14.201  2.0632 -0.8944  3.8047
11365TIP3    H255587   5.437   1.402  14.096 -1.8636  1.1902 -0.7284
11366TIP3   OH255588   2.084   5.133  11.632 -0.4456  0.3142 -0.4203
11366TIP3    H155589   2.077   5.098  11.543 -0.7951  1.3139 -0.7958
11366TIP3    H255590   2.121   5.061  11.683  0.2430 -0.1022 -1.4747
11367TIP3   OH255591   1.928   2.978   2.878  0.3517 -0.1684  0.1321
11367TIP3    H155592   1.989   3.050   2.859  0.8662 -0.6956 -0.2815
11367TIP3    H255593   1.842   3.019   2.881  0.9718  1.2482  4.2752
11368TIP3   OH255594   2.643   2.627   3.162  0.2092 -0.2663  0.1221
11368TIP3    H155595   2.646   2.660   3.252 -1.2791 -0.8591  0.4247
11368TIP3    H255596   2.711   2.675   3.117  1.1799 -0.1490  1.6309
11369TIP3   OH255597   4.311   4.653   5.422 -0.3664 -0.8060  0.0568
11369TIP3    H155598   4.325   4.686   5.510  0.6645  0.6387 -0.6081
11369TIP3    H255599   4.391   4.675   5.375 -1.6073  0.1970 -1.7289
11370TIP3   OH255600   1.224   5.617   4.259  0.1100 -0.5342 -0.4941
11370TIP3    H155601   1.297   5.653   4.309 -0.6454 -2.3233  2.0958
11370TIP3    H255602   1.249   5.526   4.242 -0.8149 -0.6996 -1.0465
11371TIP3   OH255603   1.655   6.050  13.011  0.0649  0.1907 -1.0819
11371TIP3    H155604   1.747   6.033  13.033 -0.4777  0.1143  1.3897
11371TIP3    H255605   1.623   5.967  12.975  0.2998 -0.6553  0.5688
11372TIP3   OH255606   2.319   0.910   0.603  0.3381  0.1206 -0.3574
11372TIP3    H155607   2.407   0.871   0.604  1.0443  1.6462  0.3349
11372TIP3    H255608   2.273   0.867   0.675  1.3800  1.1294  0.9587
11373TIP3   OH255609   1.254   0.696  11.647  0.0518 -0.2589 -0.3114
11373TIP3    H155610   1.198   0.621  11.669 -1.7183  0.7075 -1.2571
11373TIP3    H255611   1.282   0.731  11.731 -1.3064 -0.4207  0.2344
11374TIP3   OH255612   3.739   1.556   5.042  0.0635  0.4800  0.1498
11374TIP3    H155613   3.786   1.473   5.047 -0.2322  0.3245  0.3593
11374TIP3    H255614   3.751   1.596   5.128  1.3233  1.2733 -0.3619
11375TIP3   OH255615   6.712   0.911   1.801  0.3527  1.0337 -0.5985
11375TIP3    H155616   6.680   0.940   1.887 -0.5191 -0.2139 -0.4699
11375TIP3    H255617   6.721   0.816   1.810  2.2516  1.1084 -1.2684
11376TIP3   OH255618   3.715   4.812   1.609  0.1810 -0.1171  0.3005
11376TIP3    H155619   3.652   4.743   1.592  1.1021 -1.2604  1.2998
11376TIP3    H255620   3.693   4.843   1.697  0.3919  0.1475  0.2612
11377TIP3   OH255621   4.109   4.062  14.735 -0.0163 -0.0639  0.1592
11377TIP3    H155622   4.150   4.021  14.811 -0.6942  0.0567  0.5960
11377TIP3    H255623   4.050   3.994  14.700  0.1135 -0.0372 -0.1114
11378TIP3   OH255624   3.052   3.247  11.008 -0.0211  0.0047 -0.1079
11378TIP3    H155625   3.073   3.232  10.916  0.1787 -1.8114  0.2015
11378TIP3    H255626   2.967   3.203  11.021 -0.7236  1.4048  0.2831
11379TIP3   OH255627   6.296   5.928  15.162  0.3163  0.8543  0.6192
11379TIP3    H155628   6.391   5.928  15.147  0.3921  2.4635  0.8567
11379TIP3    H255629   6.259   5.948  15.076  0.0910 -1.1434  0.2237
11380TIP3   OH255630   0.036   0.651  15.652 -0.0860  0.0217  0.2432
11380TIP3    H155631  -0.055   0.640  15.680 -0.2526 -0.3623 -0.4241
11380TIP3    H255632   0.086   0.593  15.710 -0.7641 -3.2106 -2.0981
11381TIP3   OH255633   6.333   6.118   5.187 -0.0497  0.4192 -0.0324
11381TIP3    H155634   6.289   6.059   5.125  0.5175 -0.9686  0.8276
11381TIP3    H255635   6.333   6.203   5.143 -1.3900 -0.0768 -1.0925
11382TIP3   OH255636   6.278   1.271   0.103 -0.4450  0.3149 -0.1772
11382TIP3    H155637   6.299   1.364   0.107 -1.6835  0.6523 -1.1366
11382TIP3    H255638   6.230   1.253   0.184 -0.2472  0.5172 -0.0147
11383TIP3   OH255639   5.651   4.055   5.112 -0.1047 -0.0323 -0.5565
11383TIP3    H155640   5.642   4.094   5.199  4.0236 -1.4323  0.6977
11383TIP3    H255641   5.682   4.126   5.057  1.5197 -0.0805  0.2462
11384TIP3   OH255642   4.498   1.455  14.608  0.7691 -0.6069  0.1017
11384TIP3    H155643   4.557   1.513  14.657  0.6236 -0.9242  0.6617
11384TIP3    H255644   4.417   1.456  14.658 -0.3074  1.1190 -1.5190
11385TIP3   OH255645   6.130   3.814   6.009  0.2489  0.1068 -0.0419
11385TIP3    H155646   6.108   3.855   5.925 -0.6691  2.7296  1.3490
11385TIP3    H255647   6.047   3.777   6.040  0.1646  0.7058  0.4713
11386TIP3   OH255648   3.857   3.433  12.497 -0.4995  0.5550 -0.3214
11386TIP3    H155649   3.828   3.523  12.510 -1.3462  0.3635 -0.7876
11386TIP3    H255650   3.850   3.420  12.402  1.2039  0.5179 -0.4710
11387TIP3   OH255651   2.058   0.673  12.456 -0.0593  0.0012  0.2489
11387TIP3    H155652   2.144   0.642  12.484  0.1157 -0.7861 -1.0588
11387TIP3    H255653   2.064   0.768  12.459  0.7383 -0.0505  0.5048
11388TIP3   OH255654   6.445   2.092   5.575 -0.6960 -0.3435 -0.1906
11388TIP3    H155655   6.375   2.069   5.513 -1.8292 -1.3920  1.4172
11388TIP3    H255656   6.456   2.014   5.629  0.0112  0.6680  1.1858
11389TIP3   OH255657   1.809   0.230  16.951  0.1202 -0.0649  0.4594
11389TIP3    H155658   1.804   0.179  16.871 -0.3250 -0.1868  0.5637
11389TIP3    H255659   1.859   0.175  17.011 -2.2488 -1.4085  1.3263
11390TIP3   OH255660   3.669   0.593  11.403 -0.0196 -0.4949  0.0011
11390TIP3    H155661   3.664   0.546  11.486 -0.2629 -0.1372  0.1910
11390TIP3    H255662   3.694   0.526  11.339  1.4283 -0.5328  0.5675
11391TIP3   OH255663   4.909   0.944  13.607  0.2559 -0.3867 -0.1034
11391TIP3    H155664   4.996   0.964  13.643  0.7097 -2.6191  0.2135
11391TIP3    H255665   4.911   0.849  13.593 -1.6804 -0.2918 -1.3601
11392TIP3   OH255666   0.681   6.478   3.064  0.0081 -0.1586 -0.3629
11392TIP3    H155667   0.705   6.403   3.011 -1.5901 -0.5351 -0.6172
11392TIP3    H255668   0.592   6.499   3.036  0.1552  1.3743  0.2216
11393TIP3   OH255669   0.333   4.979  12.509  0.3260 -0.0342  1.1294
11393TIP3    H155670   0.359   5.013  12.594  2.4995  0.5128  0.3142
11393TIP3    H255671   0.392   5.021  12.447 -1.4590 -0.0982 -0.7269
11394TIP3   OH255672   0.091   2.426   1.423  0.1982  0.5092  0.1577
11394TIP3    H155673   0.071   2.339   1.457  2.1717 -0.3905 -0.8576
11394TIP3    H255674   0.054   2.428   1.335  1.0392  0.2965 -0.2114
11395TIP3   OH255675   4.287   4.590   2.053 -0.2393  0.2782  0.8329
11395TIP3    H155676   4.228   4.663   2.034 -1.2375 -0.7087 -0.0035
11395TIP3    H255677   4.276   4.531   1.979  1.6368 -0.0673  0.7802
11396TIP3   OH255678   4.743   2.001  16.199  0.2156  0.1299 -0.1188
11396TIP3    H155679   4.731   2.086  16.242 -0.4083  0.0460 -0.1282
11396TIP3    H255680   4.772   2.024  16.110 -2.2225  0.4435 -0.9234
11397TIP3   OH255681   0.440   4.140   2.489 -0.5763 -0.2469 -0.6586
11397TIP3    H155682   0.372   4.074   2.497 -3.1491  2.1494 -1.0606
11397TIP3    H255683   0.426   4.199   2.563  1.0698  0.3436 -0.7680
11398TIP3   OH255684   3.319   2.095  13.301  0.4711 -0.1876  0.6066
11398TIP3    H155685   3.402   2.133  13.272  0.5154 -0.9187 -0.2686
11398TIP3    H255686   3.253   2.159  13.275  0.6561 -0.1355  0.2615
11399TIP3   OH255687   3.711   0.944   3.669  0.5221 -0.0592  0.3279
11399TIP3    H155688   3.780   0.908   3.725 -0.9079 -0.7256  1.7189
11399TIP3    H255689   3.630   0.905   3.701 -0.4217 -0.1814 -1.9972
11400TIP3   OH255690   6.443   4.289   1.746  0.6103  0.3445 -0.0554
11400TIP3    H155691   6.524   4.283   1.696  0.3687  0.0586 -0.4182
11400TIP3    H255692   6.402   4.370   1.715  0.1830 -0.1297 -0.7477
11401TIP3   OH255693   3.491   3.811   3.867  0.5722  0.2119  0.3815
11401TIP3    H155694   3.418   3.853   3.913 -0.4102 -0.6879 -0.2854
11401TIP3    H255695   3.530   3.753   3.933  0.5144  0.4930  0.6664
11402TIP3   OH255696   4.339   0.901  12.344  0.0881  0.6487  0.4300
11402TIP3    H155697   4.431   0.879  12.355 -0.5369 -1.5119  2.3441
11402TIP3    H255698   4.324   0.974  12.403 -0.1374 -1.5653  3.3614
11403TIP3   OH255699   4.943   5.044   3.157  0.0913 -0.5578 -0.0891
11403TIP3    H155700   4.869   4.984   3.165  0.4249 -0.6993  2.9450
11403TIP3    H255701   4.903   5.131   3.154 -0.2771 -0.5871  2.1775
11404TIP3   OH255702   1.061   2.110  14.593  0.1807  0.1832  0.2650
11404TIP3    H155703   0.989   2.174  14.597  0.4511  0.5055  0.0776
11404TIP3    H255704   1.083   2.106  14.500  0.0346 -0.3369  0.2487
11405TIP3   OH255705   5.838   1.511   3.849 -0.2010  0.2318 -0.2080
11405TIP3    H155706   5.826   1.577   3.918 -0.1139 -1.9291  2.0232
11405TIP3    H255707   5.914   1.461   3.878  1.3523  0.6589 -3.1731
11406TIP3   OH255708   6.004   5.594   3.965 -0.6105  0.0820 -0.0413
11406TIP3    H155709   5.936   5.557   4.020 -0.0042 -0.2343  0.5119
11406TIP3    H255710   6.070   5.627   4.026 -0.9000  1.6434 -0.5261
11407TIP3   OH255711   5.236   1.648   2.196  0.1168 -0.6387 -0.1587
11407TIP3    H155712   5.283   1.719   2.152  1.4471 -0.5019  1.3681
11407TIP3    H255713   5.160   1.631   2.140 -1.0721  2.9570  0.0796
11408TIP3   OH255714   3.237   3.124   1.349  0.0423 -0.5687 -0.3001
11408TIP3    H155715   3.154   3.091   1.385  1.2963 -2.6939  0.8534
11408TIP3    H255716   3.225   3.121   1.254 -1.0243 -1.3082 -0.1594
11409TIP3   OH255717   6.652   4.728  15.884  0.4419  0.3399 -0.0241
11409TIP3    H155718   6.618   4.690  15.802 -0.3889  2.4416 -0.7314
11409TIP3    H255719   6.743   4.698  15.888  1.0411  1.4682 -2.6435
11410TIP3   OH255720   6.582   5.986   4.342 -0.3103  0.1968 -0.2743
11410TIP3    H155721   6.638   6.025   4.410 -2.5867 -0.7744  2.3171
11410TIP3    H255722   6.590   5.892   4.355  0.3211 -0.0829 -2.3887
11411TIP3   OH255723   2.765   0.129  14.387  0.4212  0.0419  0.2900
11411TIP3    H155724   2.703   0.092  14.324  0.4736 -2.1810  1.4566
11411TIP3    H255725   2.788   0.056  14.444  1.8965  1.5156  1.6872
11412TIP3   OH255726   1.904   1.353  10.842  0.0489  0.1182 -0.3650
11412TIP3    H155727   1.889   1.312  10.757 -0.0511 -0.4257 -0.0848
11412TIP3    H255728   1.816   1.375  10.873  0.0053 -0.6388  0.0681
11413TIP3   OH255729   5.505   0.111   6.007  0.3112 -0.3638  0.3164
11413TIP3    H155730   5.436   0.176   6.022 -0.9644 -1.4422 -0.6688
11413TIP3    H255731   5.501   0.054   6.084  1.0672  0.3742  0.9223
11414TIP3   OH255732   6.268   2.540  11.863  0.0812  0.1458  0.6963
11414TIP3    H155733   6.321   2.620  11.860  1.3440 -0.6271  1.3952
11414TIP3    H255734   6.220   2.546  11.945 -0.4516  0.5528  0.3621
11415TIP3   OH255735   2.394   1.329  14.684 -0.7007  0.0249  0.7914
11415TIP3    H155736   2.472   1.347  14.738 -0.4697  1.3406  0.0509
11415TIP3    H255737   2.429   1.300  14.600 -1.0142  0.3859  0.5345
11416TIP3   OH255738   1.615   2.344  12.780 -0.6832  0.3392 -0.7497
11416TIP3    H155739   1.679   2.275  12.801 -1.2838  0.2961  1.0716
11416TIP3    H255740   1.664   2.425  12.787 -0.3877  0.2145 -1.2508
11417TIP3   OH255741   0.121   4.352   4.260  0.1108 -0.2050  0.4223
11417TIP3    H155742   0.043   4.406   4.268  0.6705  0.5853  0.7210
11417TIP3    H255743   0.100   4.289   4.192 -0.2034  1.0738 -0.7259
11418TIP3   OH255744   2.949   5.723   1.162  0.3537  0.3684  0.5905
11418TIP3    H155745   2.924   5.646   1.213  3.8041 -1.2833  0.0498
11418TIP3    H255746   3.034   5.748   1.196  0.4932  2.3466 -1.0495
11419TIP3   OH255747   0.356   0.770  12.011 -0.5230  0.1333 -0.0208
11419TIP3    H155748   0.403   0.719  12.078  0.5545  1.0256 -0.0621
11419TIP3    H255749   0.341   0.855  12.053 -1.6922  0.0237 -0.1937
11420TIP3   OH255750   4.002   0.851  16.310  0.3038 -0.6092 -0.2707
11420TIP3    H155751   3.924   0.867  16.364  1.7967  0.3469  1.7581
11420TIP3    H255752   3.969   0.805  16.233 -2.1937 -0.6263  0.7058
11421TIP3   OH255753   6.336   0.842   5.048 -0.2293 -0.9406 -0.3624
11421TIP3    H155754   6.269   0.851   4.979  1.2072  2.8180 -1.5317
11421TIP3    H255755   6.412   0.888   5.013  1.2060 -0.4430  3.0582
11422TIP3   OH255756   4.403   5.033  13.334  0.1090 -0.1718  1.0572
11422TIP3    H155757   4.441   4.997  13.414 -0.3582 -1.6774  0.6307
11422TIP3    H255758   4.428   4.970  13.265  0.9174  1.3347 -0.0829
11423TIP3   OH255759   2.363   0.573   4.933 -0.0145  0.4944  0.2673
11423TIP3    H155760   2.368   0.668   4.933 -0.6368  0.5295  0.8273
11423TIP3    H255761   2.317   0.551   4.852  1.2600  0.5960 -0.5063
11424TIP3   OH255762   0.869   6.281  11.281 -0.2523 -0.2408  0.2247
11424TIP3    H155763   0.921   6.338  11.339  0.1937 -0.2736 -0.1331
11424TIP3    H255764   0.885   6.316  11.194 -1.8604  0.5537  0.2090
11425TIP3   OH255765   3.055   1.351   4.653 -0.4302 -0.1662 -0.2428
11425TIP3    H155766   3.034   1.259   4.663  0.0482 -0.2987 -0.4330
11425TIP3    H255767   3.138   1.352   4.605 -1.9858  0.3903 -3.1503
11426TIP3   OH255768   0.008   0.248   2.995  0.1108 -0.4998 -0.3614
11426TIP3    H155769  -0.081   0.260   2.963 -0.2342 -1.6554  0.1055
11426TIP3    H255770   0.031   0.332   3.035 -0.9155 -0.3063 -0.1489
11427TIP3   OH255771   0.416   0.535  13.839 -0.0374 -0.1431 -0.1661
11427TIP3    H155772   0.324   0.516  13.820 -0.2603  0.8094 -0.1189
11427TIP3    H255773   0.464   0.488  13.771 -0.3718 -2.6042  1.1778
11428TIP3   OH255774   3.252   5.713  15.976  0.0631 -0.1115 -0.0246
11428TIP3    H155775   3.290   5.797  16.002 -1.3605  0.2364  1.0928
11428TIP3    H255776   3.326   5.651  15.979  1.2302  1.1466 -1.3351
11429TIP3   OH255777   5.377   0.089  14.435  0.5969 -0.5543 -0.0579
11429TIP3    H155778   5.300   0.118  14.386 -0.3397 -1.7176  0.6466
11429TIP3    H255779   5.353   0.002  14.468  2.1628 -0.8794  0.3200
11430TIP3   OH255780   0.768   6.437   3.298  0.2718 -0.2161 -0.4554
11430TIP3    H155781   0.726   6.478   3.223  1.1083  1.8852  0.1266
11430TIP3    H255782   0.857   6.419   3.269  0.1226 -0.9579 -0.4688
11431TIP3   OH255783   0.171   2.743   1.026  0.4444  0.3619 -0.1339
11431TIP3    H155784   0.114   2.760   1.101 -0.9909  0.4594 -1.2054
11431TIP3    H255785   0.203   2.830   1.000 -0.3504  0.5116 -0.6184
11432TIP3   OH255786   5.354   5.543   3.532  0.0792  0.1714 -0.1545
11432TIP3    H155787   5.331   5.566   3.622  0.6448  0.6033 -0.1175
11432TIP3    H255788   5.427   5.482   3.540  1.9390  2.2362 -0.3412
11433TIP3   OH255789   1.719   1.836  12.331  0.0240  0.1743  0.3005
11433TIP3    H155790   1.697   1.795  12.247 -0.4699  0.7589  0.1361
11433TIP3    H255791   1.803   1.879  12.314 -0.3060  0.6917 -0.0369
11434TIP3   OH255792   0.286   5.653  14.058  0.4448 -0.6803  0.2119
11434TIP3    H155793   0.348   5.603  14.111  0.3636 -0.7357  0.2555
11434TIP3    H255794   0.318   5.743  14.061  0.5277 -0.7108  0.2267
11435TIP3   OH255795   2.375   3.415  11.216 -0.2962  0.0880  0.2964
11435TIP3    H155796   2.418   3.430  11.300  1.1043  1.1210 -0.5386
11435TIP3    H255797   2.443   3.374  11.162 -0.6983  0.7806 -0.7582
11436TIP3   OH255798   0.581   1.848   2.166 -0.1784  0.2304  0.0096
11436TIP3    H155799   0.576   1.851   2.261 -3.2690  0.1183 -0.0627
11436TIP3    H255800   0.637   1.772   2.147 -1.1683 -0.9877  1.7448
11437TIP3   OH255801   0.455   4.943  13.599 -0.6440  0.3692  0.0729
11437TIP3    H155802   0.416   4.950  13.512 -1.3260 -1.4834  0.1777
11437TIP3    H255803   0.548   4.925  13.582 -0.4348  1.6331 -0.2211
11438TIP3   OH255804   0.158   4.545   0.089 -0.2315 -0.0866  0.1443
11438TIP3    H155805   0.147   4.615   0.024  0.1353  0.9479  1.1597
11438TIP3    H255806   0.086   4.485   0.071  0.2081 -0.1483 -1.5919
11439TIP3   OH255807   6.603   0.658   4.532  0.3297 -0.1850 -0.0702
11439TIP3    H155808   6.677   0.673   4.472 -0.0727 -0.5499 -0.6719
11439TIP3    H255809   6.616   0.721   4.602  0.8359  0.2284 -0.5238
11440TIP3   OH255810   4.291   5.212  15.919  0.2658  0.1602 -0.3040
11440TIP3    H155811   4.307   5.157  15.996 -0.3766  0.5775  0.1338
11440TIP3    H255812   4.213   5.173  15.878 -1.2277  1.7094  0.9443
11441TIP3   OH255813   6.328   2.724  11.508  0.1552  0.2505  0.2349
11441TIP3    H155814   6.320   2.712  11.602  1.8897 -1.1156  0.2546
11441TIP3    H255815   6.337   2.819  11.496 -0.5771  0.4795  1.3680
11442TIP3   OH255816   0.692   6.808  12.769  0.0351 -0.1011 -0.1370
11442TIP3    H155817   0.629   6.802  12.697  1.4319 -0.1800 -1.4082
11442TIP3    H255818   0.690   6.900  12.796 -0.9153 -0.1925  0.1418
11443TIP3   OH255819   0.767   3.221  12.818  0.2929  0.2080 -0.4185
11443TIP3    H155820   0.766   3.153  12.885 -0.0677  0.5589 -0.0609
11443TIP3    H255821   0.754   3.174  12.736 -1.1413 -0.0524 -0.0730
11444TIP3   OH255822   6.062   4.157   2.175 -0.5147  0.6731 -0.1674
11444TIP3    H155823   6.020   4.113   2.249 -1.3423  0.1379 -0.9279
11444TIP3    H255824   6.136   4.203   2.213  0.5728 -1.6016  0.6649
11445TIP3   OH255825   6.608   4.691  15.201  0.4751  0.7423 -0.0605
11445TIP3    H155826   6.584   4.600  15.188 -0.8308  1.2506 -1.6273
11445TIP3    H255827   6.529   4.732  15.237  0.6748  1.4609 -0.4190
11446TIP3   OH255828   1.508   2.482   0.865 -0.3900  0.4707 -0.8104
11446TIP3    H155829   1.479   2.560   0.817  0.1696  0.4956 -1.1208
11446TIP3    H255830   1.599   2.500   0.887 -0.4117  0.1218 -0.4199
11447TIP3   OH255831   3.888   3.372   1.851 -0.4365  0.0613 -0.1918
11447TIP3    H155832   3.870   3.352   1.760 -1.6292  0.8904 -0.1595
11447TIP3    H255833   3.927   3.459   1.850  1.4631 -0.7544 -0.0553
11448TIP3   OH255834   0.934   5.061  13.551  0.1550  0.2897 -0.0677
11448TIP3    H155835   1.004   5.125  13.538  1.0833 -0.0637  2.4760
11448TIP3    H255836   0.880   5.067  13.473  0.8893  3.3113 -0.4516
11449TIP3   OH255837   3.875   4.495  14.728  0.1591 -0.2162  0.0616
11449TIP3    H155838   3.802   4.472  14.785 -0.5461  0.4524 -0.5421
11449TIP3    H255839   3.893   4.587  14.748 -0.4622  0.2007 -1.1338
11450TIP3   OH255840   2.405   6.182  12.887 -0.7294 -0.2561 -0.6796
11450TIP3    H155841   2.477   6.219  12.836 -1.3652  0.2445 -1.2310
11450TIP3    H255842   2.435   6.186  12.978 -1.0423  2.3535 -0.6169
11451TIP3   OH255843   5.311   6.597  15.628 -0.3738 -0.1440 -0.0257
11451TIP3    H155844   5.354   6.515  15.652  0.3837  0.0054 -0.8122
11451TIP3    H255845   5.382   6.652  15.595 -0.7797  1.0415  1.0186
11452TIP3   OH255846   3.717   2.157   3.886  0.2490 -0.1747 -0.4109
11452TIP3    H155847   3.660   2.229   3.860  2.6437  3.2581  2.6837
11452TIP3    H255848   3.659   2.091   3.923 -1.9349  1.1013 -1.4255
11453TIP3   OH255849   5.184   0.153   3.956 -0.3299  0.3289  0.1834
11453TIP3    H155850   5.187   0.161   4.051 -0.3900  0.3734  0.1815
11453TIP3    H255851   5.189   0.059   3.939  2.6537  0.3856  0.1332
11454TIP3   OH255852   5.344   3.664   6.301  0.4617  0.3037  0.1068
11454TIP3    H155853   5.362   3.572   6.284  1.9366  0.6849 -0.4910
11454TIP3    H255854   5.421   3.695   6.348  0.0264  1.2633  0.1983
11455TIP3   OH255855   2.271   0.490   4.682 -0.5418  0.0317 -0.2110
11455TIP3    H155856   2.282   0.554   4.611 -0.7556 -0.0588 -0.3285
11455TIP3    H255857   2.250   0.408   4.637  0.6496 -0.3425 -0.1005
11456TIP3   OH255858   2.471   4.297   1.029  0.0020 -0.3081  0.6149
11456TIP3    H155859   2.558   4.298   0.988 -0.1419 -0.1822  0.3090
11456TIP3    H255860   2.416   4.349   0.970 -0.4843 -1.1042  0.3445
11457TIP3   OH255861   0.608   6.073   5.983 -0.0981 -0.3549  0.1904
11457TIP3    H155862   0.599   6.166   5.961  0.1508 -0.5853 -0.8951
11457TIP3    H255863   0.701   6.055   5.971  0.1124 -0.4370  1.6997
11458TIP3   OH255864   6.816   6.650   2.536  0.2036 -0.1444  0.0216
11458TIP3    H155865   6.743   6.588   2.531  1.4544 -1.5919 -1.0412
11458TIP3    H255866   6.778   6.728   2.576 -1.7267 -1.1422  0.2477
11459TIP3   OH255867   3.343   3.343   3.721 -0.7991  0.1351 -0.3165
11459TIP3    H155868   3.279   3.398   3.765 -1.3300 -0.8283  0.1431
11459TIP3    H255869   3.420   3.346   3.778 -0.8149  0.4216 -0.3094
11460TIP3   OH255870   4.965   3.041  14.645  0.3013  0.5659  0.1296
11460TIP3    H155871   5.056   3.068  14.658  0.2335  1.0228 -0.3181
11460TIP3    H255872   4.932   3.101  14.578 -0.2467  0.2203  0.0886
11461TIP3   OH255873   2.205   5.795   1.173 -0.6366 -0.5022 -0.1222
11461TIP3    H155874   2.217   5.838   1.258 -0.6169 -2.4298  0.8903
11461TIP3    H255875   2.276   5.730   1.169  0.1389  0.3797 -2.1904
11462TIP3   OH255876   6.155   0.159   0.440  0.4996 -0.1263 -0.4156
11462TIP3    H155877   6.164   0.179   0.347 -1.2453 -1.3547 -0.9045
11462TIP3    H255878   6.116   0.238   0.477 -1.1146 -0.4810 -1.2474
11463TIP3   OH255879   1.156   4.800  17.046 -0.0490  0.0148  0.0394
11463TIP3    H155880   1.120   4.718  17.082  0.3160 -0.4491 -0.6313
11463TIP3    H255881   1.158   4.786  16.952 -1.1718  1.2966 -0.2030
11464TIP3   OH255882   3.095   6.159   1.917 -0.0459 -0.4190 -0.0972
11464TIP3    H155883   3.180   6.116   1.925  0.6076  0.5582 -1.5643
11464TIP3    H255884   3.112   6.238   1.867 -1.7746 -0.0242 -0.1190
11465TIP3   OH255885   4.186   0.974  14.368 -0.0591 -0.1508  0.2312
11465TIP3    H155886   4.144   0.965  14.283 -0.8019  0.9490  0.4598
11465TIP3    H255887   4.274   0.938  14.356 -0.6360 -1.3410 -0.5936
11466TIP3   OH255888   2.660   4.482  10.666 -0.3968  0.2637  0.2014
11466TIP3    H155889   2.601   4.543  10.711 -1.7093  0.7321 -1.9973
11466TIP3    H255890   2.619   4.397  10.677 -0.0316  0.1711  0.9256
11467TIP3   OH255891   2.850   0.872  16.065 -0.1446  0.1864 -0.5900
11467TIP3    H155892   2.825   0.839  15.978  2.0969  0.2441 -1.3144
11467TIP3    H255893   2.774   0.853  16.120 -0.5940 -2.4194 -1.9209
11468TIP3   OH255894   4.978   5.465   1.699  0.0248  0.3147  0.2796
11468TIP3    H155895   5.065   5.493   1.725  1.0014 -0.3845 -1.9504
11468TIP3    H255896   4.919   5.529   1.738  1.6349  1.4860  0.8687
11469TIP3   OH255897   0.097   3.812   3.587 -0.1611 -0.1440 -0.5932
11469TIP3    H155898   0.013   3.834   3.548 -0.5979  2.4979  1.5575
11469TIP3    H255899   0.162   3.851   3.527 -0.7051  1.4360 -0.2150
11470TIP3   OH255900   4.214   4.042   2.478  0.2655  0.3485 -0.2674
11470TIP3    H155901   4.282   4.085   2.426 -0.1765 -0.8461 -1.9149
11470TIP3    H255902   4.153   4.007   2.413 -0.7538 -0.5058  1.1017
11471TIP3   OH255903   0.038   0.546  13.129  0.1169  0.4931  0.5044
11471TIP3    H155904  -0.012   0.542  13.047 -0.0158  0.3826  0.5911
11471TIP3    H255905  -0.002   0.479  13.184  0.0163  0.7696  0.7676
11472TIP3   OH255906   1.124   5.044   3.953 -0.6707 -0.0723 -0.3344
11472TIP3    H155907   1.151   4.994   3.876  2.9204  0.7788  0.2270
11472TIP3    H255908   1.109   5.132   3.919  0.0089  0.0920 -0.2110
11473TIP3   OH255909   3.783   4.951   4.993 -0.0635  0.4313 -0.0460
11473TIP3    H155910   3.829   5.033   5.003 -0.0970  0.3667  0.7070
11473TIP3    H255911   3.809   4.899   5.069 -1.3417  0.3866  0.3882
11474TIP3   OH255912   2.918   1.228  12.107 -0.3719  0.1546 -0.3886
11474TIP3    H155913   2.932   1.166  12.035 -1.6984  0.2637 -0.7581
11474TIP3    H255914   2.917   1.314  12.065 -0.3370  0.2850 -0.1261
11475TIP3   OH255915   0.478   1.455  14.358 -0.2671 -0.7610 -0.3825
11475TIP3    H155916   0.493   1.530  14.415  1.0984 -1.0392 -0.3425
11475TIP3    H255917   0.385   1.435  14.368 -0.7240  1.0920 -0.6165
11476TIP3   OH255918   0.725   2.665   6.723 -0.0447  0.7101  0.1651
11476TIP3    H155919   0.646   2.616   6.747  0.3847 -0.7797 -1.1975
11476TIP3    H255920   0.763   2.613   6.652  0.3576  3.1771 -1.5396
11477TIP3   OH255921   5.048   4.596  14.669 -0.9086  0.3559  1.0210
11477TIP3    H155922   5.004   4.668  14.624  1.0294  1.7037  1.1649
11477TIP3    H255923   5.086   4.544  14.598  0.2456  1.2087  0.9965
11478TIP3   OH255924   5.104   6.754   4.018 -0.9628  0.5575 -0.0387
11478TIP3    H155925   5.093   6.760   4.113 -3.3593  1.6985 -0.3213
11478TIP3    H255926   5.174   6.690   4.006  0.3400  1.3679  2.5082
11479TIP3   OH255927   6.806   4.075  14.568 -0.2853 -0.0770  0.3123
11479TIP3    H155928   6.752   4.088  14.490 -0.2078 -0.1833  0.2391
11479TIP3    H255929   6.888   4.121  14.548 -0.2332 -0.1759  0.2949
11480TIP3   OH255930   3.330   2.489  15.456  0.4540  0.1044  0.0950
11480TIP3    H155931   3.386   2.511  15.531 -0.1363  1.4952  0.1563
11480TIP3    H255932   3.289   2.406  15.479  1.4364 -0.2369  0.6447
11481TIP3   OH255933   5.211   3.098  12.217  0.0053 -0.4769 -0.3547
11481TIP3    H155934   5.130   3.063  12.181 -1.4251 -0.0295  2.1662
11481TIP3    H255935   5.274   3.027  12.210 -1.0632 -1.3836 -0.9538
11482TIP3   OH255936   3.400   4.151  12.423  0.1830  0.5030  0.1203
11482TIP3    H155937   3.435   4.063  12.428  0.5997  0.7483  2.5156
11482TIP3    H255938   3.475   4.208  12.440 -0.2621  1.2870 -0.4797
11483TIP3   OH255939   2.664   4.762   0.507 -0.1618  0.2427 -0.2287
11483TIP3    H155940   2.749   4.754   0.464  0.3100  2.2283  0.2457
11483TIP3    H255941   2.600   4.751   0.437  0.4771 -0.6924 -0.6871
11484TIP3   OH255942   3.963   6.083  14.272 -0.8390 -0.4518  0.1437
11484TIP3    H155943   4.049   6.086  14.314  0.1296 -0.0400 -1.7659
11484TIP3    H255944   3.923   6.003  14.306  0.3182 -0.6737  1.0366
11485TIP3   OH255945   0.002   3.983   1.393 -0.0672 -0.2788  0.2159
11485TIP3    H155946   0.067   4.048   1.420  0.8573 -0.4645 -1.4168
11485TIP3    H255947   0.036   3.900   1.428  2.1693 -0.8439 -2.8466
11486TIP3   OH255948   1.808   1.495   1.297 -0.2562 -0.1016 -0.2528
11486TIP3    H155949   1.775   1.523   1.382  0.6101  0.4891 -0.0937
11486TIP3    H255950   1.805   1.399   1.300  0.3622 -0.1064  0.6897
11487TIP3   OH255951   2.549   4.715  14.809  0.4163 -0.3215 -0.4949
11487TIP3    H155952   2.546   4.733  14.715  0.1057 -1.2370 -0.6766
11487TIP3    H255953   2.642   4.715  14.831  0.4268  2.2381 -0.3024
11488TIP3   OH255954   5.469   1.728   0.126 -0.4625  0.5100 -0.1056
11488TIP3    H155955   5.461   1.719   0.221 -1.7593  0.3830 -0.2063
11488TIP3    H255956   5.420   1.654   0.091  0.3474  0.3232 -0.8826
11489TIP3   OH255957   0.150   5.172  12.725 -0.7637 -0.7190 -0.1331
11489TIP3    H155958   0.073   5.139  12.679 -0.0789 -0.7436 -1.2747
11489TIP3    H255959   0.125   5.168  12.818 -2.2071 -0.5491 -0.4855
11490TIP3   OH255960   2.874   3.055  15.950 -0.0184 -0.0780  0.7626
11490TIP3    H155961   2.869   3.019  15.861 -0.2390  0.4220  0.5666
11490TIP3    H255962   2.967   3.071  15.964  0.1741 -1.3691  1.1236
11491TIP3   OH255963   2.481   1.256  11.106  0.4674 -0.0040  0.1348
11491TIP3    H155964   2.552   1.211  11.152  1.2495  2.1862  1.2365
11491TIP3    H255965   2.415   1.189  11.091  1.6101 -1.5147  1.5505
11492TIP3   OH255966   6.583   6.020  14.490  0.3360  0.3317 -0.3847
11492TIP3    H155967   6.530   6.096  14.513  0.6047  1.2522 -2.5111
11492TIP3    H255968   6.537   5.946  14.528 -1.3734  1.2989 -0.4413
11493TIP3   OH255969   5.919   1.241  11.246 -0.2029  0.2424 -0.3815
11493TIP3    H155970   5.909   1.335  11.233  0.1851  0.3212 -0.1353
11493TIP3    H255971   6.004   1.232  11.290 -0.0926 -0.2429 -0.6864
11494TIP3   OH255972   5.786   5.130  16.412  0.5198 -0.1395 -0.3812
11494TIP3    H155973   5.761   5.218  16.441 -2.8223 -1.0327 -0.1534
11494TIP3    H255974   5.790   5.078  16.492  0.7139 -0.5675 -0.6652
11495TIP3   OH255975   0.085   1.962   3.704  0.1432 -0.2219 -0.4851
11495TIP3    H155976   0.145   2.030   3.674  0.3869 -0.2921 -0.1575
11495TIP3    H255977   0.140   1.884   3.716 -0.0794 -0.3920 -0.5565
11496TIP3   OH255978   2.740   4.286  13.322  0.2068  0.6681  0.5417
11496TIP3    H155979   2.812   4.245  13.274 -0.6236  0.2105 -0.3609
11496TIP3    H255980   2.665   4.229  13.305 -0.3272  1.0418  1.6068
11497TIP3   OH255981   6.294   4.269  16.332 -0.4924  0.3793 -0.0978
11497TIP3    H155982   6.296   4.356  16.294 -1.9612  0.0544 -1.0120
11497TIP3    H255983   6.201   4.248  16.338 -0.2069 -0.6692  1.2002
11498TIP3   OH255984   1.941   6.309  15.854  0.0274 -0.1241 -0.0738
11498TIP3    H155985   2.018   6.343  15.809 -0.6730 -0.5037 -1.6158
11498TIP3    H255986   1.899   6.251  15.790 -1.7965  0.4350  0.5524
11499TIP3   OH255987   1.912   0.809   2.438 -0.2183  0.7873  0.2663
11499TIP3    H155988   1.963   0.730   2.420 -0.4578  0.5519  0.6207
11499TIP3    H255989   1.856   0.818   2.361 -0.4605  0.3993  0.3942
11500TIP3   OH255990   3.785   3.984  10.945 -0.3560 -0.9714  0.5090
11500TIP3    H155991   3.842   3.984  11.022 -1.1125 -1.2997  1.0804
11500TIP3    H255992   3.711   4.040  10.969  0.8388  1.5180 -1.1217
11501TIP3   OH255993   4.128   6.570  17.134  0.0781 -0.3422 -0.1067
11501TIP3    H155994   4.204   6.626  17.116 -0.7530  1.3935  1.4128
11501TIP3    H255995   4.144   6.536  17.222 -0.0764 -1.4244 -0.4855
11502TIP3   OH255996   1.917   1.703  15.745 -0.6964  0.3422  0.5588
11502TIP3    H155997   1.923   1.664  15.658 -1.9717 -1.9289  1.4133
11502TIP3    H255998   1.888   1.793  15.729 -1.8790 -0.3305 -1.3280
11503TIP3   OH255999   3.860   1.916   0.811 -0.5208  0.3976  0.4301
11503TIP3    H156000   3.794   1.861   0.852 -0.3191 -0.4807 -0.3851
11503TIP3    H256001   3.813   1.964   0.742 -0.4554  0.3468  0.3500
11504TIP3   OH256002   2.595   6.077   3.740  0.3479 -0.0430 -0.1527
11504TIP3    H156003   2.673   6.037   3.779  0.2838 -0.4546 -0.4395
11504TIP3    H256004   2.537   6.003   3.723  0.1213  0.2028 -0.4499
11505TIP3   OH256005   1.609   4.603  16.430  0.3283 -0.4737  0.2053
11505TIP3    H156006   1.575   4.540  16.493 -1.5640 -1.3556 -1.5495
11505TIP3    H256007   1.531   4.652  16.401  1.4974  1.5434  0.2729
11506TIP3   OH256008   6.113   4.086   5.201  0.1699  0.4330  0.4919
11506TIP3    H156009   6.187   4.145   5.187 -0.0904  0.5929 -0.3124
11506TIP3    H256010   6.038   4.145   5.212 -0.1753  0.2665 -0.8099
11507TIP3   OH256011   3.737   5.372  16.128  0.3964  0.3624  0.4349
11507TIP3    H156012   3.697   5.436  16.187  1.1247  0.1782  1.1547
11507TIP3    H256013   3.794   5.320  16.185 -0.2566 -0.9969 -0.1119
11508TIP3   OH256014   6.666   2.640  14.802  0.0655  0.2806 -0.4213
11508TIP3    H156015   6.712   2.592  14.872 -0.6817  1.3353  0.8469
11508TIP3    H256016   6.700   2.603  14.721  1.0422 -0.9286  0.4999
11509TIP3   OH256017   0.173   6.719   3.335 -0.4188 -0.1450 -0.0891
11509TIP3    H156018   0.263   6.687   3.343 -0.1911  0.2152 -1.0533
11509TIP3    H256019   0.133   6.663   3.269 -1.0581 -0.6099  0.6814
11510TIP3   OH256020   1.085   3.393  11.059  0.3173 -0.5800 -0.0426
11510TIP3    H156021   1.157   3.356  11.008 -2.1464 -4.2173 -1.3100
11510TIP3    H256022   1.022   3.425  10.993  0.3059  1.7495  1.0012
11511TIP3   OH256023   4.454   2.608   2.663 -0.0001  0.0839  0.2099
11511TIP3    H156024   4.472   2.670   2.734  1.6381 -0.9617  0.7418
11511TIP3    H256025   4.535   2.604   2.613 -0.9241  0.3125 -1.3781
11512TIP3   OH256026   2.320   2.247  12.134 -0.1597 -0.2454  0.1491
11512TIP3    H156027   2.237   2.236  12.179 -0.3983 -1.2548 -0.5062
11512TIP3    H256028   2.349   2.336  12.157 -0.9182 -0.2537  1.1778
11513TIP3   OH256029   3.899   0.063  14.226  0.1341 -0.6557 -0.7901
11513TIP3    H156030   3.850   0.006  14.166  0.5411 -0.0364 -1.7334
11513TIP3    H256031   3.905   0.012  14.307 -2.9019 -0.3902 -0.2712
11514TIP3   OH256032   4.273   6.161   3.913 -0.8293 -0.5853 -0.4378
11514TIP3    H156033   4.324   6.082   3.932  0.1020  0.7049  3.2711
11514TIP3    H256034   4.327   6.210   3.852  0.0728 -1.4414 -0.3522
11515TIP3   OH256035   5.894   2.944   4.313 -0.6900  0.0740  0.1546
11515TIP3    H156036   5.866   3.028   4.277 -2.1832 -1.0165 -1.3748
11515TIP3    H256037   5.933   2.898   4.239 -2.1852 -1.5390  0.3061
11516TIP3   OH256038   5.948   1.003   4.871  0.3387  0.3364 -0.0388
11516TIP3    H156039   5.857   1.006   4.840  0.2646 -0.0614  0.1322
11516TIP3    H256040   5.944   0.949   4.950  1.0372 -1.4925 -1.1809
11517TIP3   OH256041   5.227   3.128  14.592  0.2497  0.1705  0.3347
11517TIP3    H156042   5.316   3.140  14.625  1.1375  2.1919 -2.4675
11517TIP3    H256043   5.237   3.066  14.519 -1.0576 -1.2885  1.3269
11518TIP3   OH256044   5.515   0.824  13.871 -0.1290  0.7208 -0.6122
11518TIP3    H156045   5.463   0.895  13.911 -3.1391 -0.9319 -1.2667
11518TIP3    H256046   5.548   0.774  13.945  0.4695  1.7485 -0.1684
11519TIP3   OH256047   0.452   0.679   3.738  0.0297 -0.4125 -0.0404
11519TIP3    H156048   0.482   0.615   3.803  0.2552 -1.2411 -0.9416
11519TIP3    H256049   0.504   0.660   3.660 -1.5592 -0.7007 -1.0765
11520TIP3   OH256050   6.453   4.634  16.231 -0.0115  0.2720  0.0232
11520TIP3    H156051   6.522   4.689  16.268  0.7828 -1.9107  1.9990
11520TIP3    H256052   6.394   4.616  16.305  0.0055 -1.8432 -0.4165
11521TIP3   OH256053   5.214   2.900  16.925  0.3211  0.2963 -0.0981
11521TIP3    H156054   5.237   2.836  16.857 -0.9111 -0.6892  0.3769
11521TIP3    H256055   5.273   2.974  16.909  1.9970 -1.0705 -0.4761
11522TIP3   OH256056   0.778   6.363  16.939 -0.1180  0.0216 -0.3607
11522TIP3    H156057   0.719   6.318  16.878  0.6472  1.8951 -2.6330
11522TIP3    H256058   0.721   6.395  17.008 -1.0497 -2.0754 -0.0982
11523TIP3   OH256059   1.338   4.424   4.512  0.1373 -0.1284  0.5456
11523TIP3    H156060   1.344   4.415   4.607 -2.2716 -2.0634  0.6229
11523TIP3    H256061   1.246   4.446   4.496  0.6896  1.0415 -1.3218
11524TIP3   OH256062   4.887   3.853   0.028 -0.3676 -0.4608  0.2208
11524TIP3    H156063   4.812   3.851   0.086 -0.9117 -0.1828 -0.4600
11524TIP3    H256064   4.864   3.917  -0.039  1.5282  1.5685  1.3913
11525TIP3   OH256065   3.254   3.871  10.961 -0.2459 -0.0292 -0.3307
11525TIP3    H156066   3.281   3.955  10.924  0.8627 -0.2747 -0.1241
11525TIP3    H256067   3.173   3.849  10.914 -0.7931  1.3419 -0.0814
11526TIP3   OH256068   1.034   3.724  13.440  1.0274  0.2871 -0.0567
11526TIP3    H156069   0.977   3.695  13.512  0.4294 -1.9262 -1.3124
11526TIP3    H256070   1.081   3.799  13.476 -1.2184  0.9795  1.7115
11527TIP3   OH256071   5.970   4.748   5.563 -0.4921  0.3279  0.4215
11527TIP3    H156072   6.057   4.730   5.600  0.1591  0.7898 -0.8392
11527TIP3    H256073   5.932   4.814   5.621  0.2852  0.6324  0.5913
11528TIP3   OH256074   6.451   5.362   3.981 -0.2359  0.0213  0.1399
11528TIP3    H156075   6.453   5.362   4.077 -1.6832  1.5674  0.2170
11528TIP3    H256076   6.543   5.352   3.955  0.3734  1.0804  1.7169
11529TIP3   OH256077   1.309   4.386  16.362 -0.1975  0.0463 -0.4370
11529TIP3    H156078   1.305   4.455  16.295  0.1644 -0.2121 -0.7305
11529TIP3    H256079   1.395   4.345  16.348 -0.3477 -0.3621 -0.1629
11530TIP3   OH256080   0.173   3.998   2.405 -0.0446  0.0865 -0.0666
11530TIP3    H156081   0.165   3.906   2.428  0.1981  0.1962  0.4651
11530TIP3    H256082   0.103   4.041   2.454 -0.8503  0.0566 -1.1324
11531TIP3   OH256083   2.340   0.570   3.354 -0.0987 -0.3722 -0.2050
11531TIP3    H156084   2.283   0.606   3.422 -0.8935 -1.1860 -0.4103
11531TIP3    H256085   2.401   0.641   3.333 -0.2829  0.1199  0.8552
11532TIP3   OH256086   3.478   6.673  12.431 -0.0525  0.5478 -0.3951
11532TIP3    H156087   3.565   6.639  12.409  0.9320  2.2710  0.5355
11532TIP3    H256088   3.496   6.757  12.473 -2.1711  0.7287  0.2641
11533TIP3   OH256089   2.860   1.175   6.039 -0.1245 -0.0896  0.3977
11533TIP3    H156090   2.801   1.103   6.062  0.1631  0.0426  1.6477
11533TIP3    H256091   2.910   1.191   6.119 -1.8709  3.1209  1.0337
11534TIP3   OH256092   1.215   5.507   5.429  0.1403 -0.1197  0.6518
11534TIP3    H156093   1.311   5.516   5.430  0.0430  1.0766  0.9904
11534TIP3    H256094   1.193   5.482   5.519  0.2840 -2.7104  0.0538
11535TIP3   OH256095   1.146   6.301  12.733  0.0103 -0.2008 -0.4486
11535TIP3    H156096   1.177   6.237  12.669  0.2625  1.5204 -2.1535
11535TIP3    H256097   1.079   6.351  12.686 -0.4647  0.5093  0.9491
11536TIP3   OH256098   3.315   1.092  15.336 -0.1066 -0.5305 -0.0906
11536TIP3    H156099   3.300   1.156  15.267  0.2930 -0.1377  0.1833
11536TIP3    H256100   3.272   1.128  15.413  1.6943  0.3393  0.5583
11537TIP3   OH256101   4.435   2.736   2.129 -0.7722 -0.3191  0.4882
11537TIP3    H156102   4.514   2.782   2.158  0.4066 -0.5643 -2.0369
11537TIP3    H256103   4.438   2.652   2.175  1.1136 -0.7933 -0.3947
11538TIP3   OH256104   2.552   0.110   4.360 -0.1690  0.0415  0.0800
11538TIP3    H156105   2.645   0.089   4.367  0.1357  1.1430 -0.5506
11538TIP3    H256106   2.549   0.203   4.340 -1.4553  0.3841  1.6214
11539TIP3   OH256107   6.537   1.996   0.892 -0.0585  0.0269  0.0923
11539TIP3    H156108   6.474   2.054   0.849  0.0441  1.1705  1.4114
11539TIP3    H256109   6.620   2.013   0.848  0.1512  1.5624  1.0272
11540TIP3   OH256110   4.536   5.499   0.977 -0.0501  0.3762 -0.7244
11540TIP3    H156111   4.628   5.474   0.974 -0.1662  0.0392 -2.4078
11540TIP3    H256112   4.529   5.572   0.915 -1.0366 -0.0245 -1.1005
11541TIP3   OH256113   5.924   0.075   4.716 -0.3486 -0.3270 -0.4402
11541TIP3    H156114   5.888   0.089   4.628  1.1497 -1.1377 -1.2161
11541TIP3    H256115   6.017   0.094   4.706 -0.4208  1.3076  1.4077
11542TIP3   OH256116   5.976   3.099   5.107  0.0531  0.1911 -0.3101
11542TIP3    H156117   5.925   3.021   5.126 -0.3958  0.8872  1.5424
11542TIP3    H256118   5.924   3.147   5.042 -0.4034 -0.3319 -0.3308
11543TIP3   OH256119   5.459   0.515  15.714  0.0787 -0.1377 -0.0438
11543TIP3    H156120   5.474   0.574  15.788  0.0306  0.4907 -0.5262
11543TIP3    H256121   5.368   0.532  15.689  0.2755  0.0942 -0.6216
11544TIP3   OH256122   3.772   4.270   1.347  0.1809 -0.1081  0.0262
11544TIP3    H156123   3.792   4.289   1.256 -0.9301  0.2423 -0.1667
11544TIP3    H256124   3.698   4.209   1.343 -0.2289  0.3293  0.6897
11545TIP3   OH256125   1.120   0.263   1.196  0.7628  0.5036  1.6286
11545TIP3    H156126   1.107   0.354   1.222  1.3276  0.8239  0.8202
11545TIP3    H256127   1.061   0.213   1.253  0.0394  1.4178  1.6994
11546TIP3   OH256128   0.960   2.983  10.887  0.1665 -0.2676 -0.9861
11546TIP3    H156129   0.954   2.946  10.975  1.7132  0.6499 -0.4488
11546TIP3    H256130   1.018   3.058  10.897  0.2787 -0.0741 -2.7811
11547TIP3   OH256131   5.104   3.888  15.677 -0.2650 -0.0671 -0.0872
11547TIP3    H156132   5.107   3.945  15.754  1.5749 -0.5584  0.2557
11547TIP3    H256133   5.098   3.800  15.712  2.4633 -0.4569 -0.3226
11548TIP3   OH256134   6.437   1.437   4.937  0.4063  0.1756 -0.0525
11548TIP3    H156135   6.452   1.469   5.026  0.5494 -0.0496  0.0061
11548TIP3    H256136   6.495   1.361   4.930 -0.0071 -0.1268 -0.1581
11549TIP3   OH256137   2.684   3.020   3.023 -0.2048 -0.0294 -0.0533
11549TIP3    H156138   2.778   3.024   3.039 -0.1375  2.9278 -0.4843
11549TIP3    H256139   2.646   3.004   3.110  0.6500  0.6927  0.4749
11550TIP3   OH256140   4.645   2.496   2.112 -0.0792  0.1077 -0.6613
11550TIP3    H156141   4.565   2.506   2.164  0.2667  0.4689 -0.1852
11550TIP3    H256142   4.675   2.407   2.131  1.2246  0.9333  1.5168
11551TIP3   OH256143   2.397   1.847  14.130  0.6372 -0.2720 -0.3266
11551TIP3    H156144   2.304   1.851  14.154  1.0506  1.8679  1.2491
11551TIP3    H256145   2.412   1.924  14.076  1.6280 -0.2561 -0.0561
11552TIP3   OH256146   3.123   3.529  16.403 -0.1679  0.0762 -0.0277
11552TIP3    H156147   3.034   3.507  16.430 -0.5423 -2.9468 -3.0607
11552TIP3    H256148   3.178   3.470  16.453 -0.3532 -1.3146 -1.3903
11553TIP3   OH256149   5.012   0.641   0.788  0.0492 -0.0537 -0.2202
11553TIP3    H156150   5.091   0.639   0.842  0.1092  1.8315 -0.1643
11553TIP3    H256151   4.958   0.710   0.827 -0.3601  0.6474 -1.9386
11554TIP3   OH256152   4.126   5.581  13.128 -0.2359  0.1657  0.0392
11554TIP3    H156153   4.156   5.518  13.194  0.0432  1.4815  1.1963
11554TIP3    H256154   4.031   5.565  13.122  0.1221 -1.9627 -1.4619
11555TIP3   OH256155   3.443   0.417   5.935  0.3721 -0.2770 -0.1376
11555TIP3    H156156   3.453   0.325   5.962 -0.9190 -0.4218 -0.0815
11555TIP3    H256157   3.529   0.456   5.950  0.4131 -0.9872  1.7671
11556TIP3   OH256158   3.195   1.432  16.972  0.0897  0.2525 -0.1119
11556TIP3    H156159   3.120   1.492  16.965  1.2849  1.7290 -0.5940
11556TIP3    H256160   3.212   1.405  16.882  0.3010  0.1095 -0.0279
11557TIP3   OH256161   1.819   5.420  11.634  0.3736 -0.2245  0.3334
11557TIP3    H156162   1.877   5.493  11.613  0.3215  0.6630  2.9296
11557TIP3    H256163   1.876   5.356  11.677 -0.2820  0.0148  1.5862
11558TIP3   OH256164   2.422   6.687  14.423 -0.0450 -0.2878  0.1518
11558TIP3    H156165   2.382   6.752  14.365  1.4846 -0.1461 -0.8078
11558TIP3    H256166   2.357   6.617  14.429 -1.5365  1.1103  0.8469
11559TIP3   OH256167   1.984   1.410  14.475 -0.2302 -0.6009 -0.1314
11559TIP3    H156168   2.052   1.365  14.425  0.1198  0.3136 -0.4958
11559TIP3    H256169   1.907   1.406  14.418  0.6735  2.1656 -1.7070
11560TIP3   OH256170   6.151   5.981   5.526  0.2319  0.1150 -0.1002
11560TIP3    H156171   6.117   5.904   5.570  2.0380 -0.8267 -0.2543
11560TIP3    H256172   6.101   5.986   5.444  0.1542 -0.9540 -0.1300
11561TIP3   OH256173   1.896   2.201  15.353  0.2123  0.0115 -0.3801
11561TIP3    H156174   1.911   2.287  15.392 -2.2748  1.4809 -2.3363
11561TIP3    H256175   1.814   2.171  15.392 -0.7412  0.1666 -2.1441
11562TIP3   OH256176   5.149   0.983   5.688  0.5353 -0.1064 -0.6295
11562TIP3    H156177   5.202   0.931   5.748  0.8391  0.8616 -0.0357
11562TIP3    H256178   5.190   0.970   5.602  1.5929  0.3935 -0.2268
11563TIP3   OH256179   6.303   5.870  12.764 -0.7911 -0.6365 -0.2239
11563TIP3    H156180   6.394   5.855  12.790 -0.9824 -1.3565  0.0799
11563TIP3    H256181   6.300   5.961  12.736 -0.0018 -0.5741 -0.1260
11564TIP3   OH256182   0.972   2.649   0.952 -0.0327  0.3134 -0.2390
11564TIP3    H156183   1.038   2.641   0.883 -0.3588 -0.3686 -0.4830
11564TIP3    H256184   1.000   2.725   1.003  0.3210  0.7082 -1.0027
11565TIP3   OH256185   4.403   4.938   3.314 -0.3571 -0.4703 -1.0587
11565TIP3    H156186   4.419   4.848   3.285 -1.9768 -0.5378 -1.8794
11565TIP3    H256187   4.311   4.938   3.341  0.2720  0.3628  1.3035
11566TIP3   OH256188   5.094   6.105  14.261  0.1764 -0.3676 -0.2692
11566TIP3    H156189   5.059   6.016  14.265  1.9663 -1.0681  1.7060
11566TIP3    H256190   5.188   6.094  14.270  0.4554  1.7348 -0.1284
11567TIP3   OH256191   3.687   0.268   0.802 -0.0605  0.4202  0.0216
11567TIP3    H156192   3.689   0.315   0.885  1.8506 -0.2328  0.3971
11567TIP3    H256193   3.595   0.247   0.788 -0.6534  2.1770  1.0104
11568TIP3   OH256194   0.656   5.234  15.820  0.2924  0.1707 -0.0127
11568TIP3    H156195   0.676   5.152  15.776  0.0644 -0.1469  0.4656
11568TIP3    H256196   0.732   5.251  15.875 -0.3941 -0.6411  1.2256
11569TIP3   OH256197   6.727   5.043  16.966  0.3195  0.2409  0.3824
11569TIP3    H156198   6.697   5.134  16.967 -0.3251  0.0251  1.5198
11569TIP3    H256199   6.696   5.009  16.882  2.4551  1.6499 -1.0982
11570TIP3   OH256200   2.858   5.162  14.148  0.4144  0.0396  0.7088
11570TIP3    H156201   2.792   5.229  14.169  0.9776  1.2115 -1.0424
11570TIP3    H256202   2.934   5.186  14.200 -0.6029 -1.6128  3.1341
11571TIP3   OH256203   3.736   4.004  12.547  0.0693 -0.1925  0.7216
11571TIP3    H156204   3.719   4.097  12.554  1.4962  0.6943 -4.0263
11571TIP3    H256205   3.667   3.971  12.490  1.4731 -1.2558 -0.4310
11572TIP3   OH256206   1.942   1.986  12.017 -0.3259 -0.1952  0.5449
11572TIP3    H156207   1.855   2.024  12.008 -1.0016 -1.8038 -0.3113
11572TIP3    H256208   1.926   1.898  12.052  1.0049 -0.3232  0.8908
11573TIP3   OH256209   0.188   4.923  15.914 -0.0973  0.3385 -0.0087
11573TIP3    H156210   0.266   4.870  15.934  2.2527  3.0876 -1.1516
11573TIP3    H256211   0.138   4.869  15.852  2.3858 -0.4400 -1.4827
11574TIP3   OH256212   1.542   4.924   3.562  0.1366  0.2339 -0.6419
11574TIP3    H156213   1.491   4.843   3.560  0.5797 -0.1388  1.3691
11574TIP3    H256214   1.489   4.984   3.615  1.4305  0.0524  0.9322
11575TIP3   OH256215   3.627   1.101   5.371 -0.0749 -0.1556 -0.4062
11575TIP3    H156216   3.634   1.194   5.392  0.6718 -0.2432 -0.2452
11575TIP3    H256217   3.666   1.056   5.446 -2.7453 -0.7446  0.7579
11576TIP3   OH256218   0.394   6.288  11.979 -0.4416  0.6051 -0.9576
11576TIP3    H156219   0.404   6.330  11.893  0.0210  0.5843 -0.9193
11576TIP3    H256220   0.331   6.217  11.964  0.5248 -0.1519 -1.5588
11577TIP3   OH256221   2.831   1.663   2.858  0.1784  0.0596 -0.6804
11577TIP3    H156222   2.882   1.703   2.929 -1.1415 -0.0844  0.4005
11577TIP3    H256223   2.894   1.649   2.788  1.4335  0.6580  0.2861
11578TIP3   OH256224   1.587   2.147  15.406  0.2067  0.2150  0.4289
11578TIP3    H156225   1.525   2.134  15.334 -0.3703 -0.2273  0.9921
11578TIP3    H256226   1.543   2.208  15.465 -0.3332 -1.1793  1.5343
11579TIP3   OH256227   3.716   6.363  15.504  0.3288  0.4152 -0.2634
11579TIP3    H156228   3.710   6.288  15.564 -2.0236 -1.8043 -2.9664
11579TIP3    H256229   3.742   6.325  15.421 -1.3275  2.5195 -1.8625
11580TIP3   OH256230   1.315   5.080   4.697 -0.0889  0.0449  0.4374
11580TIP3    H156231   1.239   5.138   4.699 -2.3813 -2.6562 -0.6621
11580TIP3    H256232   1.296   5.018   4.626  3.3997 -0.5243 -0.1962
11581TIP3   OH256233   4.738   2.532   5.405 -0.6735  0.3515  0.1358
11581TIP3    H156234   4.824   2.491   5.399 -0.6075  0.4956  0.0933
11581TIP3    H256235   4.680   2.475   5.355 -0.5372  0.4349 -0.1143
11582TIP3   OH256236   0.203   5.647   5.729 -0.7091 -0.7365 -0.2995
11582TIP3    H156237   0.279   5.635   5.786 -1.3261 -2.5320  0.2032
11582TIP3    H256238   0.185   5.741   5.732  0.4782 -0.5239  0.8812
11583TIP3   OH256239   0.709   0.265  12.796  0.7842  0.1648 -1.1476
11583TIP3    H156240   0.718   0.334  12.862  0.4590 -0.3157 -0.5982
11583TIP3    H256241   0.652   0.304  12.729  0.5622  0.4174 -0.8188
11584TIP3   OH256242   6.584   4.073   4.163  0.3485  0.2283 -0.3473
11584TIP3    H156243   6.634   4.113   4.092 -0.3474 -0.4378 -1.2460
11584TIP3    H256244   6.628   4.102   4.243  0.5259  1.8478 -0.9922
11585TIP3   OH256245   2.807   5.670  14.839  0.4935  0.6432 -0.0610
11585TIP3    H156246   2.728   5.657  14.891  1.1695  0.9840  1.0900
11585TIP3    H256247   2.853   5.586  14.842  0.5390  0.6668 -0.0817
11586TIP3   OH256248   4.905   6.257  17.095  0.6885 -0.2973 -0.5521
11586TIP3    H156249   4.985   6.288  17.054  0.9986  1.1790  1.0265
11586TIP3    H256250   4.835   6.289  17.038  1.1671 -0.0178 -0.9877
11587TIP3   OH256251   3.317   1.205   4.981  0.0572  0.0883  0.2488
11587TIP3    H156252   3.261   1.280   4.962 -1.4850 -0.2268  2.9804
11587TIP3    H256253   3.381   1.238   5.045  1.3162 -0.2328 -0.8059
11588TIP3   OH256254   2.590   3.613  11.602 -0.1683 -0.4465  0.4039
11588TIP3    H156255   2.655   3.636  11.668 -0.1773  0.7642  0.0122
11588TIP3    H256256   2.641   3.583  11.527  0.0835  1.9729 -0.4825
11589TIP3   OH256257   3.173   0.075   6.425 -0.3552 -0.3237  0.1375
11589TIP3    H156258   3.236   0.031   6.369 -0.7356 -0.2067 -0.3939
11589TIP3    H256259   3.151   0.011   6.493 -0.6476 -0.8318 -0.4272
11590TIP3   OH256260   6.692   5.242   2.422 -0.1464  0.3434 -0.4933
11590TIP3    H156261   6.732   5.286   2.346 -0.4216  1.2376 -0.1362
11590TIP3    H256262   6.743   5.163   2.433  0.6015  0.7504 -0.9386
11591TIP3   OH256263   1.056   5.067  15.115  0.5516 -0.2805 -0.0200
11591TIP3    H156264   1.022   5.153  15.140 -1.0850 -0.1579 -2.4363
11591TIP3    H256265   1.003   5.005  15.165  1.5019  0.0211  1.4582
11592TIP3   OH256266   1.517   5.175   2.189  0.7495 -0.2412 -0.8163
11592TIP3    H156267   1.475   5.217   2.264  2.5474 -0.9558  0.6613
11592TIP3    H256268   1.558   5.247   2.141  1.4857  0.0064  0.1569
11593TIP3   OH256269   6.009   3.046   3.761 -0.0011 -0.3831  0.0689
11593TIP3    H156270   6.095   3.045   3.719  0.1835  0.8189  0.3648
11593TIP3    H256271   6.017   2.985   3.835 -0.0852 -1.8935 -1.1160
11594TIP3   OH256272   0.695   0.888  16.330  0.4096 -0.1195  0.5728
11594TIP3    H156273   0.670   0.895  16.422  0.9011  0.3687  0.6747
11594TIP3    H256274   0.653   0.964  16.288 -1.2954 -1.2823  0.0297
11595TIP3   OH256275   4.735   2.647  13.387 -0.2359  0.7282  0.0553
11595TIP3    H156276   4.771   2.558  13.391 -0.8979  0.4876  0.9709
11595TIP3    H256277   4.640   2.634  13.385 -0.3200  1.3945 -0.9084
11596TIP3   OH256278   5.134   2.966  11.854  0.4558 -0.6193 -0.3094
11596TIP3    H156279   5.056   2.949  11.907  0.6793 -0.3742  0.0978
11596TIP3    H256280   5.206   2.930  11.905  1.1441  2.5722  1.2237
11597TIP3   OH256281   0.732   4.888  16.903  0.2068  0.1396 -0.3414
11597TIP3    H156282   0.818   4.927  16.920 -0.0360  0.5348  0.0156
11597TIP3    H256283   0.724   4.818  16.967  0.5322 -0.3297 -0.8058
11598TIP3   OH256284   3.961   5.737   5.224 -0.5668  0.7101 -0.1857
11598TIP3    H156285   3.879   5.693   5.201 -0.4519  0.4314 -0.0694
11598TIP3    H256286   4.009   5.673   5.277 -1.1401  1.6197  1.4879
11599TIP3   OH256287   5.586   4.610   0.318 -0.1822  0.2376 -0.0687
11599TIP3    H156288   5.492   4.594   0.322 -0.3572  1.4080  0.8695
11599TIP3    H256289   5.594   4.702   0.294  0.7636 -0.2038 -1.6379
11600TIP3   OH256290   5.219   2.591  12.268 -0.1331 -0.4203 -0.4711
11600TIP3    H156291   5.182   2.672  12.302 -0.4819 -0.8735  0.2653
11600TIP3    H256292   5.149   2.555  12.213  0.0902 -0.1338 -0.9442
11601TIP3   OH256293   0.579   6.746   0.437  0.0530 -0.0347 -0.0731
11601TIP3    H156294   0.602   6.660   0.472 -0.3448  0.2273  0.8505
11601TIP3    H256295   0.483   6.747   0.436  0.0141  1.0765  1.6807
11602TIP3   OH256296   0.251   3.298   2.329 -0.2511  0.1034  0.2517
11602TIP3    H156297   0.190   3.227   2.305 -0.4758 -0.6762  2.8071
11602TIP3    H256298   0.329   3.280   2.277 -0.9052 -1.0144 -0.4140
11603TIP3   OH256299   2.749   5.029   2.252  0.0900  0.2788 -0.3019
11603TIP3    H156300   2.803   4.989   2.320  1.2365  2.2286  0.0027
11603TIP3    H256301   2.669   5.056   2.298  1.1449  2.2058  0.4775
11604TIP3   OH256302   5.649   0.037   5.802 -0.1745 -0.4336  0.3954
11604TIP3    H156303   5.602   0.069   5.879  0.3487  0.3871  0.3904
11604TIP3    H256304   5.656   0.114   5.745  0.4911 -0.7334  0.0613
11605TIP3   OH256305   1.928   6.371  11.394  0.5486  0.4058  0.7436
11605TIP3    H156306   1.902   6.427  11.468 -2.1282 -0.8183  0.8604
11605TIP3    H256307   1.963   6.292  11.435  0.9141  0.5229  0.6579
11606TIP3   OH256308   0.946   1.462   0.338 -0.1727 -0.5296 -0.3039
11606TIP3    H156309   0.863   1.481   0.294  0.3248 -0.2428 -1.1327
11606TIP3    H256310   1.010   1.516   0.292  0.3257 -0.0096  0.9453
11607TIP3   OH256311   5.208   4.796   3.886 -0.5912 -0.4395  0.6851
11607TIP3    H156312   5.222   4.891   3.884  2.3950 -0.7886 -0.3499
11607TIP3    H256313   5.128   4.782   3.836 -0.2327  1.4452 -0.5022
11608TIP3   OH256314   1.719   5.817   3.328 -0.3213 -0.3455 -0.1962
11608TIP3    H156315   1.718   5.730   3.289  0.3443 -0.8242  0.8141
11608TIP3    H256316   1.755   5.874   3.260  1.3279 -1.2561 -0.1249
11609TIP3   OH256317   5.705   0.739  10.458  0.3072  0.2874 -0.1033
11609TIP3    H156318   5.658   0.737  10.541 -0.3828  1.1529 -0.4498
11609TIP3    H256319   5.759   0.818  10.463  0.8899 -0.0973 -0.1617
11610TIP3   OH256320   4.107   2.073   4.358 -0.4434 -0.1281 -0.3443
11610TIP3    H156321   4.132   2.015   4.430  0.5810  0.8022  0.0790
11610TIP3    H256322   4.168   2.051   4.287  1.6735  2.0616  0.6489
11611TIP3   OH256323   0.601   2.926   3.636  0.3551 -0.1353  0.3161
11611TIP3    H156324   0.563   3.007   3.671 -1.3854 -0.5615 -0.4700
11611TIP3    H256325   0.585   2.930   3.542  1.1479 -0.9441  0.1334
11612TIP3   OH256326   1.868   0.349   2.994 -0.5490  0.3177  0.0689
11612TIP3    H156327   1.876   0.438   2.958  0.8870  0.0798 -0.2617
11612TIP3    H256328   1.775   0.328   2.985 -0.5961  1.0403 -1.6804
11613TIP3   OH256329   4.751   4.563   4.161 -0.2434  0.0716 -0.3312
11613TIP3    H156330   4.779   4.574   4.252 -1.4263  4.4948 -0.2837
11613TIP3    H256331   4.689   4.491   4.164 -0.4090  0.2034  2.4338
11614TIP3   OH256332   1.346   0.881   0.308  0.1039 -0.4202 -0.0073
11614TIP3    H156333   1.290   0.955   0.332  1.2268  0.7930 -0.9943
11614TIP3    H256334   1.300   0.840   0.234  0.1590  0.1537 -0.3700
11615TIP3   OH256335   5.183   1.372  14.991 -0.0902  0.0883 -0.1463
11615TIP3    H156336   5.151   1.312  15.059  0.9490 -1.3150 -0.8444
11615TIP3    H256337   5.108   1.385  14.933 -0.1176 -1.2032 -0.4286
11616TIP3   OH256338   3.897   2.250  16.893 -0.2424  0.2037 -0.2646
11616TIP3    H156339   3.940   2.224  16.975 -1.8847  0.9854  0.9220
11616TIP3    H256340   3.871   2.341  16.908 -0.9051  0.2442 -1.5281
11617TIP3   OH256341   2.219   1.469   5.126  0.1469 -0.1756  0.1721
11617TIP3    H156342   2.124   1.482   5.123 -0.1524 -2.1439 -0.1270
11617TIP3    H256343   2.243   1.487   5.217 -0.6766 -0.6272  0.4918
11618TIP3   OH256344   5.936   1.145  16.154 -0.0355 -0.1390  0.1208
11618TIP3    H156345   5.978   1.183  16.231 -0.2288  0.6268 -0.1471
11618TIP3    H256346   5.937   1.050  16.171  1.0418 -0.0791  0.4939
11619TIP3   OH256347   2.609   1.927  10.374 -0.1098 -0.1334 -0.0857
11619TIP3    H156348   2.530   1.874  10.373 -1.5310  1.8804  0.4307
11619TIP3    H256349   2.624   1.946  10.467  1.2827 -0.8652 -0.1258
11620TIP3   OH256350   4.014   0.203  16.700  0.0804  0.2994  0.2693
11620TIP3    H156351   4.017   0.257  16.621  1.0323 -0.3377 -0.1449
11620TIP3    H256352   3.925   0.215  16.734 -0.0912  1.1923 -0.4609
11621TIP3   OH256353   4.475   3.236  15.142  0.2237 -0.2069  0.2494
11621TIP3    H156354   4.484   3.329  15.163 -2.5547 -0.4202  3.2064
11621TIP3    H256355   4.405   3.233  15.077  0.7162 -0.2321 -0.2890
11622TIP3   OH256356   3.088   0.516   0.886  0.5372  0.0805 -0.2835
11622TIP3    H156357   3.083   0.473   0.801  1.2649  2.3872 -1.5938
11622TIP3    H256358   3.177   0.499   0.917 -0.1542 -1.9323  0.7481
11623TIP3   OH256359   1.941   5.926   5.778 -0.1298 -0.1865 -0.1937
11623TIP3    H156360   2.028   5.952   5.747 -0.2141  1.4339  0.7957
11623TIP3    H256361   1.880   5.979   5.725 -0.4479 -0.1703  0.1847
11624TIP3   OH256362   2.771   3.395   3.303  0.2501  0.0337 -0.3649
11624TIP3    H156363   2.821   3.471   3.275 -2.6132  1.7417 -1.2900
11624TIP3    H256364   2.780   3.394   3.399 -1.1535  2.8173 -0.1009
11625TIP3   OH256365   2.955   6.077   5.276 -0.2316 -0.7093 -0.7872
11625TIP3    H156366   2.958   6.141   5.347  2.7185 -1.3008 -0.2550
11625TIP3    H256367   3.034   6.092   5.226  0.2430 -3.4648 -1.0489
11626TIP3   OH256368   0.729   5.424  11.727 -0.5688 -0.3955  0.0077
11626TIP3    H156369   0.816   5.432  11.768 -1.7760  0.0685  2.7346
11626TIP3    H256370   0.739   5.466  11.642  1.9650 -0.6720  0.0813
11627TIP3   OH256371   2.672   1.272   4.950 -0.0801  0.3127 -0.5360
11627TIP3    H156372   2.743   1.238   5.004  0.8949 -0.6855 -2.3361
11627TIP3    H256373   2.656   1.360   4.984  1.9627  0.5217  0.0193
11628TIP3   OH256374   4.103   1.561  13.281  0.1787 -0.5061  0.2519
11628TIP3    H156375   4.185   1.550  13.329  1.1753 -2.0958 -1.6446
11628TIP3    H256376   4.059   1.477  13.290 -1.5279  0.4783  1.6263
11629TIP3   OH256377   1.227   0.615  14.710 -0.3552 -0.1051 -0.0365
11629TIP3    H156378   1.280   0.556  14.657 -0.3421 -0.5398  0.4550
11629TIP3    H256379   1.162   0.650  14.650  1.4805  1.7551 -1.1042
11630TIP3   OH256380   6.258   0.150  16.170 -0.3153 -0.0274 -0.1404
11630TIP3    H156381   6.241   0.069  16.122  0.9543  0.3218 -1.2622
11630TIP3    H256382   6.223   0.134  16.258 -1.9699 -0.9946 -0.9296
11631TIP3   OH256383   0.302   1.720  14.542  0.6650  0.0688  0.3047
11631TIP3    H156384   0.395   1.696  14.551  1.3364  2.2935 -0.0089
11631TIP3    H256385   0.294   1.746  14.450 -0.3515 -0.3389  0.2712
11632TIP3   OH256386   5.114   1.522   1.731  0.5037 -0.0287 -0.0294
11632TIP3    H156387   5.168   1.559   1.661  0.5124 -0.0037 -0.0093
11632TIP3    H256388   5.074   1.444   1.692 -0.9165  0.9513 -0.6521
11633TIP3   OH256389   2.175   6.624   6.123 -0.0041 -0.1007  0.2576
11633TIP3    H156390   2.130   6.707   6.139 -3.4168 -2.1761  2.8955
11633TIP3    H256391   2.144   6.597   6.036 -1.8083 -0.1735  0.8722
11634TIP3   OH256392   2.557   4.643  12.760  0.0044  0.5282 -0.1809
11634TIP3    H156393   2.565   4.550  12.780 -0.8980  0.6929  1.0791
11634TIP3    H256394   2.506   4.647  12.680 -1.7725 -0.0447  0.8625
11635TIP3   OH256395   4.526   6.652  13.393 -0.0508  0.0516 -0.1405
11635TIP3    H156396   4.458   6.705  13.434 -1.9066 -2.4805  0.2846
11635TIP3    H256397   4.596   6.714  13.372 -2.3860  2.7510 -0.4464
11636TIP3   OH256398   5.964   6.031  12.853  0.1307 -0.0340 -0.1550
11636TIP3    H156399   6.048   5.988  12.838  0.5853  0.7354  0.1311
11636TIP3    H256400   5.969   6.063  12.943 -0.1305  0.7493 -0.4120
11637TIP3   OH256401   5.024   0.723  17.116  0.2831  0.4152 -0.0667
11637TIP3    H156402   5.111   0.716  17.076  0.0672  0.1627 -0.5025
11637TIP3    H256403   4.988   0.634  17.112  0.3894  0.3042  1.0142
11638TIP3   OH256404   0.495   6.673  14.268  0.4868  0.2633  0.0795
11638TIP3    H156405   0.519   6.628  14.349  0.4831  0.8285  0.4070
11638TIP3    H256406   0.555   6.747  14.263 -0.7239  1.3335  0.5728
11639TIP3   OH256407   1.100   1.406  10.484  0.1979  0.2000 -0.0021
11639TIP3    H156408   1.151   1.471  10.437 -0.9142  1.1674  0.0868
11639TIP3    H256409   1.064   1.350  10.415  0.4168  0.2255 -0.1400
11640TIP3   OH256410   3.445   5.711  14.125  0.3208  0.2255  0.3983
11640TIP3    H156411   3.494   5.679  14.201 -0.3948 -0.1948  0.6946
11640TIP3    H256412   3.500   5.780  14.088  1.0454 -0.1089  0.8296
11641TIP3   OH256413   0.563   5.252   4.695 -0.2277  0.2785 -0.0404
11641TIP3    H156414   0.491   5.305   4.727  0.2848  0.9259  0.0592
11641TIP3    H256415   0.533   5.162   4.704  0.2021  0.3593  3.0394
11642TIP3   OH256416   1.131   0.006  15.359 -0.1603 -0.2209  0.1938
11642TIP3    H156417   1.153   0.061  15.435 -0.6401 -0.4012  0.4663
11642TIP3    H256418   1.213  -0.038  15.338  0.0496  0.0449  0.4313
11643TIP3   OH256419   1.608   2.028  13.951 -0.2586  0.4810 -0.5082
11643TIP3    H156420   1.567   2.098  13.900 -0.2610 -0.2341 -1.5101
11643TIP3    H256421   1.558   1.949  13.928 -0.9481  0.2900  1.4088
11644TIP3   OH256422   5.000   3.012  10.629  0.1229 -0.8480  0.1930
11644TIP3    H156423   5.064   2.977  10.568 -0.8350 -0.5718 -0.9991
11644TIP3    H256424   4.943   2.938  10.650  0.8463 -1.1115  1.3062
11645TIP3   OH256425   2.311   5.855   0.235 -0.6829  0.7726 -0.0844
11645TIP3    H156426   2.328   5.920   0.304 -0.5796  0.9981 -0.3199
11645TIP3    H256427   2.354   5.891   0.158  0.2943 -0.0788  0.0288
11646TIP3   OH256428   2.652   1.120  10.736 -0.4624  0.2682 -0.2439
11646TIP3    H156429   2.716   1.085  10.674 -0.7975  1.0899 -1.0771
11646TIP3    H256430   2.658   1.215  10.724  0.6713  0.5702  2.2014
11647TIP3   OH256431   6.810   2.102  17.057 -0.3179 -0.1897  0.4269
11647TIP3    H156432   6.725   2.058  17.063 -0.1565 -0.7214 -0.9455
11647TIP3    H256433   6.819   2.148  17.141 -2.1078  0.1672  0.4541
11648TIP3   OH256434   6.836   0.165  12.394 -0.1448  0.2987  0.1283
11648TIP3    H156435   6.873   0.137  12.310  1.4649  1.7165  0.3297
11648TIP3    H256436   6.790   0.087  12.426 -0.5374 -0.3704 -1.9028
11649TIP3   OH256437   5.561   0.842   5.825 -0.7589  0.2874 -0.6183
11649TIP3    H156438   5.468   0.820   5.833 -0.5976  0.1025  1.3008
11649TIP3    H256439   5.564   0.915   5.763 -2.1395  0.0447 -0.9930
11650TIP3   OH256440   2.489   4.121   2.431 -0.0403 -0.4907 -0.3094
11650TIP3    H156441   2.583   4.127   2.449 -0.0486  2.4673 -0.8670
11650TIP3    H256442   2.476   4.170   2.351 -2.0204 -1.3687 -0.5940
11651TIP3   OH256443   0.883   2.619  14.121 -0.0399 -0.3726 -0.1402
11651TIP3    H156444   0.806   2.604  14.176  0.0473 -2.2925 -0.4947
11651TIP3    H256445   0.958   2.603  14.178  0.1085  0.5257 -0.0621
11652TIP3   OH256446   6.650   2.835   0.036  0.5516  0.0623 -0.1058
11652TIP3    H156447   6.652   2.925   0.071  1.7423  0.4527 -1.1123
11652TIP3    H256448   6.571   2.832  -0.018 -1.1107 -0.4328  2.1877
11653TIP3   OH256449   1.730   2.471   4.944  0.4970 -0.1862  0.0406
11653TIP3    H156450   1.648   2.479   4.992 -1.0639 -0.1811 -2.4267
11653TIP3    H256451   1.741   2.377   4.929  0.1533 -0.1010 -0.8295
11654TIP3   OH256452   2.273   1.717  14.474 -0.1286 -0.6833 -0.0107
11654TIP3    H156453   2.221   1.679  14.403  0.9151 -0.7179 -0.7743
11654TIP3    H256454   2.253   1.662  14.550 -2.5605  0.3689  0.2012
11655TIP3   OH256455   6.840   4.164  12.207  0.0955 -0.4518 -0.7786
11655TIP3    H156456   6.748   4.174  12.230  0.2522  0.5897 -0.5555
11655TIP3    H256457   6.843   4.176  12.112  0.1966  1.1629 -0.5927
11656TIP3   OH256458   0.724   3.237  15.153 -0.2976  0.1637  0.7574
11656TIP3    H156459   0.689   3.232  15.064  1.8024  2.0956 -0.2814
11656TIP3    H256460   0.776   3.157  15.163 -2.7032 -1.4036  1.3306
11657TIP3   OH256461   0.774   0.885   1.752 -0.2877  0.4594  0.0217
11657TIP3    H156462   0.705   0.925   1.700 -1.5980  0.7604  1.9000
11657TIP3    H256463   0.762   0.791   1.739  0.0266  0.5380 -0.9460
11658TIP3   OH256464   6.286   4.375  11.694 -0.7743 -0.2080 -0.1707
11658TIP3    H156465   6.212   4.387  11.635 -1.2950 -0.8306  0.3427
11658TIP3    H256466   6.335   4.301  11.656 -1.3959 -0.9502  0.4446
11659TIP3   OH256467   0.097   0.494  13.805  0.5307  0.1320  0.3253
11659TIP3    H156468   0.146   0.458  13.732  0.6458  1.1424 -0.1051
11659TIP3    H256469   0.010   0.455  13.797  0.4928  0.3641 -0.4415
11660TIP3   OH256470   3.320   5.082  12.976 -0.3593  0.5152 -0.6393
11660TIP3    H156471   3.259   5.115  12.911 -0.1282 -2.0302 -2.2924
11660TIP3    H256472   3.404   5.075  12.929 -0.0080 -0.6839  0.0980
11661TIP3   OH256473   0.717   4.330   3.613  0.0707  0.4336 -0.2109
11661TIP3    H156474   0.638   4.281   3.589 -0.2486  1.2958 -0.9606
11661TIP3    H256475   0.685   4.403   3.665  0.7043 -1.0850  2.5137
11662TIP3   OH256476   3.928   1.501   0.168  0.4101 -0.0727 -0.4747
11662TIP3    H156477   3.845   1.547   0.154  0.9910  1.0841 -0.2381
11662TIP3    H256478   3.990   1.570   0.193  1.0317 -1.1394  1.0843
11663TIP3   OH256479   3.183   0.424  11.384  0.5759 -0.4351 -0.0209
11663TIP3    H156480   3.208   0.355  11.445 -0.2183 -0.3955  0.3543
11663TIP3    H256481   3.088   0.424  11.385  0.5646  0.4930 -0.2160
11664TIP3   OH256482   1.404   3.111  15.757  0.7763  0.1164  0.1993
11664TIP3    H156483   1.333   3.117  15.694 -0.0170  1.5351  1.1644
11664TIP3    H256484   1.413   3.017  15.775 -0.5152 -0.1260 -0.3217
11665TIP3   OH256485   0.024   1.499  14.148 -0.0309 -0.0777 -0.2530
11665TIP3    H156486   0.017   1.578  14.202  5.6342  2.7484 -2.8307
11665TIP3    H256487   0.097   1.450  14.186  0.4859 -0.8579 -2.1369
11666TIP3   OH256488   5.259   0.196  16.096 -0.1478  0.0896  0.4877
11666TIP3    H156489   5.192   0.263  16.080 -0.5875 -0.2909  0.7270
11666TIP3    H256490   5.324   0.211  16.027 -0.4196  0.5300  0.3194
11667TIP3   OH256491   3.987   3.962  11.203  0.2762  0.2697  0.7841
11667TIP3    H156492   4.057   4.014  11.242 -1.7465  0.5161  4.5423
11667TIP3    H256493   4.022   3.873  11.201  1.5361  0.7490  0.2191
11668TIP3   OH256494   3.704   4.579  16.623  0.3444 -0.4171  0.0504
11668TIP3    H156495   3.701   4.558  16.717  0.0223 -1.1154 -0.1066
11668TIP3    H256496   3.692   4.673  16.619 -0.6775 -0.5093  0.6609
11669TIP3   OH256497   5.331   0.772  13.645  0.4229 -0.3008  0.2682
11669TIP3    H156498   5.390   0.745  13.573 -0.3984 -2.2697  0.2598
11669TIP3    H256499   5.382   0.756  13.724  0.1214 -1.5599  0.2392
11670TIP3   OH256500   0.493   2.750  16.508  0.7343 -0.1216  0.0827
11670TIP3    H156501   0.502   2.715  16.597 -1.6970 -0.5037  0.2612
11670TIP3    H256502   0.537   2.835  16.511  0.4580  0.0051  1.7527
11671TIP3   OH256503   1.286   2.182   6.187  0.1156  0.9476 -0.8326
11671TIP3    H156504   1.336   2.100   6.194  0.1926  1.1035  0.8753
11671TIP3    H256505   1.291   2.205   6.095  0.2281 -0.8880 -1.3208
11672TIP3   OH256506   1.287   2.353   5.309  0.1107 -0.4034 -0.2941
11672TIP3    H156507   1.331   2.271   5.332  0.2926 -0.8320 -2.0511
11672TIP3    H256508   1.358   2.417   5.299  0.2870 -0.8468 -2.1203
11673TIP3   OH256509   4.614   5.728   1.192 -0.1078  0.1182  0.0168
11673TIP3    H156510   4.528   5.686   1.185 -0.6106  1.1499 -0.1011
11673TIP3    H256511   4.605   5.811   1.146  0.7137  0.6140  0.7119
11674TIP3   OH256512   0.605   4.666   6.632  0.3022 -0.5620  0.0190
11674TIP3    H156513   0.516   4.696   6.619  0.8199  0.3918 -1.5296
11674TIP3    H256514   0.651   4.690   6.551  1.2700 -3.6495 -0.4932
11675TIP3   OH256515   1.363   6.741  15.214  0.0129 -0.1090 -0.4764
11675TIP3    H156516   1.406   6.819  15.178  1.4221 -0.3668  0.5523
11675TIP3    H256517   1.433   6.695  15.260 -1.1988 -1.0667  0.4542
11676TIP3   OH256518   2.125   2.404   1.531  0.4220 -0.1147  0.0865
11676TIP3    H156519   2.087   2.351   1.601 -1.6571  1.4189  0.2300
11676TIP3    H256520   2.051   2.421   1.472  0.8095  3.0471  0.3520
11677TIP3   OH256521   2.724   4.136   3.841  0.1375 -0.6115  0.0064
11677TIP3    H156522   2.718   4.084   3.921  0.6052  1.4780  1.4816
11677TIP3    H256523   2.719   4.227   3.871 -2.1594  0.2534 -2.5654
11678TIP3   OH256524   6.454   1.793   6.437 -0.1081 -0.2472  0.0045
11678TIP3    H156525   6.441   1.716   6.492  0.3559 -0.6021 -0.3794
11678TIP3    H256526   6.509   1.852   6.489  2.4901 -1.6295 -0.9937
11679TIP3   OH256527   5.306   0.223  13.905  0.3922  0.1300 -0.5127
11679TIP3    H156528   5.390   0.207  13.947 -0.0509  0.4503  0.5295
11679TIP3    H256529   5.297   0.152  13.841  1.9253  0.6959 -1.4044
11680TIP3   OH256530   2.482   4.414  13.632 -0.0803  0.3075 -0.1454
11680TIP3    H156531   2.514   4.467  13.559 -3.7833  2.8039 -0.2513
11680TIP3    H256532   2.499   4.468  13.710 -0.9286  0.1523  0.1605
11681TIP3   OH256533   0.109   3.166  15.781 -0.1196 -0.2681  0.6641
11681TIP3    H156534   0.193   3.124  15.794  0.4275 -0.4897 -2.7099
11681TIP3    H256535   0.130   3.257  15.760 -0.9735  0.4111  2.4652
11682TIP3   OH256536   6.339   6.278  11.449 -0.3404  0.2108  0.1949
11682TIP3    H156537   6.309   6.336  11.379 -2.6414 -0.1294  0.8237
11682TIP3    H256538   6.344   6.333  11.526  1.0898  0.3327  0.0466
11683TIP3   OH256539   0.378   2.180  13.886 -0.3863  0.3318 -0.2222
11683TIP3    H156540   0.472   2.171  13.866 -0.1525  0.6391  0.7011
11683TIP3    H256541   0.334   2.138  13.812  0.4817  0.1441 -0.6474
11684TIP3   OH256542   6.711   1.962   4.080 -0.0700 -0.0847  0.2647
11684TIP3    H156543   6.667   2.017   4.146 -3.0483 -2.4216  0.4285
11684TIP3    H256544   6.665   1.982   3.998  1.0364  0.0134 -0.3414
11685TIP3   OH256545   0.203   6.405   4.338  0.2337  0.0773  0.3684
11685TIP3    H156546   0.228   6.447   4.255 -0.4127 -1.3101 -0.5674
11685TIP3    H256547   0.159   6.474   4.387  0.1567  0.8010 -0.6709
11686TIP3   OH256548   6.576   6.520  12.682  0.0072  0.0543 -0.0181
11686TIP3    H156549   6.671   6.528  12.679  0.0760 -0.8828 -0.9455
11686TIP3    H256550   6.559   6.446  12.739 -0.0297 -1.3412 -1.7599
11687TIP3   OH256551   0.214   4.621   2.010 -0.2887 -0.2353  0.4631
11687TIP3    H156552   0.272   4.552   2.043  0.4863  0.5863  0.8627
11687TIP3    H256553   0.215   4.609   1.915 -0.3253 -0.8944  0.5358
11688TIP3   OH256554   0.753   4.671  13.126  0.0706  0.5204  0.0896
11688TIP3    H156555   0.691   4.735  13.163 -0.3192  0.4504 -0.4400
11688TIP3    H256556   0.796   4.719  13.055  0.3457  0.4397  0.2005
11689TIP3   OH256557   1.860   0.129  15.490  0.2823 -0.4635 -0.2626
11689TIP3    H156558   1.895   0.187  15.423  1.1937  1.0387  1.4281
11689TIP3    H256559   1.918   0.142  15.566 -1.0902 -1.5665  1.0387
11690TIP3   OH256560   1.925   2.580   5.644 -0.4874 -0.4951 -0.6158
11690TIP3    H156561   1.978   2.539   5.712 -0.6254  1.4860  0.7706
11690TIP3    H256562   1.835   2.555   5.664 -0.3150 -2.1014 -1.7021
11691TIP3   OH256563   5.415   2.131  16.700 -0.0788 -0.6189  0.0104
11691TIP3    H156564   5.395   2.060  16.640 -0.7080  0.1831 -0.7542
11691TIP3    H256565   5.468   2.090  16.769 -2.1069 -2.2842  0.7044
11692TIP3   OH256566   0.072   4.988   4.458  0.5940  0.2291 -0.0298
11692TIP3    H156567   0.113   5.060   4.505  1.0560  0.5671 -0.9244
11692TIP3    H256568  -0.016   5.019   4.438  0.8937  0.6902 -0.6888
11693TIP3   OH256569   0.788   6.352   1.954 -0.3261 -0.6022 -0.2351
11693TIP3    H156570   0.699   6.386   1.950 -0.7212 -1.4432  0.7734
11693TIP3    H256571   0.788   6.297   2.033  1.4595  0.4648  0.5628
11694TIP3   OH256572   4.173   0.353   0.516  0.0350  0.0878  0.3284
11694TIP3    H156573   4.235   0.370   0.446  1.9279 -0.9078  1.6580
11694TIP3    H256574   4.094   0.401   0.491  1.5885  2.1019 -1.0608
11695TIP3   OH256575   0.596   6.656  11.856 -0.4597 -0.1501 -0.8816
11695TIP3    H156576   0.626   6.714  11.927  1.1197  1.5305 -2.7985
11695TIP3    H256577   0.626   6.569  11.883  0.1954  0.4483  0.4638
11696TIP3   OH256578   1.041   1.741  12.295 -0.0382 -0.2992 -0.3905
11696TIP3    H156579   1.065   1.831  12.272 -1.1486  0.5255  1.5159
11696TIP3    H256580   0.958   1.749  12.342 -0.4626 -2.3918 -0.6906
11697TIP3   OH256581   4.664   3.146   5.707 -0.0761  0.3387  0.0496
11697TIP3    H156582   4.668   3.112   5.797 -0.2253 -1.0087 -0.4241
11697TIP3    H256583   4.754   3.140   5.676 -0.2047 -0.1992 -0.2315
11698TIP3   OH256584   2.772   5.230   0.533 -0.3450 -0.0442 -0.4594
11698TIP3    H156585   2.862   5.201   0.521 -0.0601  0.6483 -0.0975
11698TIP3    H256586   2.733   5.225   0.446 -0.3109 -1.4682 -0.4061
11699TIP3   OH256587   4.513   4.742  11.998 -0.2169 -0.3430 -0.1352
11699TIP3    H156588   4.483   4.693  12.075 -1.7405 -0.4437 -0.7568
11699TIP3    H256589   4.484   4.690  11.923 -0.6788  0.8278 -0.7931
11700TIP3   OH256590   4.125   3.656   0.618  0.1263 -0.1348 -0.0063
11700TIP3    H156591   4.112   3.750   0.610  0.1686 -0.1505 -0.2710
11700TIP3    H256592   4.214   3.641   0.585  1.2619  0.0966  2.6932
11701TIP3   OH256593   1.462   0.992  10.590 -0.1962 -0.3658  0.1656
11701TIP3    H156594   1.538   1.043  10.619  0.2542 -1.0919  0.3031
11701TIP3    H256595   1.501   0.915  10.547 -0.8428  0.1660 -1.4514
11702TIP3   OH256596   3.045   1.001   5.731  0.0242 -0.3790 -0.4663
11702TIP3    H156597   3.080   0.921   5.769 -1.7432 -1.2993 -0.7006
11702TIP3    H256598   3.114   1.031   5.671  0.0179 -2.7213 -1.7420
11703TIP3   OH256599   6.063   0.313  13.729  0.1123  0.2594 -0.3061
11703TIP3    H156600   6.054   0.386  13.668 -1.2624 -0.9198 -1.6221
11703TIP3    H256601   6.142   0.267  13.699 -0.0684  0.1736 -0.6614
11704TIP3   OH256602   4.655   3.738  11.990 -0.1307  0.4399 -0.0426
11704TIP3    H156603   4.704   3.666  12.029 -0.8242 -0.7132 -1.2167
11704TIP3    H256604   4.715   3.813  11.994  1.6884 -0.8607 -1.2230
11705TIP3   OH256605   3.797   6.697   3.850  0.7401  0.1154 -0.8485
11705TIP3    H156606   3.760   6.753   3.782  1.1090  0.1380 -1.0336
11705TIP3    H256607   3.788   6.608   3.815  0.2473  0.0633 -0.5987
11706TIP3   OH256608   2.285   2.073   5.547 -0.5074 -0.3150  1.2002
11706TIP3    H156609   2.267   2.167   5.549  0.1295 -0.1986  1.6711
11706TIP3    H256610   2.209   2.036   5.503  0.1623  0.6264 -0.8807
11707TIP3   OH256611   0.900   2.254  13.405  0.0581 -0.4617 -0.2047
11707TIP3    H156612   0.815   2.248  13.363 -1.0432 -0.8913  1.9716
11707TIP3    H256613   0.942   2.170  13.386 -0.6805 -0.9041  0.0753
11708TIP3   OH256614   3.666   3.265  15.679  0.0147 -0.4388  0.4101
11708TIP3    H156615   3.685   3.348  15.635 -2.8026  0.3254  0.4178
11708TIP3    H256616   3.719   3.201  15.632  1.3988  1.1744 -0.3603
11709TIP3   OH256617   2.522   5.039  12.628 -0.0915  0.2608 -0.7171
11709TIP3    H156618   2.607   5.058  12.588  0.5907 -2.3408 -0.6682
11709TIP3    H256619   2.460   5.043  12.556  0.5282 -0.5817 -1.3135
11710TIP3   OH256620   2.635   2.822   5.841  1.0863  0.4851  0.5124
11710TIP3    H156621   2.659   2.839   5.750 -0.5382  1.4072  0.2255
11710TIP3    H256622   2.602   2.906   5.873 -1.1642 -0.5421  1.0410
11711TIP3   OH256623   4.267   4.428   0.159  0.0341  0.6255 -0.2885
11711TIP3    H156624   4.293   4.345   0.119  0.3614  0.6963 -0.2253
11711TIP3    H256625   4.185   4.408   0.204  0.2915  0.2497  0.0198
11712TIP3   OH256626   0.109   3.744   1.543  0.2908 -0.2152 -0.1685
11712TIP3    H156627   0.104   3.650   1.562 -0.5007  0.1335  1.4870
11712TIP3    H256628   0.197   3.755   1.506  1.4454 -1.2301  2.0527
11713TIP3   OH256629   0.044   0.846  14.611 -0.1627  0.3541  0.3886
11713TIP3    H156630   0.018   0.937  14.600 -0.7050  0.2135  0.4764
11713TIP3    H256631  -0.024   0.808  14.668 -0.5627 -0.3920 -0.5594
11714TIP3   OH256632   1.382   6.627  13.560 -0.2431 -0.1496 -0.4476
11714TIP3    H156633   1.449   6.653  13.496 -0.3727  0.1068 -0.4812
11714TIP3    H256634   1.408   6.539  13.587  0.5833  0.2611  0.1682
11715TIP3   OH256635   1.038   2.259  15.691 -0.2684  0.1162 -0.4605
11715TIP3    H156636   0.988   2.183  15.720 -0.1982  0.4277  0.5155
11715TIP3    H256637   0.975   2.313  15.644 -0.2055 -0.7653 -1.6120
11716TIP3   OH256638   0.050   4.177   5.214  0.2325  0.4203 -0.1938
11716TIP3    H156639   0.030   4.259   5.168 -1.1236  0.5261  0.5479
11716TIP3    H256640  -0.035   4.134   5.225  0.3735  0.7127  2.7889
11717TIP3   OH256641   1.532   2.982  12.034  0.1712 -0.2165 -0.0775
11717TIP3    H156642   1.579   3.006  11.954  2.6741 -1.8595  0.7887
11717TIP3    H256643   1.533   3.061  12.087 -0.5654  0.5681 -1.1782
11718TIP3   OH256644   5.167   0.098  15.680  0.0894  0.0728  0.3077
11718TIP3    H156645   5.137   0.039  15.611 -1.8434 -0.2657  1.3552
11718TIP3    H256646   5.224   0.043  15.735 -0.0671 -0.2512  0.1525
11719TIP3   OH256647   1.112   1.606  15.722  0.2263 -0.2332 -0.2917
11719TIP3    H156648   1.050   1.560  15.779 -1.4594  1.8477 -0.3326
11719TIP3    H256649   1.060   1.674  15.679  2.3086  0.8538 -1.2609
11720TIP3   OH256650   0.968   2.318   0.641  0.2380  0.4482  0.0198
11720TIP3    H156651   0.989   2.411   0.639  2.1422  0.0395 -1.3096
11720TIP3    H256652   1.015   2.284   0.717  2.3335  0.0369 -1.3766
11721TIP3   OH256653   6.180   4.679   5.715 -0.3453 -0.3762  0.0654
11721TIP3    H156654   6.102   4.654   5.765 -0.3134  0.4094  0.5315
11721TIP3    H256655   6.240   4.714   5.782  0.2285 -0.5685 -0.3468
11722TIP3   OH256656   3.462   2.284  15.991  0.2317 -0.1128  0.3868
11722TIP3    H156657   3.477   2.273  15.897  0.2601 -0.6654  0.4501
11722TIP3    H256658   3.509   2.364  16.014  1.1522 -0.5690  0.1334
11723TIP3   OH256659   5.761   1.495  16.375  0.5398  0.0862 -0.1008
11723TIP3    H156660   5.688   1.433  16.381  0.4973  0.1251 -0.2245
11723TIP3    H256661   5.781   1.516  16.467  0.2298  0.2691 -0.0741
11724TIP3   OH256662   5.005   3.672  11.340 -0.1914 -0.2680 -0.0757
11724TIP3    H156663   4.936   3.727  11.377  0.1593  1.2309 -1.5256
11724TIP3    H256664   5.084   3.725  11.346  0.1835 -0.6268 -1.3769
11725TIP3   OH256665   1.498   0.900  11.552 -0.4054 -0.2862 -0.2889
11725TIP3    H156666   1.414   0.892  11.597 -0.6137 -2.2265 -0.9185
11725TIP3    H256667   1.560   0.922  11.622 -1.5100  2.1632  0.0335
11726TIP3   OH256668   0.430   1.607  17.081 -0.3037 -0.2733 -0.7634
11726TIP3    H156669   0.342   1.570  17.073 -0.0146 -0.9631 -0.7649
11726TIP3    H256670   0.432   1.677  17.015 -0.6646 -0.6206 -1.1526
11727TIP3   OH256671   5.309   2.240  12.109 -0.4495 -0.3288  0.1933
11727TIP3    H156672   5.226   2.197  12.085 -0.5394  0.6618 -1.4256
11727TIP3    H256673   5.374   2.169  12.106 -1.0004 -0.8418  0.0685
11728TIP3   OH256674   4.994   5.464   2.071 -0.5354 -0.4154 -0.3831
11728TIP3    H156675   5.070   5.484   2.016  0.4028 -1.7888  0.3403
11728TIP3    H256676   4.933   5.419   2.012 -1.3905  1.7908 -1.2790
11729TIP3   OH256677   0.420   4.102  10.743  0.1598  0.0678 -0.3798
11729TIP3    H156678   0.484   4.032  10.728 -0.6867 -1.0503  0.9139
11729TIP3    H256679   0.463   4.182  10.713  1.8256 -0.7718 -0.3081
11730TIP3   OH256680   1.209   1.552   3.931  0.2322  0.3391 -0.2653
11730TIP3    H156681   1.133   1.538   3.988  0.5244  1.1102  0.3202
11730TIP3    H256682   1.205   1.479   3.869 -1.1765  0.5329 -0.4450
11731TIP3   OH256683   5.040   5.929  11.888 -0.7088 -0.2503 -0.2776
11731TIP3    H156684   4.987   5.872  11.943  0.5902 -0.6329  0.6341
11731TIP3    H256685   5.059   5.877  11.810 -1.0597 -0.3791 -0.2776
11732TIP3   OH256686   0.815   1.245  16.851 -0.0039 -0.5583 -0.3112
11732TIP3    H156687   0.887   1.210  16.799  0.4879 -0.8699  0.5543
11732TIP3    H256688   0.749   1.271  16.787  0.5482 -1.0085 -1.0774
11733TIP3   OH256689   1.440   3.161   3.134 -0.6719  0.6102  0.4236
11733TIP3    H156690   1.501   3.170   3.061 -1.8243  3.2976 -0.3551
11733TIP3    H256691   1.376   3.096   3.104 -0.2800  0.5613 -0.3277
11734TIP3   OH256692   5.238   3.257  13.473 -0.3278  0.0293  0.0241
11734TIP3    H156693   5.236   3.344  13.434  1.2416  0.3006  0.4946
11734TIP3    H256694   5.170   3.260  13.541  0.5475  1.3429  0.8954
11735TIP3   OH256695   1.794   5.044  15.864 -0.0656 -0.0640 -0.0334
11735TIP3    H156696   1.841   4.982  15.920 -0.5781  0.7976  1.4078
11735TIP3    H256697   1.714   5.065  15.912 -0.9275  0.1124 -1.4780
11736TIP3   OH256698   2.830   0.216  16.050 -0.6615  0.5959  0.2065
11736TIP3    H156699   2.902   0.169  16.091 -1.3825 -0.3138  0.4589
11736TIP3    H256700   2.829   0.302  16.092 -1.0477 -0.1259  1.7222
11737TIP3   OH256701   1.013   2.657  13.544 -0.8078  0.9500  0.3432
11737TIP3    H156702   0.991   2.682  13.634 -0.4472  1.3529  0.3244
11737TIP3    H256703   0.978   2.568  13.535 -1.3281  1.1110  0.7026
11738TIP3   OH256704   0.059   2.531  10.743 -0.4143  0.3616  0.1430
11738TIP3    H156705   0.121   2.589  10.698 -0.8092  1.1828  0.6390
11738TIP3    H256706  -0.024   2.579  10.741 -1.1304 -0.8446 -0.7590
11739TIP3   OH256707   1.159   2.551   2.335  0.1853 -0.2523  0.6457
11739TIP3    H156708   1.198   2.553   2.247 -1.7554 -1.6934 -0.3390
11739TIP3    H256709   1.109   2.632   2.341 -1.7077 -1.2376 -0.6748
11740TIP3   OH256710   3.164   6.435  10.241  0.0241 -0.0432 -0.1903
11740TIP3    H156711   3.178   6.343  10.265 -0.9785 -0.1129  0.1765
11740TIP3    H256712   3.073   6.452  10.264 -0.2805  0.5829 -1.7408
11741TIP3   OH256713   1.973   0.996   2.850 -0.1056 -0.2145 -0.2007
11741TIP3    H156714   1.999   1.079   2.890 -2.0076 -0.6813  2.3094
11741TIP3    H256715   2.044   0.974   2.790  1.4076  2.2217  0.5731
11742TIP3   OH256716   5.885   0.651  16.671  0.2214  0.1223  0.3062
11742TIP3    H156717   5.802   0.691  16.694  0.1604 -0.6617  1.5468
11742TIP3    H256718   5.923   0.623  16.754  2.6738  2.1841  0.0041
11743TIP3   OH256719   4.064   6.742  14.802 -0.0354  0.0383  0.4709
11743TIP3    H156720   4.135   6.770  14.745 -0.3396  1.5126  0.7701
11743TIP3    H256721   4.106   6.718  14.884  0.2027  0.1051  0.3680
11744TIP3   OH256722   1.437   5.129  13.170 -0.4468 -0.3008  0.0130
11744TIP3    H156723   1.390   5.135  13.254  1.2303  2.0386  0.8773
11744TIP3    H256724   1.521   5.090  13.192  0.4063  1.2753 -0.3672
11745TIP3   OH256725   1.272   3.753   3.723 -0.3411  0.4155 -0.1669
11745TIP3    H156726   1.182   3.723   3.733 -0.0379 -1.0578 -1.5440
11745TIP3    H256727   1.281   3.771   3.629  1.1106 -0.5727 -0.2520
11746TIP3   OH256728   1.076   1.464   1.334 -0.6207  0.2900  0.3289
11746TIP3    H156729   1.053   1.531   1.399 -0.3144 -0.9182  1.7552
11746TIP3    H256730   1.088   1.513   1.253 -0.6498  1.9363  1.2538
11747TIP3   OH256731   6.391   6.054  16.972 -0.1235 -0.2356  0.2750
11747TIP3    H156732   6.404   5.964  16.941 -0.7362 -0.7796  1.4953
11747TIP3    H256733   6.372   6.105  16.893  0.3496 -1.1573 -0.4469
11748TIP3   OH256734   5.988   2.211  15.880 -0.3543 -0.3402 -0.5357
11748TIP3    H156735   5.970   2.234  15.971 -0.7689 -1.0895 -0.4153
11748TIP3    H256736   5.950   2.123  15.869 -1.3290  0.1935 -1.7511
11749TIP3   OH256737   2.155   6.800  10.484  0.4026 -0.1994  0.0557
11749TIP3    H156738   2.219   6.737  10.450 -1.3461 -1.0152 -1.9482
11749TIP3    H256739   2.149   6.867  10.416  0.7285  1.0964  1.2517
11750TIP3   OH256740   2.754   2.646   2.128 -0.3787 -0.2244  0.6758
11750TIP3    H156741   2.824   2.668   2.190  0.7586  0.5113 -0.7988
11750TIP3    H256742   2.799   2.599   2.057 -1.5676 -0.6449  0.1727
11751TIP3   OH256743   6.513   2.380   5.266 -0.1367  0.4760 -0.1015
11751TIP3    H156744   6.554   2.403   5.349  1.2258 -0.3566 -0.5108
11751TIP3    H256745   6.524   2.285   5.259  0.1744  0.5805 -1.4097
11752TIP3   OH256746   5.130   0.288  14.982 -1.0944 -0.9811 -0.3141
11752TIP3    H156747   5.183   0.366  14.963 -0.2588 -0.7938  2.3097
11752TIP3    H256748   5.129   0.238  14.901  0.5400  0.5177 -1.3209
11753TIP3   OH256749   6.002   0.388   5.040  0.1360  0.1740  0.2684
11753TIP3    H156750   5.996   0.460   4.977  1.6031 -0.7737 -1.0517
11753TIP3    H256751   6.052   0.320   4.993 -0.2635 -1.2751  1.8448
11754TIP3   OH256752   3.994   2.924   0.947  0.0707  0.0391 -0.4179
11754TIP3    H156753   4.070   2.936   0.891  0.3219 -0.4081 -0.1759
11754TIP3    H256754   3.947   2.849   0.908  1.0757 -1.3052  0.8489
11755TIP3   OH256755   5.868   1.545  13.156  0.9052 -0.2622  0.0871
11755TIP3    H156756   5.948   1.527  13.204  0.9139 -0.4977 -0.0140
11755TIP3    H256757   5.808   1.582  13.221  1.5535  1.2394 -0.1255
11756TIP3   OH256758   1.884   4.428   1.716  0.3925 -0.3814  0.0394
11756TIP3    H156759   1.817   4.476   1.666 -0.8168 -2.3677 -0.3348
11756TIP3    H256760   1.948   4.496   1.740 -1.6516  1.5922  0.3029
11757TIP3   OH256761   3.845   3.282   0.953 -0.1854 -1.1180  0.0687
11757TIP3    H156762   3.930   3.282   0.996  0.0024  1.2131 -0.1402
11757TIP3    H256763   3.864   3.257   0.863  0.4119 -0.0270 -0.1279
11758TIP3   OH256764   2.752   0.561  12.386  0.0145 -0.0822 -0.2549
11758TIP3    H156765   2.688   0.521  12.327 -0.0165 -0.9262  0.3328
11758TIP3    H256766   2.812   0.608  12.328  1.4767 -2.9356 -1.2494
11759TIP3   OH256767   4.339   2.170  14.273  0.2773  0.2601  0.5666
11759TIP3    H156768   4.373   2.182  14.184  1.8757  2.0668  1.3522
11759TIP3    H256769   4.246   2.190  14.266  0.5743  1.3594 -0.5362
11760TIP3   OH256770   2.505   5.605  15.765  0.1879 -0.1941 -0.1035
11760TIP3    H156771   2.560   5.681  15.743 -2.1225  1.7878  0.4875
11760TIP3    H256772   2.452   5.591  15.686 -0.0865 -0.5422  0.1403
11761TIP3   OH256773   4.997   0.324  13.947  0.0920  0.1664  0.1340
11761TIP3    H156774   5.034   0.265  13.882 -0.7485  0.6251 -0.7710
11761TIP3    H256775   4.905   0.334  13.923  0.1816  1.7491  0.3256
11762TIP3   OH256776   1.302   5.189   2.632  0.1253  0.2884 -0.8994
11762TIP3    H156777   1.279   5.098   2.613 -0.5996  0.8512 -3.0013
11762TIP3    H256778   1.350   5.185   2.715  0.9365 -2.1143 -1.4032
11763TIP3   OH256779   2.729   6.594   5.604  0.7451 -0.4666 -0.5032
11763TIP3    H156780   2.666   6.613   5.534  1.4028  2.0192 -0.4942
11763TIP3    H256781   2.690   6.520   5.651 -0.1192 -1.6958 -2.9653
11764TIP3   OH256782   2.497   5.625  13.841 -0.0401  0.3694 -0.3783
11764TIP3    H156783   2.592   5.635  13.846 -0.1523  1.1703  0.4494
11764TIP3    H256784   2.483   5.557  13.775  1.1690 -0.9966  0.7032
11765TIP3   OH256785   3.115   1.504   2.856 -0.0978 -0.1413 -0.0003
11765TIP3    H156786   3.104   1.410   2.870  0.2673 -0.0698  0.8207
11765TIP3    H256787   3.087   1.545   2.938 -1.3501  0.5536 -0.7418
11766TIP3   OH256788   3.837   2.636   2.742 -0.2251 -0.4669  0.0457
11766TIP3    H156789   3.861   2.576   2.813 -1.3590  0.1362  0.9690
11766TIP3    H256790   3.750   2.607   2.715  0.2414 -0.7547 -1.2014
11767TIP3   OH256791   1.223   1.410  16.128 -0.3269  0.3316  0.3837
11767TIP3    H156792   1.317   1.428  16.128  0.2180 -2.1172 -0.7336
11767TIP3    H256793   1.195   1.429  16.217  1.4362  0.2265  0.9940
11768TIP3   OH256794   3.017   4.019   0.910 -0.7287  0.3926 -0.3081
11768TIP3    H156795   3.074   4.005   0.835 -0.9015 -0.0462 -0.3599
11768TIP3    H256796   3.072   3.999   0.986 -0.5619  0.8102 -0.3169
11769TIP3   OH256797   3.532   5.919  11.785 -0.2266  0.2774  0.3889
11769TIP3    H156798   3.563   5.867  11.859  0.8970  0.2035 -0.1193
11769TIP3    H256799   3.438   5.932  11.803 -0.6950 -2.3674  0.2616
11770TIP3   OH256800   5.069   0.537   4.575  0.3067  0.5782  0.3346
11770TIP3    H156801   4.980   0.537   4.611 -1.5010 -0.3396 -3.6317
11770TIP3    H256802   5.072   0.615   4.520  2.2124  0.8571  0.7628
11771TIP3   OH256803   0.847   4.469   3.419  0.6170  0.8124  0.0056
11771TIP3    H156804   0.815   4.431   3.501  1.7760  0.6430  0.3873
11771TIP3    H256805   0.933   4.430   3.406 -0.2670 -0.6533 -2.2684
11772TIP3   OH256806   1.531   3.974   1.785  0.0083  0.1559 -0.1946
11772TIP3    H156807   1.484   3.892   1.801 -1.5855  0.9089 -0.8328
11772TIP3    H256808   1.482   4.016   1.715  1.6997  0.9731 -0.9257
11773TIP3   OH256809   0.837   3.216  14.172 -0.4374  0.2285  0.4270
11773TIP3    H156810   0.773   3.258  14.114  0.2334  0.5611 -0.0852
11773TIP3    H256811   0.918   3.265  14.158  0.3140 -1.1087 -0.0290
11774TIP3   OH256812   2.768   1.525  16.599  1.0518 -0.1088 -1.1225
11774TIP3    H156813   2.806   1.572  16.673  0.4506  1.0402 -1.5079
11774TIP3    H256814   2.693   1.478  16.636  0.0586  1.3785 -1.1770
11775TIP3   OH256815   3.231   4.600  15.453 -0.7663  0.2121  0.2279
11775TIP3    H156816   3.211   4.517  15.408 -0.4444 -0.1752  0.7950
11775TIP3    H256817   3.234   4.665  15.383 -1.8920 -0.0962 -0.1310
11776TIP3   OH256818   1.797   0.890   1.059 -0.0890  0.5546 -0.0353
11776TIP3    H156819   1.734   0.873   0.988  2.2250 -2.4904 -1.6469
11776TIP3    H256820   1.861   0.949   1.020  1.0449 -0.9133 -0.4783
11777TIP3   OH256821   0.591   2.911  14.360  0.4385 -1.2020  0.1377
11777TIP3    H156822   0.603   2.999  14.324 -1.2293  0.5069  3.3605
11777TIP3    H256823   0.520   2.873  14.308  0.8297 -0.4829 -0.9566
11778TIP3   OH256824   2.133   4.762   4.312  0.1783  0.2781  0.2129
11778TIP3    H156825   2.044   4.776   4.343 -0.1285 -1.8305  0.3781
11778TIP3    H256826   2.151   4.839   4.258 -1.9481  0.4815 -0.3039
11779TIP3   OH256827   5.855   5.608   3.415  0.6930 -0.3896 -0.1673
11779TIP3    H156828   5.881   5.633   3.326  1.1584 -0.6916 -0.1154
11779TIP3    H256829   5.860   5.513   3.416  0.4947 -0.3980  0.1259
11780TIP3   OH256830   3.153   5.199  12.823  0.2445  0.6423  0.7108
11780TIP3    H156831   3.193   5.278  12.787  0.5719  0.0896 -0.1524
11780TIP3    H256832   3.062   5.202  12.792  0.2417  0.7023  0.7236
11781TIP3   OH256833   0.734   5.197  15.488 -0.0902  0.2005  0.1195
11781TIP3    H156834   0.804   5.134  15.472 -0.7774 -0.5969  0.1700
11781TIP3    H256835   0.774   5.267  15.540  0.2442 -1.1260  1.7097
11782TIP3   OH256836   6.264   0.945   2.632  0.0241  0.4033 -0.6402
11782TIP3    H156837   6.197   0.909   2.690  0.0342 -1.2904 -1.5893
11782TIP3    H256838   6.216   0.977   2.556  0.0648  2.0163 -0.0189
11783TIP3   OH256839   1.931   0.677   1.138 -0.3213 -0.2049  0.0171
11783TIP3    H156840   1.858   0.618   1.120 -0.5446 -0.8082  2.5394
11783TIP3    H256841   1.899   0.764   1.113 -0.8736 -0.7839 -1.4071
11784TIP3   OH256842   1.069   3.375  14.133 -0.2300 -0.1739 -0.5327
11784TIP3    H156843   1.155   3.397  14.099 -0.2783 -0.9256 -1.1692
11784TIP3    H256844   1.047   3.447  14.192  1.2221 -0.4054  0.3364
11785TIP3   OH256845   2.373   2.770   0.604  0.2133  0.1645  0.5451
11785TIP3    H156846   2.284   2.775   0.571 -1.2522 -0.8220  3.9172
11785TIP3    H256847   2.378   2.686   0.650  3.2986 -0.3559 -0.4500
11786TIP3   OH256848   0.633   6.196  16.781  0.4299 -0.0821 -0.0816
11786TIP3    H156849   0.628   6.101  16.788 -0.0946  0.0308  1.4159
11786TIP3    H256850   0.544   6.224  16.759  0.3281  0.1251  0.5667
11787TIP3   OH256851   3.420   0.517  15.317 -0.2034 -0.3687 -0.1425
11787TIP3    H156852   3.380   0.437  15.352  0.4875  0.0627  1.7528
11787TIP3    H256853   3.361   0.587  15.344  0.2712 -0.0354  0.0463
11788TIP3   OH256854   6.081   1.822  16.007 -0.1531 -0.3612 -0.5557
11788TIP3    H156855   6.076   1.745  16.064  0.7271 -2.2820 -2.9090
11788TIP3    H256856   6.172   1.851  16.016 -0.2521 -0.1186 -0.3291
11789TIP3   OH256857   3.423   4.104  16.596 -0.5392  0.4470  0.3228
11789TIP3    H156858   3.434   4.051  16.675  1.2714 -1.1138 -0.9037
11789TIP3    H256859   3.481   4.179  16.609  0.5056 -0.3096  0.0746
11790TIP3   OH256860   3.681   2.090   0.654 -0.4043  0.2035  0.1563
11790TIP3    H156861   3.619   2.033   0.609 -1.1426  0.5531  0.7093
11790TIP3    H256862   3.692   2.165   0.595 -0.5665  0.1770  0.0923
11791TIP3   OH256863   5.308   3.457  15.236  0.1605  0.0550  0.0803
11791TIP3    H156864   5.299   3.362  15.243  0.1727 -0.1544 -1.9656
11791TIP3    H256865   5.384   3.470  15.178 -0.1160  1.2924 -0.0417
11792TIP3   OH256866   3.608   0.457   2.367 -0.4214 -0.2208 -0.1632
11792TIP3    H156867   3.665   0.491   2.435  0.7108 -3.4450  0.6891
11792TIP3    H256868   3.661   0.393   2.321 -2.3165 -0.8355 -1.6247
11793TIP3   OH256869   2.571   1.461  16.018 -0.4590 -0.2789  0.3232
11793TIP3    H156870   2.604   1.532  16.073  2.4375 -0.7803 -0.5938
11793TIP3    H256871   2.486   1.438  16.056  0.2351  1.1401  2.9322
11794TIP3   OH256872   4.775   3.893   2.558  0.3626  0.1679  0.1382
11794TIP3    H156873   4.859   3.855   2.584 -0.0993 -0.8626  0.1605
11794TIP3    H256874   4.728   3.821   2.516  0.1757  1.1957 -1.4917
11795TIP3   OH256875   3.920   1.779  12.880 -0.1610 -0.7643  0.0047
11795TIP3    H156876   3.951   1.789  12.970 -0.4799 -0.4626  0.0821
11795TIP3    H256877   3.825   1.766  12.889  0.0454 -2.7617 -0.1501
11796TIP3   OH256878   6.362   1.526  11.210 -0.5255 -0.6543 -0.0587
11796TIP3    H156879   6.278   1.529  11.164  0.1394  0.0470 -1.2857
11796TIP3    H256880   6.409   1.454  11.169  0.4627  0.6089 -1.2494
11797TIP3   OH256881   1.170   1.979   2.434 -0.0226  0.4000  0.6332
11797TIP3    H156882   1.099   2.025   2.478 -0.3351 -0.3254  0.9001
11797TIP3    H256883   1.167   2.011   2.344 -0.6851  0.3895  0.6462
11798TIP3   OH256884   3.162   2.005  11.830  0.2184  0.0770  0.4462
11798TIP3    H156885   3.144   2.086  11.879 -0.9680  0.5559 -0.7159
11798TIP3    H256886   3.167   2.034  11.739 -1.1419 -1.2863 -0.0904
11799TIP3   OH256887   0.592   3.609  16.225 -0.0566 -0.4231  0.4175
11799TIP3    H156888   0.505   3.569  16.233  0.1997 -1.0493  0.1749
11799TIP3    H256889   0.575   3.701  16.207 -0.6669 -0.2774  1.6428
11800TIP3   OH256890   1.253   4.908  13.868  0.7609 -0.3802  0.5523
11800TIP3    H156891   1.301   4.930  13.948  0.3286  0.1381  0.6733
11800TIP3    H256892   1.213   4.990  13.840  1.5958 -0.3634 -0.6775
11801TIP3   OH256893   2.012   3.954   4.134  0.0011  0.4098  0.0319
11801TIP3    H156894   2.061   3.934   4.054  0.3882  2.5472 -0.3191
11801TIP3    H256895   1.974   3.870   4.160  0.5601 -0.5072 -1.9092
11802TIP3   OH256896   4.452   1.646  12.136 -0.1425 -0.1257  0.4002
11802TIP3    H156897   4.434   1.609  12.050 -0.9509  0.4562  0.3118
11802TIP3    H256898   4.477   1.571  12.189 -0.9761 -0.6940  0.0123
11803TIP3   OH256899   3.539   6.225  15.947  0.3629  0.3275  0.0257
11803TIP3    H156900   3.590   6.255  15.873 -1.2385  1.3498 -0.7088
11803TIP3    H256901   3.531   6.301  16.004 -0.1930  0.1306  0.2180
11804TIP3   OH256902   4.447   5.504  13.601 -1.0121 -0.2639  0.1323
11804TIP3    H156903   4.398   5.554  13.666 -0.1271 -1.0871  1.4865
11804TIP3    H256904   4.477   5.427  13.649 -0.6947 -1.1144 -1.3849
11805TIP3   OH256905   2.638   3.746  13.761  0.1033 -0.1021 -0.1602
11805TIP3    H156906   2.619   3.715  13.849  1.8557 -1.0789 -0.0819
11805TIP3    H256907   2.564   3.715  13.708 -1.0382  0.6167  0.9525
11806TIP3   OH256908   1.631   4.295   5.762 -0.5044  0.0210 -0.2258
11806TIP3    H156909   1.565   4.364   5.760  0.2799  0.8091 -3.2338
11806TIP3    H256910   1.703   4.333   5.813 -0.6336  0.8662 -0.6623
11807TIP3   OH256911   3.493   2.627  13.732 -0.2205 -0.1443 -0.3852
11807TIP3    H156912   3.538   2.564  13.788  0.1267 -0.3819 -0.9223
11807TIP3    H256913   3.516   2.600  13.643  0.2993  1.0122 -0.6114
11808TIP3   OH256914   3.846   0.416  16.847  0.0799  0.2988 -0.1653
11808TIP3    H156915   3.764   0.464  16.837  0.3346  0.9267  0.6752
11808TIP3    H256916   3.902   0.450  16.777 -0.8721 -1.2899 -1.7988
11809TIP3   OH256917   6.547   0.162  15.752  0.0661  0.1466  0.1413
11809TIP3    H156918   6.511   0.219  15.685  3.6744  0.6470 -1.6420
11809TIP3    H256919   6.564   0.220  15.826 -0.4042  0.4138  0.0439
11810TIP3   OH256920   5.903   1.324  12.193 -0.1107 -0.4392  0.5113
11810TIP3    H156921   5.845   1.310  12.267 -0.2919 -1.0049  0.2660
11810TIP3    H256922   5.894   1.246  12.139  0.9776 -0.6034  0.5328
11811TIP3   OH256923   2.274   1.355  13.593  0.1969 -0.1253 -0.0770
11811TIP3    H156924   2.219   1.420  13.638  2.8638  2.1372  0.1631
11811TIP3    H256925   2.276   1.384  13.502  0.1997 -0.8226 -0.3082
11812TIP3   OH256926   6.757   0.172   0.169  0.1313 -0.3055  0.2792
11812TIP3    H156927   6.841   0.180   0.213  0.6856  2.8436 -1.1051
11812TIP3    H256928   6.692   0.189   0.237  0.6243 -1.5708  1.0984
11813TIP3   OH256929   0.273   2.406   5.592  0.7164 -0.1259  0.0170
11813TIP3    H156930   0.349   2.389   5.647  0.6915  1.8794  0.7589
11813TIP3    H256931   0.297   2.482   5.540 -1.3838  1.7566  1.6289
11814TIP3   OH256932   4.040   1.034  13.773  0.5103 -0.1048 -0.2261
11814TIP3    H156933   4.002   1.007  13.690 -0.8077  2.2412 -0.4754
11814TIP3    H256934   4.129   1.061  13.751  1.4718 -2.8776 -0.1507
11815TIP3   OH256935   3.264   5.425   0.809 -0.4243  0.4909 -0.3472
11815TIP3    H156936   3.294   5.337   0.828 -1.7066  0.0623 -0.1907
11815TIP3    H256937   3.210   5.449   0.885 -3.0926 -0.0457 -1.9388
11816TIP3   OH256938   1.451   5.951   5.215  0.3673  0.0411 -0.1807
11816TIP3    H156939   1.516   6.018   5.236 -1.6962  2.1459 -0.0478
11816TIP3    H256940   1.409   5.983   5.135  0.7472 -2.2573 -1.3694
11817TIP3   OH256941   5.358   2.778   5.412 -0.3689 -0.1540  0.0354
11817TIP3    H156942   5.378   2.684   5.413 -1.6858 -0.4853  1.9942
11817TIP3    H256943   5.345   2.799   5.320  1.8051 -1.4306 -0.6473
11818TIP3   OH256944   4.399   6.570   4.678 -0.2133  0.3707  0.1682
11818TIP3    H156945   4.349   6.500   4.722 -0.8604  0.7013 -0.0323
11818TIP3    H256946   4.386   6.553   4.585  0.3979  0.2160  0.1108
11819TIP3   OH256947   1.479   1.902  11.984  0.2160 -0.0672  0.1216
11819TIP3    H156948   1.465   1.876  12.074 -1.5337 -0.2526 -0.1756
11819TIP3    H256949   1.428   1.839  11.932  1.8693 -0.4983 -1.0714
11820TIP3   OH256950   0.851   2.638   5.671  0.3656 -0.0408 -0.5019
11820TIP3    H156951   0.778   2.647   5.733  0.7221  0.9276 -0.1999
11820TIP3    H256952   0.883   2.548   5.684 -0.0405 -0.0900  0.1890
11821TIP3   OH256953   5.285   6.009  13.299 -0.3796 -0.3418 -0.2330
11821TIP3    H156954   5.354   5.986  13.237 -1.2694 -3.1135 -0.3752
11821TIP3    H256955   5.273   6.103  13.289  2.6326  0.0787 -0.9069
11822TIP3   OH256956   6.254   5.645   4.091  0.0258 -0.1778  0.2148
11822TIP3    H156957   6.257   5.736   4.121 -0.9222  0.0013 -0.1982
11822TIP3    H256958   6.323   5.639   4.025 -0.0804  0.3161  0.0515
11823TIP3   OH256959   5.023   5.059   4.196  0.0872 -0.1317  0.0328
11823TIP3    H156960   5.083   5.042   4.269  3.2080 -0.0779 -2.3323
11823TIP3    H256961   5.052   5.143   4.160 -3.6686  1.6918  0.7097
11824TIP3   OH256962   6.818   5.402  15.525  0.2617 -0.1499  0.0910
11824TIP3    H156963   6.790   5.487  15.561 -1.3286 -1.1986  1.4687
11824TIP3    H256964   6.788   5.403  15.434 -1.5204  0.0267  0.6446
11825TIP3   OH256965   1.385   5.511  13.823 -0.0225 -0.3299  0.6080
11825TIP3    H156966   1.379   5.600  13.787  0.0681 -1.4390 -2.4712
11825TIP3    H256967   1.297   5.475  13.811  0.4116 -1.2311  0.0013
11826TIP3   OH256968   0.689   2.096  16.613  0.3567 -0.4575 -0.2213
11826TIP3    H156969   0.632   2.167  16.642 -0.4850 -1.8185  1.6868
11826TIP3    H256970   0.768   2.140  16.582 -0.5372  1.3384 -0.0865
11827TIP3   OH256971   5.173   4.172  14.901 -0.0427 -0.0206 -0.2658
11827TIP3    H156972   5.256   4.216  14.882 -1.5429  1.7702 -3.3409
11827TIP3    H256973   5.135   4.223  14.972 -0.6994  2.4609 -2.2410
11828TIP3   OH256974   3.728   2.850   3.836  0.0011  0.2523 -0.4071
11828TIP3    H156975   3.785   2.898   3.776 -1.2180  0.7474 -1.1965
11828TIP3    H256976   3.685   2.784   3.781 -2.2968  1.7068 -0.4544
11829TIP3   OH256977   0.199   4.952   1.552  0.0247  0.7086  0.6866
11829TIP3    H156978   0.239   5.039   1.550  1.0973  0.2538  1.4359
11829TIP3    H256979   0.117   4.965   1.599  0.0695  1.3554  0.6028
11830TIP3   OH256980   0.796   5.104   1.122 -0.2618  0.3389  0.5126
11830TIP3    H156981   0.710   5.131   1.155 -1.3172  2.4400 -3.3908
11830TIP3    H256982   0.785   5.013   1.096 -0.3034 -0.3483  2.6891
11831TIP3   OH256983   6.702   6.684   5.847  0.1098  0.2958  0.3043
11831TIP3    H156984   6.741   6.733   5.919  0.8389 -0.0256  0.1404
11831TIP3    H256985   6.768   6.687   5.777 -0.3975  0.2274 -0.1883
11832TIP3   OH256986   3.832   2.790   3.457 -0.0898 -0.0700 -0.5910
11832TIP3    H156987   3.869   2.856   3.399 -0.2286  2.1535  1.6531
11832TIP3    H256988   3.907   2.739   3.487  0.4025  0.7507 -0.4036
11833TIP3   OH256989   0.718   1.713  12.715  0.6153  0.0434 -0.0961
11833TIP3    H156990   0.797   1.682  12.671  0.1774  1.9186 -2.3809
11833TIP3    H256991   0.751   1.776  12.780  1.1031 -0.6034  0.2911
11834TIP3   OH256992   6.753   1.484   5.037  0.1031 -0.2808  0.2621
11834TIP3    H156993   6.702   1.561   5.061  0.0736 -0.5218  0.9936
11834TIP3    H256994   6.828   1.486   5.097  0.0060 -0.9184  0.4097
11835TIP3   OH256995   2.909   0.923  10.775 -0.0377 -0.7116  0.4265
11835TIP3    H156996   2.850   0.851  10.750  0.1681 -0.5938 -0.4404
11835TIP3    H256997   2.916   0.977  10.696  1.6798 -1.0353  0.3131
11836TIP3   OH256998   0.730   3.096   4.414 -0.2517 -0.3254 -0.2821
11836TIP3    H156999   0.817   3.056   4.426 -0.1329 -0.1371 -0.5152
11836TIP3    H257000   0.707   3.129   4.501  0.0229 -0.1486 -0.2743
11837TIP3   OH257001   2.227   2.317  15.679 -0.1462  0.2449  0.1277
11837TIP3    H157002   2.278   2.354  15.607  1.9980 -0.9149  0.9682
11837TIP3    H257003   2.181   2.242  15.640  1.0499 -0.4142 -0.0747
11838TIP3   OH257004   3.079   6.522  17.070  0.2771 -0.2725 -0.1380
11838TIP3    H157005   3.164   6.565  17.060  0.4540 -0.5978 -0.0329
11838TIP3    H257006   3.016   6.594  17.069  0.6049  0.0291  0.4958
11839TIP3   OH257007   5.058   5.661  14.086  0.0119 -0.0824  0.0075
11839TIP3    H157008   5.150   5.644  14.066 -0.4807 -0.8520 -1.7936
11839TIP3    H257009   5.010   5.621  14.014 -1.7591  0.1940  0.9747
11840TIP3   OH257010   6.620   5.225   5.760  0.0625 -0.1130  0.2809
11840TIP3    H157011   6.688   5.257   5.701 -0.6133 -0.0180 -0.4536
11840TIP3    H257012   6.622   5.130   5.748  0.8088 -0.2166  1.0914
11841TIP3   OH257013   3.371   3.808   4.587 -0.3716  0.4639 -0.4045
11841TIP3    H157014   3.363   3.730   4.532 -0.1234  1.0768 -1.3284
11841TIP3    H257015   3.369   3.775   4.677 -0.6674 -0.5632 -0.7848
11842TIP3   OH257016   3.388   1.139   3.663 -0.3370  0.0756 -0.0736
11842TIP3    H157017   3.323   1.159   3.730  0.3198 -0.4513  0.7298
11842TIP3    H257018   3.374   1.047   3.641  0.0836 -0.0220  0.0507
11843TIP3   OH257019   0.368   3.403   3.008  0.2354 -0.0486 -0.1475
11843TIP3    H157020   0.391   3.483   2.962  0.7296  0.2839  0.6494
11843TIP3    H257021   0.438   3.341   2.985  2.0790  0.9653  2.2833
11844TIP3   OH257022   5.870   0.023   2.001 -0.2913 -0.2532  0.3718
11844TIP3    H157023   5.891   0.004   1.909 -1.1515 -0.4876  0.2194
11844TIP3    H257024   5.864   0.119   2.004  0.9873 -0.1577  0.4704
11845TIP3   OH257025   2.092   4.989   1.517 -0.3487 -0.0650 -0.0168
11845TIP3    H157026   2.130   4.945   1.593 -2.0983 -1.0218  0.3621
11845TIP3    H257027   2.008   4.945   1.503 -2.4830  3.3542  0.6705
11846TIP3   OH257028   2.683   1.304  16.954  0.3331 -0.3720  0.4129
11846TIP3    H157029   2.705   1.251  16.877  0.0931 -1.2441  0.9295
11846TIP3    H257030   2.710   1.393  16.931  0.8017 -0.7286 -0.4517
11847TIP3   OH257031   1.204   2.334   1.973  0.8738  0.5379 -0.1945
11847TIP3    H157032   1.180   2.359   1.884 -0.7427  2.3211  0.6734
11847TIP3    H257033   1.289   2.377   1.988  1.4841 -0.3307 -1.0668
11848TIP3   OH257034   6.375   4.397   4.703  0.7658  0.5272  0.3759
11848TIP3    H157035   6.448   4.441   4.659  1.0601 -0.0772  0.2343
11848TIP3    H257036   6.394   4.406   4.796  0.4743  1.2717  0.3624
11849TIP3   OH257037   4.881   3.521   4.308  0.1949 -0.5720 -0.3027
11849TIP3    H157038   4.868   3.461   4.234  2.4174 -1.1516 -0.3108
11849TIP3    H257039   4.805   3.509   4.363 -0.6001 -1.5487 -1.5565
11850TIP3   OH257040   2.625   1.020   1.704  0.3541 -0.2125 -0.5937
11850TIP3    H157041   2.709   1.063   1.687  0.4474  0.0664  0.5278
11850TIP3    H257042   2.626   1.001   1.797 -0.8156 -0.2474 -0.5750
11851TIP3   OH257043   5.991   5.601   1.312 -0.0756 -0.5086 -0.0274
11851TIP3    H157044   5.916   5.652   1.283 -0.1801 -1.2722 -1.1762
11851TIP3    H257045   5.964   5.563   1.396 -0.0180  1.2265  0.8118
11852TIP3   OH257046   5.167   1.512  14.606  0.2124  0.3423  0.3763
11852TIP3    H157047   5.215   1.441  14.648  2.1225  1.6444  0.5397
11852TIP3    H257048   5.195   1.591  14.652 -1.2463  1.3110 -0.3024
11853TIP3   OH257049   6.360   3.168   3.306 -0.4543 -0.4912 -0.8115
11853TIP3    H157050   6.307   3.120   3.242  0.2033  0.6165 -2.2320
11853TIP3    H257051   6.297   3.199   3.371 -1.0510 -2.1997 -0.5204
11854TIP3   OH257052   0.351   3.732  11.053 -0.0811  0.5074 -0.3517
11854TIP3    H157053   0.361   3.765  11.142 -1.4590  0.3107 -0.1054
11854TIP3    H257054   0.262   3.696  11.050  0.4851 -0.9341 -1.3362
11855TIP3   OH257055   3.974   0.815   1.848  0.1039 -0.4386  0.4784
11855TIP3    H157056   3.885   0.851   1.848  0.7786  1.3668 -0.5599
11855TIP3    H257057   3.961   0.722   1.829 -1.5490 -0.0827 -0.4245
11856TIP3   OH257058   3.164   3.151   5.341 -0.6529 -0.5075 -0.2289
11856TIP3    H157059   3.130   3.071   5.301 -1.7360 -0.3945  0.4461
11856TIP3    H257060   3.104   3.220   5.312 -0.5577 -0.1739  0.3594
11857TIP3   OH257061   3.571   1.906  12.227 -0.0922  0.1972 -0.3280
11857TIP3    H157062   3.568   1.840  12.297  0.2667 -0.1228 -0.6086
11857TIP3    H257063   3.484   1.905  12.189 -1.9457  3.7249  3.1317
11858TIP3   OH257064   0.247   5.987   0.176  0.3143  0.3555  0.1334
11858TIP3    H157065   0.335   6.024   0.172  0.5552 -0.1755  0.4622
11858TIP3    H257066   0.196   6.050   0.227 -0.3205  2.2751 -2.5967
11859TIP3   OH257067   4.950   4.244  16.241  0.0024 -0.0059  0.2064
11859TIP3    H157068   4.946   4.296  16.321  1.4669 -1.7454  1.5074
11859TIP3    H257069   4.861   4.212  16.228 -0.5421  1.3661  0.3269
11860TIP3   OH257070   0.554   2.503   4.473  0.1152  0.0328 -0.1198
11860TIP3    H157071   0.599   2.585   4.451  1.5812 -0.8180 -0.4300
11860TIP3    H257072   0.498   2.485   4.397 -1.7856  1.7184  0.7646
11861TIP3   OH257073   6.114   5.712  15.567  0.4154 -0.2752 -0.5732
11861TIP3    H157074   6.187   5.651  15.557  0.0856 -0.3736 -3.4500
11861TIP3    H257075   6.127   5.776  15.496 -2.3915 -0.4761 -1.3841
11862TIP3   OH257076   4.074   6.600  10.928  0.1314  0.2938  0.0410
11862TIP3    H157077   4.068   6.668  10.995 -0.8574 -0.4729  0.7683
11862TIP3    H257078   4.140   6.539  10.961 -0.6406 -0.2985  0.5730
11863TIP3   OH257079   0.629   1.322  14.649 -0.0957  0.3345 -0.5271
11863TIP3    H157080   0.641   1.413  14.676  0.9574 -0.1296  0.6666
11863TIP3    H257081   0.640   1.324  14.554 -1.1206  1.5977 -0.6438
11864TIP3   OH257082   6.137   6.607   1.200 -0.0118  0.3199  0.5702
11864TIP3    H157083   6.222   6.651   1.203  0.6253 -0.9381  1.9478
11864TIP3    H257084   6.088   6.655   1.133  1.9400  0.7659 -0.6215
11865TIP3   OH257085   6.195   0.404  12.347 -0.3215  0.3394  0.8719
11865TIP3    H157086   6.264   0.469  12.336 -1.0057  1.0413  0.6684
11865TIP3    H257087   6.143   0.411  12.267  0.1005 -1.0864  0.4306
11866TIP3   OH257088   3.916   0.301  16.142  0.0377  0.3343  0.2496
11866TIP3    H157089   3.940   0.389  16.170  0.3913  0.6787 -1.0500
11866TIP3    H257090   3.993   0.270  16.094  0.0751 -0.8572  1.0320
11867TIP3   OH257091   0.062   4.391  13.256  0.2515 -0.2982 -0.4156
11867TIP3    H157092   0.155   4.374  13.269  0.3103 -0.4273 -0.9522
11867TIP3    H257093   0.030   4.313  13.210 -0.1840 -0.3857  0.0214
11868TIP3   OH257094   0.467   6.656  13.978  0.3791  0.0184 -0.1701
11868TIP3    H157095   0.527   6.582  13.989  0.1015 -0.3340 -0.9767
11868TIP3    H257096   0.422   6.663  14.062 -0.0165 -1.1000 -0.2789
11869TIP3   OH257097   2.968   1.817  11.953  0.1524  0.1954 -0.0402
11869TIP3    H157098   3.002   1.856  12.034  0.3855  1.1021 -0.5566
11869TIP3    H257099   3.014   1.864  11.883 -1.5676  0.8888 -0.7480
11870TIP3   OH257100   1.122   2.946  14.861 -0.0013  0.7864  0.0698
11870TIP3    H157101   1.185   2.895  14.912  0.9348  0.3461 -1.4633
11870TIP3    H257102   1.117   2.901  14.776 -0.2046  2.4491 -0.8546
11871TIP3   OH257103   3.753   4.935   5.786  0.1288 -0.0567  0.2915
11871TIP3    H157104   3.698   4.958   5.861 -0.7222 -0.7435 -0.1045
11871TIP3    H257105   3.732   5.001   5.719 -0.6450 -0.6265 -0.0502
11872TIP3   OH257106   3.688   5.827  12.740  0.2867  0.1502 -0.2452
11872TIP3    H157107   3.717   5.751  12.689  0.5077  0.0699 -0.0053
11872TIP3    H257108   3.675   5.896  12.675  0.3835 -0.0049 -0.4319
11873TIP3   OH257109   1.958   3.715   2.614  0.4863  1.0082  0.2870
11873TIP3    H157110   1.905   3.697   2.692  0.6254  0.8052  0.3349
11873TIP3    H257111   1.982   3.629   2.581 -3.6677  0.7562 -2.8838
11874TIP3   OH257112   5.950   2.276  13.375  0.2774  0.2424  0.3982
11874TIP3    H157113   5.932   2.188  13.342  1.6973  0.0360  0.1212
11874TIP3    H257114   5.988   2.322  13.301  1.9415  0.2842  1.2458
11875TIP3   OH257115   6.742   3.904   4.665  0.5114  0.2730 -0.2075
11875TIP3    H157116   6.826   3.867   4.637  0.9742  0.5712  0.7456
11875TIP3    H257117   6.754   3.999   4.653 -0.2586  0.2229 -1.5539
11876TIP3   OH257118   3.757   0.156  11.548 -0.2128  0.0458  0.4267
11876TIP3    H157119   3.729   0.091  11.612 -0.4399  0.7158  1.0293
11876TIP3    H257120   3.748   0.240  11.594  2.7756  0.3451  0.6642
11877TIP3   OH257121   3.151   1.729  13.477  0.0064  1.0057  0.1502
11877TIP3    H157122   3.087   1.682  13.423  0.2754  1.1028 -0.2581
11877TIP3    H257123   3.225   1.743  13.419  0.9455 -0.2616  0.9793
11878TIP3   OH257124   5.701   3.930   0.052  0.7476 -0.6740 -0.0994
11878TIP3    H157125   5.797   3.931   0.047  0.8462 -0.8700  1.3733
11878TIP3    H257126   5.675   3.863  -0.011  1.6379 -1.1882  0.0559
11879TIP3   OH257127   5.628   4.941   0.789 -0.2601 -0.4340  0.5687
11879TIP3    H157128   5.648   4.864   0.841 -0.5113 -0.6114  0.4062
11879TIP3    H257129   5.617   4.908   0.700  1.2036  0.0153  0.2063
11880TIP3   OH257130   4.217   1.376  16.069  0.0927  0.2770  0.1147
11880TIP3    H157131   4.199   1.422  16.150 -0.8938  0.3532 -0.1365
11880TIP3    H257132   4.148   1.310  16.063 -0.8908  1.3750 -1.4888
11881TIP3   OH257133   0.158   2.712  11.566 -0.1822 -0.2091 -1.0034
11881TIP3    H157134   0.143   2.771  11.492 -0.6398 -1.8094 -2.2483
11881TIP3    H257135   0.099   2.639  11.551  2.1379 -2.2286 -0.9359
11882TIP3   OH257136   3.547   4.337   3.618  0.5078 -0.3153  0.1241
11882TIP3    H157137   3.537   4.389   3.538  0.2955  2.4575  1.8106
11882TIP3    H257138   3.640   4.347   3.641  0.1513  0.5983  1.2404
11883TIP3   OH257139   0.423   4.067  17.182 -0.1741  0.3413 -0.0041
11883TIP3    H157140   0.375   4.011  17.243  0.2805  0.9771  0.9462
11883TIP3    H257141   0.365   4.143  17.169 -0.0254  0.4668  0.0700
11884TIP3   OH257142   2.934   1.012  14.785  0.2037 -0.1394  0.4852
11884TIP3    H157143   3.018   0.971  14.803  0.3121  0.4640  1.4191
11884TIP3    H257144   2.880   0.942  14.749  2.0823  0.1665 -3.3558
11885TIP3   OH257145   5.625   2.790   6.595  0.3311 -0.5554 -0.0669
11885TIP3    H157146   5.703   2.842   6.610  0.2885  0.2507 -2.2456
11885TIP3    H257147   5.559   2.827   6.654  0.8285  0.6075 -0.2279
11886TIP3   OH257148   5.483   5.984  16.160  0.2120 -0.3912 -0.0807
11886TIP3    H157149   5.519   5.995  16.248  0.8007 -1.6989 -0.1267
11886TIP3    H257150   5.394   5.952  16.174  0.4338 -0.9642  0.0558
11887TIP3   OH257151   6.609   2.652   1.090 -0.1117  0.6446 -0.3303
11887TIP3    H157152   6.564   2.687   1.013  0.8841  2.2255 -0.2288
11887TIP3    H257153   6.614   2.725   1.151  2.7513  0.6657 -0.4248
11888TIP3   OH257154   1.604   2.965   0.185  1.1401  0.3308  0.4438
11888TIP3    H157155   1.659   2.892   0.159  2.0777  1.8600 -2.3120
11888TIP3    H257156   1.659   3.018   0.242  1.1243 -0.1504  0.9048
11889TIP3   OH257157   6.242   5.778   4.497 -0.1830 -0.0675 -0.7941
11889TIP3    H157158   6.221   5.818   4.413 -0.8943  0.3837 -0.4110
11889TIP3    H257159   6.158   5.766   4.540  0.2386  0.7428  0.3116
11890TIP3   OH257160   2.267   2.182   2.613  0.2324  0.2194  0.0015
11890TIP3    H157161   2.351   2.227   2.618  0.6642 -0.5129 -0.4747
11890TIP3    H257162   2.205   2.250   2.587  0.5046  0.9605  1.2328
11891TIP3   OH257163   1.034   4.651  12.065  0.7817 -0.4503  0.4490
11891TIP3    H157164   1.090   4.630  11.990  1.6538 -2.2938  1.5302
11891TIP3    H257165   1.096   4.672  12.135 -0.0199  1.0508  0.7377
11892TIP3   OH257166   2.240   0.645   5.877 -0.1283 -0.0315  0.1986
11892TIP3    H157167   2.295   0.646   5.955  1.1318  0.6594 -0.6657
11892TIP3    H257168   2.177   0.717   5.892  0.5544  0.5609  0.2821
11893TIP3   OH257169   6.720   6.003   2.680 -0.0665 -0.2253  0.0144
11893TIP3    H157170   6.691   5.920   2.641 -0.3771  0.7332 -1.8932
11893TIP3    H257171   6.815   5.992   2.690 -0.2831 -1.3357  1.2039
11894TIP3   OH257172   5.180   6.787  14.179 -0.3990  0.5518  0.2486
11894TIP3    H157173   5.129   6.828  14.109 -1.1448  0.8045  0.9259
11894TIP3    H257174   5.255   6.748  14.134 -1.3663 -0.1338 -0.8304
11895TIP3   OH257175   4.223   2.771   3.234 -0.0028  0.4162  0.1361
11895TIP3    H157176   4.228   2.782   3.329  2.2719 -2.2556  0.4650
11895TIP3    H257177   4.190   2.682   3.222 -0.5716  0.8314 -1.6129
11896TIP3   OH257178   4.336   5.402  15.715  0.0764 -0.3195 -0.4701
11896TIP3    H157179   4.324   5.333  15.781 -1.6829  0.2664 -0.1357
11896TIP3    H257180   4.430   5.421  15.718  0.6551 -2.7599 -0.6486
11897TIP3   OH257181   3.618   5.132   0.818 -0.4435 -0.1105  0.0165
11897TIP3    H157182   3.696   5.177   0.850 -0.0287 -0.1083 -0.9447
11897TIP3    H257183   3.625   5.043   0.855  0.9296 -0.6400 -1.4025
11898TIP3   OH257184   4.696   3.500   3.948  0.4063  0.0315  0.0059
11898TIP3    H157185   4.707   3.584   3.991  1.7300  0.1771 -0.5506
11898TIP3    H257186   4.655   3.521   3.864  0.2868  0.0694  0.0744
11899TIP3   OH257187   2.201   4.278  16.886  0.1064  0.1599 -0.3374
11899TIP3    H157188   2.149   4.211  16.841  0.5456  1.3189 -2.7435
11899TIP3    H257189   2.150   4.358  16.876  0.9995  0.7554 -0.1973
11900TIP3   OH257190   6.790   1.610  15.101 -0.5399  0.6536 -0.0386
11900TIP3    H157191   6.794   1.686  15.043 -1.7927 -0.0276 -1.0522
11900TIP3    H257192   6.706   1.618  15.146 -0.5200  0.0556  0.1163
11901TIP3   OH257193   4.865   6.840   1.503  0.0972  0.3786 -0.0709
11901TIP3    H157194   4.911   6.921   1.482  1.3761 -0.2977  0.0363
11901TIP3    H257195   4.777   6.868   1.527  0.2030  1.6393 -1.0653
11902TIP3   OH257196   3.870   6.008   6.349 -0.7367 -0.7236  0.1368
11902TIP3    H157197   3.776   6.026   6.351 -0.5550  0.2153  0.5321
11902TIP3    H257198   3.885   5.968   6.264 -1.3107  0.2251 -0.4285
11903TIP3   OH257199   0.027   0.655   1.795 -0.3073 -0.2625  0.2956
11903TIP3    H157200   0.074   0.591   1.847  0.1464  0.4878  0.8397
11903TIP3    H257201   0.088   0.729   1.788 -0.8264  0.1185 -0.2768
11904TIP3   OH257202   2.746   5.174   4.593  0.4395  0.0230  0.7402
11904TIP3    H157203   2.842   5.171   4.586  0.3650 -3.8515 -2.7799
11904TIP3    H257204   2.721   5.248   4.539  1.4809 -0.8975 -1.1088
11905TIP3   OH257205   1.389   1.115  15.023 -0.1522  0.4285  0.1900
11905TIP3    H157206   1.424   1.203  15.006  0.9723  0.0146  0.2659
11905TIP3    H257207   1.299   1.130  15.052 -0.3083  1.4923 -0.7644
11906TIP3   OH257208   1.564   5.756  12.645  0.2617  0.3329 -0.1749
11906TIP3    H157209   1.471   5.759  12.627  0.3355  0.9245 -0.4469
11906TIP3    H257210   1.602   5.712  12.569  0.0997 -0.8317  0.3815
11907TIP3   OH257211   1.778   6.084   3.167 -0.1246 -0.4812 -0.0400
11907TIP3    H157212   1.811   6.174   3.156  0.6417 -0.7755 -0.1976
11907TIP3    H257213   1.762   6.076   3.261  0.8494 -0.5321  0.1308
11908TIP3   OH257214   2.665   6.479   5.991  0.6195  0.5060  0.2049
11908TIP3    H157215   2.729   6.539   5.953  0.9472 -0.0426 -0.1191
11908TIP3    H257216   2.651   6.513   6.079 -0.1133  1.7619 -0.3657
11909TIP3   OH257217   5.708   2.645   4.764 -0.1856  0.1384  0.1222
11909TIP3    H157218   5.639   2.610   4.707 -0.2339 -1.2860  1.0010
11909TIP3    H257219   5.760   2.702   4.707  0.0258 -1.5574 -1.4727
11910TIP3   OH257220   2.693   5.968   5.242 -0.4826  0.6442  0.0835
11910TIP3    H157221   2.767   6.026   5.229  2.0434 -2.3288 -0.0015
11910TIP3    H257222   2.663   5.948   5.153 -0.1600  0.4243  0.0216
11911TIP3   OH257223   4.291   0.180   4.902  0.0579 -0.2237 -0.0187
11911TIP3    H157224   4.286   0.176   4.806  2.2472  1.8430 -0.3200
11911TIP3    H257225   4.347   0.106   4.926  0.1750 -0.2762 -0.4361
11912TIP3   OH257226   2.633   0.600   4.759  0.5335  0.2076 -0.1756
11912TIP3    H157227   2.619   0.642   4.844 -0.0202  0.5503 -0.4297
11912TIP3    H257228   2.600   0.511   4.771  0.3370  0.2947 -0.0633
11913TIP3   OH257229   3.687   3.069  11.609 -0.5299 -0.1367 -0.5922
11913TIP3    H157230   3.699   3.037  11.519  2.3584  0.7352 -0.6139
11913TIP3    H257231   3.734   3.005  11.663  2.0883  1.8531 -0.2866
11914TIP3   OH257232   1.473   6.364   2.932  0.2552 -0.3334 -0.6186
11914TIP3    H157233   1.489   6.288   2.876 -0.7545 -0.6281 -0.5149
11914TIP3    H257234   1.424   6.424   2.877 -1.2891 -0.8787  0.1176
11915TIP3   OH257235   4.403   0.110   0.536  0.2457  0.7669 -0.2014
11915TIP3    H157236   4.353   0.136   0.459 -0.4866 -0.2311 -0.0946
11915TIP3    H257237   4.379   0.174   0.603 -0.4654  0.6270 -0.3148
11916TIP3   OH257238   1.237   0.378   3.993  0.1380  0.7118 -0.3056
11916TIP3    H157239   1.227   0.465   3.953 -0.9997  1.0890  0.7352
11916TIP3    H257240   1.256   0.320   3.919 -0.9579  1.5460 -1.2816
11917TIP3   OH257241   1.383   3.455   3.589 -0.1252  0.2331  0.3318
11917TIP3    H157242   1.306   3.463   3.533  1.0354  0.4191 -1.2899
11917TIP3    H257243   1.435   3.534   3.571  0.3854  0.2029  1.5338
11918TIP3   OH257244   1.055   1.043  12.182 -0.4670 -0.4932  0.2605
11918TIP3    H157245   1.038   1.086  12.266  1.3054  0.3985  0.2067
11918TIP3    H257246   1.036   1.109  12.116  1.7842  0.1630  0.1619
11919TIP3   OH257247   0.142   6.677   1.025  0.6680  0.0735 -0.0513
11919TIP3    H157248   0.191   6.713   1.099 -0.6672  1.0416  0.3959
11919TIP3    H257249   0.053   6.709   1.038  0.2997 -0.1733 -1.8120
11920TIP3   OH257250   1.607   2.540   4.027  0.2476 -0.2075 -0.4154
11920TIP3    H157251   1.598   2.487   3.948  2.3317 -0.0977 -0.7611
11920TIP3    H257252   1.668   2.492   4.082  1.8588  1.5651 -0.5585
11921TIP3   OH257253   5.990   1.437   5.566 -0.3665  0.3690  0.0811
11921TIP3    H157254   6.027   1.414   5.651  0.8761  0.1130 -0.5022
11921TIP3    H257255   6.007   1.530   5.556  1.2812  0.0335 -0.6881
11922TIP3   OH257256   5.999   5.737   3.745 -0.1636 -0.2163  0.4118
11922TIP3    H157257   6.004   5.667   3.810 -0.3413 -0.3584  0.2703
11922TIP3    H257258   5.942   5.703   3.676 -0.2096  0.0472  0.3184
11923TIP3   OH257259   4.639   5.259  13.138 -1.0234  0.0819  0.2968
11923TIP3    H157260   4.629   5.172  13.176  0.2200  0.2113  0.9977
11923TIP3    H257261   4.732   5.278  13.148 -1.4660  1.9468  1.1426
11924TIP3   OH257262   2.626   4.967  14.280  0.5901 -0.0305 -0.4066
11924TIP3    H157263   2.603   5.036  14.343 -1.1838  1.3679 -2.4252
11924TIP3    H257264   2.719   4.982  14.261  0.1093  2.3983 -1.3139
11925TIP3   OH257265   3.938   1.562  11.068 -0.3618 -0.0938  0.2622
11925TIP3    H157266   3.975   1.579  10.981  1.5535 -0.0266  1.0236
11925TIP3    H257267   3.917   1.649  11.102 -2.4780 -0.1960 -0.6262
11926TIP3   OH257268   2.651   4.016   3.511 -0.0579 -0.0495  0.0830
11926TIP3    H157269   2.735   3.974   3.491 -1.1917 -3.0475  1.0897
11926TIP3    H257270   2.660   4.046   3.601  1.0400  2.9063 -0.8845
11927TIP3   OH257271   6.801   1.551  13.882  0.2571 -0.3889 -0.1009
11927TIP3    H157272   6.817   1.546  13.976 -3.0399  0.3296  0.6293
11927TIP3    H257273   6.823   1.642  13.859  1.2499 -0.6194 -0.0933
11928TIP3   OH257274   5.903   3.685  16.278  0.3550  0.5064 -0.1206
11928TIP3    H157275   5.809   3.695  16.295  0.1888  0.8041 -1.1340
11928TIP3    H257276   5.945   3.706  16.361 -0.4930  0.0135  0.4445
11929TIP3   OH257277   1.075   5.352   4.828 -0.5240 -0.9817  0.3035
11929TIP3    H157278   1.089   5.320   4.917 -0.9841  0.2497  0.8403
11929TIP3    H257279   1.092   5.446   4.833 -3.9825 -0.1875 -0.0346
11930TIP3   OH257280   0.740   3.172   5.216  0.2816 -0.0628  0.2941
11930TIP3    H157281   0.782   3.168   5.302  1.0877 -1.1210 -0.1355
11930TIP3    H257282   0.798   3.227   5.163  0.9301 -1.1540 -0.1668
11931TIP3   OH257283   2.627   4.259   3.228 -0.1622 -0.2694 -0.3034
11931TIP3    H157284   2.536   4.277   3.253  0.0512  1.1261 -0.4395
11931TIP3    H257285   2.620   4.222   3.140 -0.6275 -0.7000 -0.0936
11932TIP3   OH257286   1.983   0.104   1.304 -0.1375 -0.4530  0.0578
11932TIP3    H157287   1.895   0.093   1.267 -1.0656  0.9864  1.6705
11932TIP3    H257288   1.969   0.099   1.399  1.4126  0.5211  0.3667
11933TIP3   OH257289   3.384   5.359  13.888 -0.0652  0.2464  0.5387
11933TIP3    H157290   3.433   5.330  13.964 -1.3796  2.5148  2.3599
11933TIP3    H257291   3.360   5.277  13.843  3.7658 -1.0376  0.4176
11934TIP3   OH257292   6.440   4.552  13.681 -0.3357  0.9441 -0.2302
11934TIP3    H157293   6.381   4.525  13.751 -0.9499  0.4654 -0.9133
11934TIP3    H257294   6.479   4.634  13.712 -1.3433  1.2536  0.2512
11935TIP3   OH257295   5.771   1.472   1.787 -0.5464  0.0530 -0.5976
11935TIP3    H157296   5.867   1.463   1.784 -0.5915 -0.5427 -0.4313
11935TIP3    H257297   5.752   1.548   1.732 -0.0635 -0.5027 -1.5539
11936TIP3   OH257298   4.011   5.167  15.812  0.4708 -0.0346 -0.7207
11936TIP3    H157299   4.042   5.121  15.735 -1.2511 -1.6837 -0.5204
11936TIP3    H257300   4.006   5.259  15.786  0.6394 -0.4577 -2.3038
11937TIP3   OH257301   3.900   0.759   3.761  0.1110  0.0768  0.0607
11937TIP3    H157302   3.987   0.760   3.800  0.3992  1.1555 -0.5660
11937TIP3    H257303   3.912   0.712   3.678 -0.0131 -0.1954  0.1950
11938TIP3   OH257304   3.483   3.488  15.641  0.3398 -0.4382  0.3105
11938TIP3    H157305   3.499   3.560  15.580 -0.4401 -0.0648  0.5388
11938TIP3    H257306   3.538   3.509  15.717  2.8088 -1.8638 -0.9285
11939TIP3   OH257307   0.177   5.642  15.723  0.1236 -0.3534  0.1961
11939TIP3    H157308   0.222   5.638  15.639  0.4052 -1.0769  0.3695
11939TIP3    H257309   0.214   5.569  15.773 -0.5328 -0.3533  0.6988
11940TIP3   OH257310   5.013   6.432   2.816 -0.6883 -0.4011 -0.1684
11940TIP3    H157311   4.920   6.413   2.827 -0.7007  0.4882  1.5060
11940TIP3    H257312   5.025   6.519   2.854  0.6371 -0.0021 -1.3819
11941TIP3   OH257313   0.889   5.610  12.462  0.1230 -0.2188 -0.1204
11941TIP3    H157314   0.946   5.622  12.538 -1.4278 -0.1564  1.0820
11941TIP3    H257315   0.943   5.633  12.387  1.6773 -0.2023  0.9647
11942TIP3   OH257316   4.170   4.163  12.047  0.3253  0.3053  0.1703
11942TIP3    H157317   4.168   4.068  12.032 -0.2359  0.2064  0.8420
11942TIP3    H257318   4.148   4.201  11.962  0.0640 -0.1742  0.0185
11943TIP3   OH257319   0.166   1.652   5.896 -0.2777 -0.0345 -0.1591
11943TIP3    H157320   0.087   1.639   5.949  0.2397  0.4910  0.7842
11943TIP3    H257321   0.216   1.571   5.907 -1.0628 -0.7340 -1.4814
11944TIP3   OH257322   5.949   1.066   2.231 -0.7131  0.2782 -0.3935
11944TIP3    H157323   5.880   1.036   2.291 -0.2809  1.6540  0.8613
11944TIP3    H257324   5.929   1.158   2.215  0.5510  0.5829 -0.3776
11945TIP3   OH257325   0.534   6.361  17.164  0.0334  0.0933 -0.2237
11945TIP3    H157326   0.473   6.312  17.108 -0.8524  0.3942  0.4570
11945TIP3    H257327   0.520   6.325  17.251  1.3276 -0.2927 -0.1629
11946TIP3   OH257328   0.051   5.528   4.494 -0.2047  0.5040 -0.4954
11946TIP3    H157329  -0.021   5.471   4.470 -0.3776  0.9074 -0.9778
11946TIP3    H257330   0.033   5.555   4.584 -0.6420  0.5771 -0.6030
11947TIP3   OH257331   0.017   4.306   5.638 -0.5630 -0.1513  0.3827
11947TIP3    H157332   0.091   4.366   5.630 -1.5187  0.8687 -1.3804
11947TIP3    H257333   0.008   4.292   5.733 -0.1184  2.2832  0.8525
11948TIP3   OH257334   5.152   6.082   1.176 -0.3484  0.3656 -0.0949
11948TIP3    H157335   5.110   6.044   1.253 -0.4538  1.7429  0.5513
11948TIP3    H257336   5.220   6.139   1.211 -1.4681  2.2919 -0.9188
11949TIP3   OH257337   1.959   4.514   1.282  0.2743 -0.4696 -0.1393
11949TIP3    H157338   2.030   4.465   1.325  1.9349 -0.1555 -2.3362
11949TIP3    H257339   1.897   4.447   1.255  0.9104 -1.0248 -0.2523
11950TIP3   OH257340   0.872   5.291  11.329  0.4838  0.3802  0.1671
11950TIP3    H157341   0.832   5.371  11.362 -1.2635 -0.7502  0.9493
11950TIP3    H257342   0.922   5.257  11.404  0.3641  0.2098  0.1702
11951TIP3   OH257343   0.302   3.079   3.563 -0.1543 -0.0046 -0.5115
11951TIP3    H157344   0.390   3.109   3.586  0.9148 -3.5891  0.7141
11951TIP3    H257345   0.288   3.112   3.474  2.7547  0.0271 -1.0576
11952TIP3   OH257346   3.316   0.490   4.511 -0.9343  0.1766 -0.4866
11952TIP3    H157347   3.306   0.481   4.416 -1.8938  0.5464 -0.4266
11952TIP3    H257348   3.344   0.580   4.524 -1.5191  0.3451 -0.3737
11953TIP3   OH257349   1.998   4.303  15.144  0.2743 -0.6041 -0.1129
11953TIP3    H157350   1.976   4.394  15.164 -0.8260 -1.2095  1.5753
11953TIP3    H257351   2.020   4.305  15.050 -0.5231  1.2417 -0.3167
11954TIP3   OH257352   0.445   0.270  16.695 -0.4492  0.0732 -0.2802
11954TIP3    H157353   0.388   0.272  16.772  0.9396  1.2618  0.7833
11954TIP3    H257354   0.505   0.344  16.708  2.2507 -1.9193 -0.5797
11955TIP3   OH257355   2.785   3.604  12.503 -0.5438 -0.1027 -0.1320
11955TIP3    H157356   2.861   3.660  12.492  0.7067 -1.7822 -0.5382
11955TIP3    H257357   2.730   3.621  12.427 -0.7821  1.4077  0.3596
11956TIP3   OH257358   3.188   5.596  13.304  0.5214  0.6001  0.1379
11956TIP3    H157359   3.194   5.521  13.246 -1.2659  0.0913  0.5626
11956TIP3    H257360   3.247   5.575  13.377  0.9294  0.1653 -0.3068
11957TIP3   OH257361   4.983   2.450   5.768 -0.3380 -0.5363  0.2334
11957TIP3    H157362   4.897   2.448   5.727 -0.4745  0.9387  0.4092
11957TIP3    H257363   4.979   2.522   5.831  1.0624 -0.3425  0.1428
11958TIP3   OH257364   3.462   3.062  14.708 -0.0688 -0.0734 -0.1531
11958TIP3    H157365   3.429   2.977  14.679 -1.4068  0.3137  0.1666
11958TIP3    H257366   3.433   3.124  14.640  0.8730  0.1369 -0.3733
11959TIP3   OH257367   5.234   6.780   2.019  0.1872 -0.7474 -0.1796
11959TIP3    H157368   5.269   6.723   2.088 -1.5248 -0.4720  0.9597
11959TIP3    H257369   5.284   6.755   1.941  1.3514 -1.9032  0.8752
11960TIP3   OH257370   6.670   4.315   0.755 -0.3082 -0.6301  0.2150
11960TIP3    H157371   6.623   4.239   0.720  1.1071 -0.8730 -1.2556
11960TIP3    H257372   6.747   4.278   0.798 -0.4404 -0.1092  0.9175
11961TIP3   OH257373   5.296   6.129   4.132  0.4576  0.2112  0.0109
11961TIP3    H157374   5.234   6.171   4.192 -1.2995  0.0700 -1.6136
11961TIP3    H257375   5.359   6.198   4.110 -0.1184  0.8641  0.3702
11962TIP3   OH257376   2.662   1.861  12.099 -0.6296 -0.4667  0.1409
11962TIP3    H157377   2.724   1.919  12.144 -0.1058 -0.9527  0.0507
11962TIP3    H257378   2.585   1.916  12.084 -0.3629  0.0365  0.5852
11963TIP3   OH257379   1.071   2.485  14.463  0.1876 -0.0831  0.3003
11963TIP3    H157380   1.022   2.406  14.487  2.4131 -1.6853 -0.1259
11963TIP3    H257381   1.111   2.514  14.544 -0.3176  0.4136  0.3793
11964TIP3   OH257382   0.151   2.248   3.170 -0.5707 -0.5341  0.7461
11964TIP3    H157383   0.161   2.154   3.154  1.1970 -0.3877  0.7815
11964TIP3    H257384   0.154   2.257   3.265  0.6213 -0.3469  0.7102
11965TIP3   OH257385   1.888   3.071  11.960 -0.0861 -0.3055 -0.2873
11965TIP3    H157386   1.799   3.075  11.924 -0.1859  0.3211  0.0214
11965TIP3    H257387   1.945   3.075  11.883 -0.3192 -0.2180 -0.4569
11966TIP3   OH257388   4.296   5.115   0.326  0.6279  0.1035  0.4568
11966TIP3    H157389   4.350   5.036   0.319  0.9184  0.3623 -0.3168
11966TIP3    H257390   4.293   5.133   0.420  1.0271 -0.5042  0.5970
11967TIP3   OH257391   1.208   2.814  12.901 -0.1736  0.3533  0.7208
11967TIP3    H157392   1.287   2.795  12.850 -1.4965 -0.8393 -1.0034
11967TIP3    H257393   1.199   2.910  12.897  0.3062  0.3607 -0.4387
11968TIP3   OH257394   4.162   6.103   2.914 -0.3599 -0.4528  0.3375
11968TIP3    H157395   4.255   6.114   2.932 -0.3071  0.2563 -0.3177
11968TIP3    H257396   4.127   6.192   2.911 -1.0110 -0.6995  0.3299
11969TIP3   OH257397   6.425   2.496  13.176 -0.5357  0.5654 -0.4093
11969TIP3    H157398   6.511   2.521  13.142  1.2574 -0.7204  2.7561
11969TIP3    H257399   6.403   2.564  13.240 -0.5121 -0.5259  0.7952
11970TIP3   OH257400   0.122   6.094  12.725  0.1118 -0.4364 -0.1135
11970TIP3    H157401   0.077   6.129  12.649  0.3671 -1.4207 -0.7458
11970TIP3    H257402   0.215   6.113  12.709 -0.0275  1.6987  1.2428
11971TIP3   OH257403   5.031   3.567  10.275  0.1024 -0.0311  0.0925
11971TIP3    H157404   4.951   3.517  10.259  0.1428 -0.3082  0.7379
11971TIP3    H257405   5.094   3.531  10.213  0.2846 -1.1625  0.9133
11972TIP3   OH257406   4.813   5.527  12.451  0.5170 -0.1475 -0.8625
11972TIP3    H157407   4.882   5.579  12.492  1.7685 -2.9041  0.7735
11972TIP3    H257408   4.733   5.578  12.466  1.4901  0.7967  1.6577
11973TIP3   OH257409   5.814   1.740   3.207 -0.5484 -0.2729  0.0586
11973TIP3    H157410   5.759   1.667   3.178  1.1200 -1.4739 -0.2471
11973TIP3    H257411   5.835   1.787   3.127  0.0356 -0.6794 -0.0341
11974TIP3   OH257412   4.833   4.524   5.791  0.4628  0.0969  0.3866
11974TIP3    H157413   4.850   4.465   5.865  2.0994 -0.4867 -0.3954
11974TIP3    H257414   4.812   4.609   5.832  1.4643 -0.1794  1.5259
11975TIP3   OH257415   5.918   3.633   2.293  0.2649 -0.1987 -0.5088
11975TIP3    H157416   5.922   3.553   2.346  1.9748 -0.5304 -1.0863
11975TIP3    H257417   5.856   3.689   2.339 -0.3308 -1.5175  0.3653
11976TIP3   OH257418   1.037   5.843   4.308  0.1443 -0.4996 -0.1297
11976TIP3    H157419   1.105   5.775   4.305  1.0550  0.2235  1.9341
11976TIP3    H257420   1.074   5.917   4.260  1.0196  0.0107  1.2700
11977TIP3   OH257421   4.376   4.224   0.878 -0.4113 -0.3888 -0.4918
11977TIP3    H157422   4.309   4.289   0.901 -0.1602 -0.0634 -0.6708
11977TIP3    H257423   4.419   4.203   0.961  0.7919  1.1160 -0.6787
11978TIP3   OH257424   4.023   1.352  12.621 -0.3091  0.1927  0.1824
11978TIP3    H157425   4.111   1.365  12.586 -0.0804 -0.7750  0.3721
11978TIP3    H257426   3.969   1.415  12.574  0.3228  0.1859 -0.5776
11979TIP3   OH257427   1.088   2.851   2.924 -0.3877  0.2740 -0.2684
11979TIP3    H157428   1.128   2.891   2.848  0.7903  1.1255  0.7666
11979TIP3    H257429   1.148   2.870   2.996 -2.3088  1.0304  1.2193
11980TIP3   OH257430   3.608   1.825  17.117  0.1843  0.1588  0.0686
11980TIP3    H157431   3.564   1.893  17.168  1.8055 -0.2304  2.1137
11980TIP3    H257432   3.555   1.747  17.131 -1.6919  0.8533 -2.2952
11981TIP3   OH257433   1.804   6.613   4.169  0.6393  0.2579  0.1248
11981TIP3    H157434   1.754   6.532   4.180 -0.7076  1.2847  2.1329
11981TIP3    H257435   1.750   6.667   4.110 -0.4944  1.1757  1.9101
11982TIP3   OH257436   3.904   4.314  12.461  0.6167  0.1807  0.4205
11982TIP3    H157437   3.979   4.369  12.439  0.9720  0.0520  1.2915
11982TIP3    H257438   3.916   4.291  12.553 -1.2853  1.4405  1.0557
11983TIP3   OH257439   4.350   4.957  12.620 -0.0175 -0.0344 -0.0795
11983TIP3    H157440   4.425   4.916  12.665  1.5091  1.4884 -1.1026
11983TIP3    H257441   4.376   5.049  12.610 -1.4672  0.2382 -1.6730
11984TIP3   OH257442   0.367   1.588   0.536  0.5199  0.4633  0.4247
11984TIP3    H157443   0.322   1.507   0.562  0.1503  0.4976 -0.0784
11984TIP3    H257444   0.307   1.658   0.561  1.2053  0.6538  1.6306
11985TIP3   OH257445   4.914   2.390   2.044 -0.3242  0.4269 -0.0529
11985TIP3    H157446   4.897   2.296   2.049 -1.5532  0.6763  2.2968
11985TIP3    H257447   4.904   2.412   1.952  0.1340 -1.7412 -0.6825
11986TIP3   OH257448   5.615   2.678   2.952  0.6770  0.0950 -0.0719
11986TIP3    H157449   5.681   2.743   2.929  0.7275 -0.4748 -1.6293
11986TIP3    H257450   5.661   2.617   3.010  0.1615  2.3330  2.9693
11987TIP3   OH257451   2.720   1.636   4.573  0.7923 -0.4383 -0.4190
11987TIP3    H157452   2.644   1.679   4.610  1.2694  0.5144 -0.5309
11987TIP3    H257453   2.785   1.705   4.562  2.0497 -1.3928  0.6273
11988TIP3   OH257454   3.222   3.933  17.187  0.0776 -0.2494  0.6035
11988TIP3    H157455   3.131   3.905  17.178  0.2391 -0.3187 -1.2577
11988TIP3    H257456   3.268   3.855  17.220  0.1449 -1.6708 -2.5038
11989TIP3   OH257457   3.296   1.652   5.330 -0.3842 -0.9327  0.4060
11989TIP3    H157458   3.296   1.737   5.373  0.1630 -0.7721  0.0976
11989TIP3    H257459   3.215   1.610   5.360 -0.6808 -0.2934  0.5298
11990TIP3   OH257460   6.401   2.183   1.525 -0.2631  0.7524 -0.2498
11990TIP3    H157461   6.381   2.107   1.580 -2.4032  0.5099 -1.2651
11990TIP3    H257462   6.329   2.244   1.541  2.3532  3.5907  2.0563
11991TIP3   OH257463   2.691   3.289   2.747  0.7862 -0.2911 -0.7759
11991TIP3    H157464   2.684   3.352   2.819 -0.1792  1.0490 -1.9876
11991TIP3    H257465   2.776   3.307   2.707  0.9247 -0.4164 -0.5411
11992TIP3   OH257466   4.202   1.438   0.411 -0.3735  0.2353  0.0411
11992TIP3    H157467   4.113   1.419   0.438  0.1786 -2.6838  0.0719
11992TIP3    H257468   4.202   1.428   0.316 -0.2262  1.0839 -0.0637
11993TIP3   OH257469   5.542   3.348  11.125  0.0454 -0.7388  1.1188
11993TIP3    H157470   5.584   3.427  11.091  0.5741 -1.5990 -0.3072
11993TIP3    H257471   5.608   3.279  11.117 -0.2114 -1.2569  2.8422
11994TIP3   OH257472   1.191   4.310  12.270 -0.4947  0.1508  0.5541
11994TIP3    H157473   1.117   4.280  12.217  0.5916 -0.5571 -0.6400
11994TIP3    H257474   1.194   4.249  12.344  0.4148 -1.4580 -0.7413
11995TIP3   OH257475   3.675   0.261  15.588  0.0149  0.3866  0.4461
11995TIP3    H157476   3.587   0.293  15.609 -0.6099 -0.5466 -0.6151
11995TIP3    H257477   3.663   0.207  15.509  1.2567 -1.2081  1.2827
11996TIP3   OH257478   1.426   4.545  14.364  0.4464  0.2180  0.1242
11996TIP3    H157479   1.444   4.577  14.275 -2.2924 -0.9582 -0.9901
11996TIP3    H257480   1.395   4.456  14.351  2.1278 -0.8170  2.5651
11997TIP3   OH257481   6.102   4.898   6.101  0.0004  0.2086  0.3336
11997TIP3    H157482   6.183   4.933   6.137 -0.3361  0.5772  0.7476
11997TIP3    H257483   6.033   4.955   6.137 -0.5692 -0.9069  1.0567
11998TIP3   OH257484   5.678   2.553  13.975 -0.2347  0.3510 -0.1778
11998TIP3    H157485   5.586   2.575  13.990 -0.7027 -2.4125  1.5603
11998TIP3    H257486   5.726   2.622  14.020 -1.5211  0.3207  1.3432
11999TIP3   OH257487   1.752   4.011   0.857 -0.0454 -0.3883  0.4490
11999TIP3    H157488   1.756   4.103   0.881 -0.4867 -0.1907 -0.2291
11999TIP3    H257489   1.673   4.002   0.805  0.2928 -1.0386  0.0289
12000TIP3   OH257490   4.995   0.397   3.522 -0.1232  0.1842  0.1830
12000TIP3    H157491   4.915   0.349   3.499  1.2046 -2.2746  0.3045
12000TIP3    H257492   5.040   0.340   3.585  2.1516  1.0037 -0.5721
12001TIP3   OH257493   3.233   3.769  12.666  0.1246 -0.2471  0.1762
12001TIP3    H157494   3.221   3.817  12.747 -0.1911 -0.9873  0.5753
12001TIP3    H257495   3.295   3.822  12.615  0.7073 -0.0265  1.1025
12002TIP3   OH257496   0.642   4.786  14.470 -0.1647  0.1267 -0.1480
12002TIP3    H157497   0.736   4.792  14.454 -0.5652  1.4759 -2.6361
12002TIP3    H257498   0.616   4.875  14.494 -0.9644  0.1098 -0.8787
12003TIP3   OH257499   6.809   5.188  14.704  0.3002 -0.3644 -0.6953
12003TIP3    H157500   6.860   5.251  14.653  1.0216 -0.4279 -0.0616
12003TIP3    H257501   6.872   5.149  14.765 -0.2578 -1.2979 -0.7001
12004TIP3   OH257502   2.778   1.589  13.957  0.1764 -0.1639 -0.4099
12004TIP3    H157503   2.707   1.526  13.942  1.6861 -1.8511 -0.7350
12004TIP3    H257504   2.816   1.563  14.040  0.1555  1.0411  0.0070
12005TIP3   OH257505   2.582   0.162   2.613  0.0243 -0.1716 -0.5481
12005TIP3    H157506   2.620   0.173   2.526  0.7699 -0.8701 -0.3206
12005TIP3    H257507   2.656   0.169   2.673 -0.6932  1.8513  0.1627
12006TIP3   OH257508   6.553   3.105   0.080 -0.3472  0.4524  1.0447
12006TIP3    H157509   6.542   3.193   0.045 -1.4589  0.6402  1.7961
12006TIP3    H257510   6.463   3.075   0.097  0.0887  0.4149  3.7736
12007TIP3   OH257511   3.888   2.313   2.377 -0.4854 -0.0496  0.2356
12007TIP3    H157512   3.975   2.292   2.411 -0.8185 -3.2012 -0.5458
12007TIP3    H257513   3.866   2.396   2.419  2.7080  0.7027  0.7380
12008TIP3   OH257514   5.886   6.473  14.679  0.6262  0.6377  0.4214
12008TIP3    H157515   5.831   6.521  14.617  1.2467  1.0741  0.2074
12008TIP3    H257516   5.827   6.451  14.751  0.1179  0.9141  0.0951
12009TIP3   OH257517   3.915   6.288   2.764  0.6534  0.8196  0.3449
12009TIP3    H157518   3.874   6.214   2.809  1.5998 -0.1924 -0.4021
12009TIP3    H257519   3.985   6.316   2.824  1.6417 -0.2575 -0.2656
12010TIP3   OH257520   6.337   0.889  14.723 -0.6223  0.3616 -0.2419
12010TIP3    H157521   6.396   0.893  14.648 -0.3881  0.6329 -0.0452
12010TIP3    H257522   6.328   0.796  14.742 -1.2551  0.2489 -1.0523
12011TIP3   OH257523   2.048   3.643  12.389  0.6168 -0.1302  0.2207
12011TIP3    H157524   2.084   3.650  12.301  2.0138 -1.4461  0.6393
12011TIP3    H257525   2.012   3.555  12.393  0.2060  0.0624  0.8388
12012TIP3   OH257526   3.416   1.583  11.959  0.3204 -0.4828  0.4646
12012TIP3    H157527   3.495   1.528  11.957  1.2462  0.7401  1.6330
12012TIP3    H257528   3.449   1.671  11.975 -1.2095  0.2835 -0.4405
12013TIP3   OH257529   5.955   3.921   0.051 -0.5389  0.2477  0.7803
12013TIP3    H157530   5.991   3.864  -0.016  0.0051  1.9731 -0.4717
12013TIP3    H257531   5.986   3.883   0.134 -1.3220 -1.9844  0.1096
12014TIP3   OH257532   2.980   4.377  13.100 -0.0641  0.0776 -0.5969
12014TIP3    H157533   3.028   4.451  13.137  1.1803 -1.1590  0.3719
12014TIP3    H257534   2.904   4.416  13.058 -0.1237  1.8042  0.9837
12015TIP3   OH257535   0.391   5.462   3.969  0.0520 -0.0365  0.3291
12015TIP3    H157536   0.332   5.529   3.936 -0.4870 -0.7168 -0.1303
12015TIP3    H257537   0.338   5.412   4.031  0.6371  0.3491  1.1652
12016TIP3   OH257538   6.028   6.273  10.670  0.3847  0.1637 -0.6555
12016TIP3    H157539   5.948   6.281  10.723  0.5017 -0.5736 -0.3562
12016TIP3    H257540   6.024   6.348  10.610 -1.0434 -0.3843 -1.3141
12017TIP3   OH257541   1.991   0.136  10.882 -0.2376  0.1956  0.0267
12017TIP3    H157542   2.054   0.201  10.852 -0.3268 -0.6747 -2.2531
12017TIP3    H257543   1.940   0.181  10.950  1.3551  1.6261  0.3216
12018TIP3   OH257544   3.919   5.052   1.547  0.0524 -0.8521 -0.3807
12018TIP3    H157545   3.899   5.025   1.457  1.2124 -0.6213 -0.7274
12018TIP3    H257546   4.014   5.065   1.547 -0.0838  0.2825  0.5719
12019TIP3   OH257547   6.489   1.091  14.851 -0.0181 -0.4853  0.6920
12019TIP3    H157548   6.518   1.101  14.760  0.3257  0.4100  0.8907
12019TIP3    H257549   6.431   1.015  14.849  1.1639 -1.4068  0.0008
12020TIP3   OH257550   5.109   0.789  11.541  0.1207  0.5612 -0.0884
12020TIP3    H157551   5.116   0.851  11.614 -0.2034  3.2103 -2.1932
12020TIP3    H257552   5.198   0.785  11.505 -0.0436  0.4916 -0.4886
12021TIP3   OH257553   1.057   2.392  14.902 -0.0416  0.0258 -0.0918
12021TIP3    H157554   1.001   2.459  14.863  0.8222  0.3057 -0.8771
12021TIP3    H257555   1.142   2.404  14.860  0.4581 -0.7682  0.6593
12022TIP3   OH257556   2.627   4.695  14.128  0.4648  0.0747 -0.5107
12022TIP3    H157557   2.578   4.740  14.198  2.5908  0.7804  0.6050
12022TIP3    H257558   2.637   4.605  14.160 -1.9944 -0.7537 -1.8051
12023TIP3   OH257559   3.693   2.079   4.514 -0.3265  0.2464 -0.2487
12023TIP3    H157560   3.631   2.143   4.548 -0.0976 -0.6643  2.0893
12023TIP3    H257561   3.715   2.024   4.589  1.5655 -0.8984 -1.5318
12024TIP3   OH257562   0.077   3.371   4.918  0.0315  0.0724  0.4038
12024TIP3    H157563   0.136   3.440   4.888 -0.4830  0.3273 -0.0489
12024TIP3    H257564   0.112   3.291   4.878 -0.2619  0.3120 -0.3580
12025TIP3   OH257565   6.763   2.070  14.288  0.0151  0.5100  0.6445
12025TIP3    H157566   6.811   2.135  14.236 -1.6961  2.2835  1.1776
12025TIP3    H257567   6.675   2.106  14.297 -1.5227 -2.6343 -0.3360
12026TIP3   OH257568   2.870   0.875   0.164 -0.3243  0.1415  0.4406
12026TIP3    H157569   2.910   0.789   0.176 -1.1890 -0.3039  0.1858
12026TIP3    H257570   2.901   0.905   0.078 -0.8754 -0.3971  0.0454
12027TIP3   OH257571   2.214   3.736  12.178 -0.0511  0.2029 -0.1638
12027TIP3    H157572   2.275   3.809  12.167 -0.3998  0.5550  0.1735
12027TIP3    H257573   2.243   3.670  12.116  0.1014  0.7472 -0.6843
12028TIP3   OH257574   3.604   4.268   2.202  0.0524 -0.0735 -0.0360
12028TIP3    H157575   3.573   4.351   2.238 -1.4556 -0.6360  0.0327
12028TIP3    H257576   3.586   4.204   2.271  1.0814 -0.4893 -0.1372
12029TIP3   OH257577   2.716   0.069  10.835 -0.2210 -0.6103  0.2156
12029TIP3    H157578   2.728  -0.022  10.862  0.4947 -0.4640  0.4408
12029TIP3    H257579   2.625   0.089  10.854  0.4535 -0.1791  3.7371
12030TIP3   OH257580   4.768   1.171  16.194  0.3018  0.1583 -0.1045
12030TIP3    H157581   4.823   1.203  16.122 -0.9813 -1.0357 -1.6904
12030TIP3    H257582   4.730   1.250  16.232 -0.8788  0.7322 -2.3448
12031TIP3   OH257583   1.212   4.924   2.591 -0.4847  0.1668 -0.3119
12031TIP3    H157584   1.257   4.849   2.629 -0.3254  0.3752 -0.0874
12031TIP3    H257585   1.219   4.911   2.496 -1.1539 -0.5113 -0.2722
12032TIP3   OH257586   3.835   1.319  11.221 -0.6648  0.2810  0.4054
12032TIP3    H157587   3.838   1.400  11.273  0.3114  1.0162 -0.7496
12032TIP3    H257588   3.789   1.343  11.141  2.3427  0.6574 -1.3927
12033TIP3   OH257589   3.790   0.732   2.110  0.1918  0.2004  0.0849
12033TIP3    H157590   3.700   0.701   2.119 -0.2645  1.8732  2.3197
12033TIP3    H257591   3.785   0.798   2.041 -0.2925  0.1416  0.0588
12034TIP3   OH257592   4.134   4.517   4.978 -0.5773  0.4036 -0.3855
12034TIP3    H157593   4.145   4.522   5.073 -0.6491 -0.3575 -0.3357
12034TIP3    H257594   4.155   4.606   4.947 -0.8782  0.7441  0.3675
12035TIP3   OH257595   4.257   2.372  11.607 -0.1601  0.1820 -0.5394
12035TIP3    H157596   4.331   2.392  11.550  1.1015  1.7213  1.4828
12035TIP3    H257597   4.268   2.280  11.629  0.9918  0.3100 -0.5159
12036TIP3   OH257598   1.770   1.727   4.966  0.4761 -0.5220  0.2773
12036TIP3    H157599   1.834   1.664   4.934  1.2636  0.7875 -0.7708
12036TIP3    H257600   1.739   1.772   4.888 -0.3187  0.1749  0.9790
12037TIP3   OH257601   6.611   3.516   3.897  0.2542 -0.1884  0.0892
12037TIP3    H157602   6.597   3.501   3.804 -0.3355 -0.7837  0.2626
12037TIP3    H257603   6.534   3.478   3.939 -0.2700  1.4740  0.7287
12038TIP3   OH257604   3.353   2.736   4.301  0.0062  0.2995 -0.7943
12038TIP3    H157605   3.257   2.741   4.295 -0.1507 -1.3005  0.0031
12038TIP3    H257606   3.371   2.644   4.317  1.4746  1.0159  2.3518
12039TIP3   OH257607   3.815   6.452  11.924  0.0527  0.1597  0.1171
12039TIP3    H157608   3.743   6.479  11.866 -2.7616 -2.5491  2.0081
12039TIP3    H257609   3.880   6.414  11.865  0.5097  3.3883 -1.7452
12040TIP3   OH257610   0.581   0.540   3.186 -0.1740 -0.0355 -0.3497
12040TIP3    H157611   0.579   0.629   3.151 -2.0028 -0.2490 -0.8522
12040TIP3    H257612   0.499   0.531   3.233  0.7833 -0.8816  1.2382
12041TIP3   OH257613   2.270   3.649   2.532  0.1774  0.1723 -0.2660
12041TIP3    H157614   2.296   3.620   2.444 -3.8852  1.2834 -2.0784
12041TIP3    H257615   2.242   3.740   2.520 -1.0505  0.1603  2.0183
12042TIP3   OH257616   4.597   6.456  14.314  0.3076  0.1059  0.1902
12042TIP3    H157617   4.519   6.511  14.325  0.9698  1.1855 -0.3570
12042TIP3    H257618   4.628   6.441  14.403  0.5856  1.3447  0.3256
12043TIP3   OH257619   5.803   5.130   1.558  0.2200 -0.1817  0.6403
12043TIP3    H157620   5.839   5.182   1.487 -1.1978  1.5347  1.1134
12043TIP3    H257621   5.791   5.192   1.630 -0.3200 -1.4390  1.6922
12044TIP3   OH257622   4.979   2.602  11.560 -0.1215 -0.3211 -0.1120
12044TIP3    H157623   4.890   2.605  11.527  0.0647 -0.4421 -0.6309
12044TIP3    H257624   5.014   2.690  11.543  0.6437 -0.9685 -2.1528
12045TIP3   OH257625   3.450   2.497   3.246 -0.0249  0.1455 -0.3560
12045TIP3    H157626   3.499   2.485   3.165  2.7160  1.8363  0.9264
12045TIP3    H257627   3.450   2.591   3.261 -1.5998 -0.0205  0.9801
12046TIP3   OH257628   0.929   2.742   4.122  0.6329  0.1952 -0.1412
12046TIP3    H157629   0.839   2.722   4.097  0.4567  1.3803 -0.5339
12046TIP3    H257630   0.932   2.837   4.127  1.6926  0.1408  0.5529
12047TIP3   OH257631   3.017   4.517  10.843 -0.0782 -0.4600 -0.5113
12047TIP3    H157632   3.068   4.447  10.802  0.0143 -0.4002 -0.4982
12047TIP3    H257633   3.051   4.522  10.933 -1.3978 -1.7260  0.1068
12048TIP3   OH257634   5.021   5.143   1.464 -0.1633 -0.1140  0.6781
12048TIP3    H157635   5.112   5.116   1.476 -0.3367 -0.4632  1.2443
12048TIP3    H257636   4.975   5.107   1.541 -0.8320 -0.1931  0.2469
12049TIP3   OH257637   5.223   5.118  13.832  0.1876 -0.7202 -0.6861
12049TIP3    H157638   5.272   5.096  13.752 -0.1215 -1.3135 -0.7108
12049TIP3    H257639   5.280   5.180  13.878  1.4671 -2.1864 -0.1976
12050TIP3   OH257640   5.211   1.315   5.348  0.1000  0.3416  0.3915
12050TIP3    H157641   5.194   1.304   5.442  0.4184  1.4390  0.5886
12050TIP3    H257642   5.172   1.237   5.308 -1.1577  0.4610  1.3056
12051TIP3   OH257643   1.959   6.764  10.665 -0.1115 -0.6627  0.2264
12051TIP3    H157644   2.021   6.785  10.595  0.1080 -0.0825  0.5915
12051TIP3    H257645   1.956   6.843  10.719 -0.6666 -0.9257  0.5864
12052TIP3   OH257646   2.251   0.008  13.988  0.6922  0.5094 -0.2496
12052TIP3    H157647   2.159  -0.005  13.964  1.4039 -0.0002 -3.0844
12052TIP3    H257648   2.286  -0.081  13.997  1.1178  0.6807 -0.1997
12053TIP3   OH257649   0.387   1.356   1.402 -0.2310  0.3894 -0.1901
12053TIP3    H157650   0.358   1.328   1.489  2.4021 -1.7508  0.1024
12053TIP3    H257651   0.451   1.425   1.419  0.4773 -0.2118 -0.4179
12054TIP3   OH257652   5.124   0.352   2.463 -0.1855 -0.2991 -0.1501
12054TIP3    H157653   5.149   0.264   2.492 -0.0207  0.1971  1.3191
12054TIP3    H257654   5.207   0.393   2.437  0.4388  0.7508  3.0536
12055TIP3   OH257655   1.466   0.163  13.593  0.0323  0.0192  0.2162
12055TIP3    H157656   1.528   0.169  13.666 -0.0849  0.8994  0.2461
12055TIP3    H257657   1.506   0.099  13.533  2.6064  2.8398 -1.3236
12056TIP3   OH257658   2.030   5.160   2.782 -0.1495  0.2187  0.7604
12056TIP3    H157659   1.986   5.173   2.698  3.0898  2.5449 -0.7677
12056TIP3    H257660   2.066   5.071   2.778  0.7807  0.6415 -0.7710
12057TIP3   OH257661   3.093   6.392  13.690  0.3112  0.2634  0.0633
12057TIP3    H157662   3.125   6.403  13.600 -0.1294  0.2612 -0.0974
12057TIP3    H257663   3.038   6.469  13.705 -0.4237 -0.2296 -0.0252
12058TIP3   OH257664   3.596   4.658  15.035 -0.5000 -0.1039 -0.2161
12058TIP3    H157665   3.508   4.649  14.998 -0.1429  0.4067 -1.2268
12058TIP3    H257666   3.581   4.677  15.128 -1.4975  1.1434 -0.5981
12059TIP3   OH257667   0.432   2.243  16.202 -0.1337 -0.3284 -0.4093
12059TIP3    H157668   0.468   2.156  16.220 -1.3536 -1.0463 -1.2618
12059TIP3    H257669   0.337   2.233  16.214 -0.3271  0.7908 -0.8584
12060TIP3   OH257670   1.438   1.006   5.342  0.1177 -0.1672 -0.0637
12060TIP3    H157671   1.384   0.952   5.285 -1.5263 -0.0669  1.3308
12060TIP3    H257672   1.461   0.949   5.415  1.6258 -0.0903 -0.4396
12061TIP3   OH257673   6.135   0.879  15.892 -0.3715 -0.3543 -0.2226
12061TIP3    H157674   6.219   0.843  15.920 -1.1645 -1.8498  0.3816
12061TIP3    H257675   6.158   0.950  15.832  1.3131 -0.3540  0.3562
12062TIP3   OH257676   5.866   3.823   3.224 -0.0047  0.4905  0.2332
12062TIP3    H157677   5.880   3.914   3.199  0.6814  0.5344  0.7434
12062TIP3    H257678   5.776   3.820   3.256 -0.3643  0.7673 -0.7003
12063TIP3   OH257679   2.683   6.342  10.271 -0.2686 -0.3208 -0.4863
12063TIP3    H157680   2.596   6.379  10.283  0.0292  0.0975  0.5185
12063TIP3    H257681   2.682   6.260  10.320  0.2356  0.2430  0.5067
12064TIP3   OH257682   0.278   5.471   3.502 -0.3083 -0.1089  0.4416
12064TIP3    H157683   0.366   5.499   3.529  1.3745 -2.0472 -2.5396
12064TIP3    H257684   0.286   5.377   3.488 -2.9829 -0.3958  0.3646
12065TIP3   OH257685   0.682   3.424  13.941 -0.4005 -0.2736 -0.0277
12065TIP3    H157686   0.709   3.345  13.894 -0.6299 -0.0247 -0.5800
12065TIP3    H257687   0.599   3.449  13.901  0.0086  0.6449 -0.3325
12066TIP3   OH257688   5.848   0.850  13.477 -0.2272 -0.2453  0.5538
12066TIP3    H157689   5.859   0.945  13.475 -2.4756  0.2151  3.0586
12066TIP3    H257690   5.865   0.822  13.388 -1.6323  2.8179 -0.8453
12067TIP3   OH257691   4.747   5.179  16.429 -0.4191 -0.1381 -0.2831
12067TIP3    H157692   4.718   5.252  16.483  0.7746  0.1744 -0.0474
12067TIP3    H257693   4.668   5.126  16.417 -1.0256  0.5434  0.5575
12068TIP3   OH257694   5.727   1.049   4.199  0.5405 -0.6174 -0.2284
12068TIP3    H157695   5.797   1.034   4.262  0.3422 -1.4959 -0.2075
12068TIP3    H257696   5.745   1.136   4.163  0.9556 -0.3333  0.6474
12069TIP3   OH257697   1.955   5.543  13.708  0.2554 -0.1065 -0.2153
12069TIP3    H157698   1.999   5.603  13.768 -1.6389  0.3792  0.7876
12069TIP3    H257699   1.908   5.482  13.766 -1.1291  0.0001 -1.1703
12070TIP3   OH257700   6.020   4.180  16.347  0.0492 -0.2480 -0.0483
12070TIP3    H157701   5.953   4.160  16.412  0.0592  0.8015  0.2903
12070TIP3    H257702   6.006   4.114  16.278 -0.5352 -0.8037  0.5861
12071TIP3   OH257703   5.988   1.630  13.814  0.3266  0.2080  0.1262
12071TIP3    H157704   5.998   1.681  13.733  0.4595  0.3546  0.2352
12071TIP3    H257705   5.900   1.592  13.807  1.7196 -3.0465 -1.9505
12072TIP3   OH257706   4.246   3.488  15.738  0.2408 -0.6963  0.2548
12072TIP3    H157707   4.289   3.572  15.721 -1.1643  0.2693  1.2479
12072TIP3    H257708   4.307   3.423  15.704  1.2746  0.7277 -0.7419
12073TIP3   OH257709   5.537   1.494   6.032 -0.2151 -0.5133 -0.8126
12073TIP3    H157710   5.525   1.529   6.121 -1.0414  0.7859 -1.3990
12073TIP3    H257711   5.518   1.401   6.040 -2.4934 -0.0547 -0.0144
12074TIP3   OH257712   2.819   0.714  15.389 -0.2690 -0.0533 -0.4319
12074TIP3    H157713   2.775   0.790  15.426  0.2012 -0.3313  0.7491
12074TIP3    H257714   2.836   0.657  15.464  3.7583  0.8531 -0.4295
12075TIP3   OH257715   5.426   0.826   0.180 -0.4005  0.4228  0.0290
12075TIP3    H157716   5.408   0.827   0.273 -0.9042  0.5698 -0.0681
12075TIP3    H257717   5.431   0.919   0.155 -1.0420  0.3908 -0.2338
12076TIP3   OH257718   0.738   2.726   0.344 -0.6652 -0.0922 -0.1623
12076TIP3    H157719   0.799   2.784   0.390 -0.6855 -0.5644  0.4692
12076TIP3    H257720   0.660   2.724   0.401 -0.4121 -1.2617  0.1552
12077TIP3   OH257721   1.759   4.252  13.903 -0.1132 -0.1100  0.5679
12077TIP3    H157722   1.708   4.273  13.981  0.6718  2.5119  0.4512
12077TIP3    H257723   1.696   4.257  13.831 -1.1009 -3.6281  0.9925
12078TIP3   OH257724   4.826   3.390  10.273 -0.5789 -0.1044 -0.1895
12078TIP3    H157725   4.738   3.372  10.239 -0.6408  0.9278 -0.6198
12078TIP3    H257726   4.826   3.354  10.362 -0.6216 -2.2956 -1.0291
12079TIP3   OH257727   1.318   1.312   1.027  0.5548  0.0519  0.1461
12079TIP3    H157728   1.356   1.378   1.086 -1.6046 -0.1288  1.8388
12079TIP3    H257729   1.343   1.228   1.066  0.9247 -0.1300 -0.4520
12080TIP3   OH257730   2.093   0.656  11.128 -0.0525  0.0422 -0.1281
12080TIP3    H157731   2.166   0.716  11.145 -0.4106  0.2784  0.6021
12080TIP3    H257732   2.125   0.571  11.157  0.5727 -0.1940 -1.4607
12081TIP3   OH257733   2.476   4.394  16.909 -0.3006 -0.1972 -0.4920
12081TIP3    H157734   2.470   4.300  16.921 -0.2660 -0.0499  0.8173
12081TIP3    H257735   2.396   4.417  16.860  0.7168 -1.1389 -2.7586
12082TIP3   OH257736   2.565   4.643  13.103 -0.4790  0.0966  0.5389
12082TIP3    H157737   2.580   4.710  13.171  1.0281  0.5094 -0.1463
12082TIP3    H257738   2.500   4.683  13.045 -0.3321  0.5586  0.6812
12083TIP3   OH257739   1.475   5.522  10.969  0.1265  0.1054  0.2513
12083TIP3    H157740   1.398   5.473  10.939  1.3730 -2.4219  0.8816
12083TIP3    H257741   1.512   5.559  10.889 -1.6191  1.3077 -0.0749
12084TIP3   OH257742   6.151   3.390  16.093  0.1612 -0.0259  0.4397
12084TIP3    H157743   6.056   3.398  16.099  0.1217 -0.9136  1.3764
12084TIP3    H257744   6.166   3.316  16.034  0.2447 -0.3055  0.8042
12085TIP3   OH257745   5.113   2.642   4.835 -0.0231  0.4806 -0.2349
12085TIP3    H157746   5.095   2.733   4.812 -0.6102  0.8361  1.4957
12085TIP3    H257747   5.073   2.630   4.921  0.0952 -1.4050 -0.3854
12086TIP3   OH257748   4.933   5.099  11.342 -0.5840  0.4211  0.0165
12086TIP3    H157749   5.022   5.085  11.310 -0.7719  0.3054 -0.4671
12086TIP3    H257750   4.878   5.093  11.263 -0.8625  2.1060  0.0470
12087TIP3   OH257751   1.743   2.523  16.797 -0.3087  0.0872  0.3934
12087TIP3    H157752   1.807   2.456  16.772 -1.1043 -0.3710 -0.4740
12087TIP3    H257753   1.658   2.487  16.771 -0.7158  1.6575 -0.6439
12088TIP3   OH257754   4.092   2.040  10.731  0.4801 -0.4195 -0.3002
12088TIP3    H157755   4.132   2.093  10.800 -0.2191  0.5794 -0.6357
12088TIP3    H257756   4.029   1.984  10.777 -1.2041  1.4190 -0.2553
12089TIP3   OH257757   0.608   3.563   4.704 -0.0570 -0.2686 -0.1789
12089TIP3    H157758   0.550   3.637   4.717 -0.0538 -0.2006 -0.5525
12089TIP3    H257759   0.670   3.592   4.637  0.6863 -0.1778  0.5254
12090TIP3   OH257760   2.024   3.259   3.729  0.2714 -0.7068 -0.1904
12090TIP3    H157761   2.116   3.286   3.733 -0.2292  1.0242  0.5352
12090TIP3    H257762   2.001   3.270   3.636  0.0425  1.6613  0.1039
12091TIP3   OH257763   3.657   0.050  15.354  0.4044 -0.1937 -0.3556
12091TIP3    H157764   3.642  -0.044  15.356 -1.6999 -0.0321 -2.5706
12091TIP3    H257765   3.708   0.065  15.275  1.9827  0.4461  0.7415
12092TIP3   OH257766   4.295   1.835  12.969 -0.2064 -0.4448 -0.3971
12092TIP3    H157767   4.268   1.748  12.997  0.5458 -0.9025 -1.0240
12092TIP3    H257768   4.389   1.838  12.989 -0.1826  0.1355 -0.5793
12093TIP3   OH257769   0.910   4.615   5.160 -0.3128 -0.2667  0.1192
12093TIP3    H157770   0.926   4.609   5.065 -1.1133 -0.0330 -0.0389
12093TIP3    H257771   0.816   4.606   5.169 -0.1775 -0.9507  0.9597
12094TIP3   OH257772   0.662   0.784   1.389 -0.6930  0.4189 -0.1614
12094TIP3    H157773   0.655   0.829   1.304  0.1798  0.6324 -0.1269
12094TIP3    H257774   0.755   0.786   1.410 -0.8980  0.3580  0.8025
12095TIP3   OH257775   2.903   0.837   2.957  0.0392  0.5860  0.8308
12095TIP3    H157776   2.972   0.903   2.961  1.6526 -0.9040 -0.7539
12095TIP3    H257777   2.897   0.814   2.864 -0.5191 -1.4346  1.3240
12096TIP3   OH257778   4.811   2.275  14.675  0.7495 -0.6134  0.3932
12096TIP3    H157779   4.822   2.296  14.582  1.7772  0.2955  0.7042
12096TIP3    H257780   4.726   2.315  14.698  1.0779  0.2690  0.1393
12097TIP3   OH257781   4.106   3.928   3.466 -0.1928  0.6336  0.0814
12097TIP3    H157782   4.195   3.942   3.499  0.2688  3.8198 -1.9944
12097TIP3    H257783   4.113   3.850   3.411  1.5132  1.1145 -0.4710
12098TIP3   OH257784   6.192   3.411   6.220 -0.1468 -0.3980  0.6043
12098TIP3    H157785   6.256   3.481   6.223 -1.0440  0.5038 -0.3299
12098TIP3    H257786   6.205   3.362   6.301  1.9675 -0.4996  0.2522
12099TIP3   OH257787   5.647   5.199  14.758 -0.5026  0.2928  0.4879
12099TIP3    H157788   5.642   5.105  14.743  2.2338  0.0677  0.4467
12099TIP3    H257789   5.639   5.210  14.853  0.2668 -0.1199  0.6072
12100TIP3   OH257790   4.756   5.036   5.330  0.2876 -0.3989  0.3285
12100TIP3    H157791   4.776   5.109   5.389 -1.1343 -0.1700  0.5750
12100TIP3    H257792   4.687   5.070   5.273  0.8944 -0.9685 -0.7757
12101TIP3   OH257793   3.021   3.506   1.254 -0.2716  0.1095 -0.3237
12101TIP3    H157794   3.079   3.460   1.193  1.1714  1.6532 -0.1783
12101TIP3    H257795   2.967   3.436   1.292  1.8525 -1.5057 -0.0383
12102TIP3   OH257796   4.199   0.583  15.459 -0.1445  0.0755  0.6569
12102TIP3    H157797   4.120   0.601  15.509  1.8010  1.4005  3.5020
12102TIP3    H257798   4.246   0.517  15.510  0.9266 -0.1797 -0.5881
12103TIP3   OH257799   5.044   3.230  15.415  0.6261  0.0474  0.1437
12103TIP3    H157800   5.066   3.148  15.370 -0.9826  0.5091 -1.6005
12103TIP3    H257801   4.995   3.202  15.492  2.2250 -0.6997  0.9459
12104TIP3   OH257802   1.350   0.439  14.531 -0.5397 -0.7180 -0.3836
12104TIP3    H157803   1.361   0.442  14.436 -0.9701 -1.9414 -0.4940
12104TIP3    H257804   1.431   0.475  14.566 -0.3293 -0.3671 -1.2163
12105TIP3   OH257805   0.384   1.510  10.599  0.2862 -0.0978 -0.8520
12105TIP3    H157806   0.475   1.486  10.618  0.7281  1.0426 -1.4168
12105TIP3    H257807   0.385   1.606  10.597 -0.6262 -0.0900 -2.2314
12106TIP3   OH257808   3.154   1.859   4.214 -0.2219 -0.0470  0.0219
12106TIP3    H157809   3.092   1.930   4.227  0.6230  0.5537  0.9697
12106TIP3    H257810   3.237   1.894   4.246  0.3796 -1.1849 -0.2452
12107TIP3   OH257811   4.855   3.904  14.336 -0.2769  0.2907  0.4250
12107TIP3    H157812   4.928   3.857  14.294 -1.0402  0.5659 -1.3035
12107TIP3    H257813   4.813   3.839  14.392 -0.8931 -0.9371 -1.3959
12108TIP3   OH257814   3.770   6.336  12.185  0.3181  0.0425 -0.4638
12108TIP3    H157815   3.793   6.381  12.103  0.1171  0.0157 -0.5341
12108TIP3    H257816   3.844   6.277  12.201  0.9107  0.8871 -0.0047
12109TIP3   OH257817   3.192   1.532  15.063  0.5395 -0.3784 -0.0187
12109TIP3    H157818   3.100   1.505  15.065 -0.2816  2.2258  0.2402
12109TIP3    H257819   3.214   1.536  14.970  0.4229 -1.0305 -0.0803
12110TIP3   OH257820   2.556   6.571  15.237 -0.0716 -0.5531 -0.1167
12110TIP3    H157821   2.497   6.507  15.278 -0.3937  0.2741  0.7353
12110TIP3    H257822   2.510   6.654  15.246  0.7579 -0.0595 -0.4045
12111TIP3   OH257823   4.733   3.465  14.183 -0.0236  0.1786  0.5614
12111TIP3    H157824   4.822   3.495  14.204  0.6740 -0.6822 -0.9465
12111TIP3    H257825   4.689   3.544  14.151  0.0420  0.7044  1.7177
12112TIP3   OH257826   2.229   0.872   4.671 -0.2229 -0.2522 -0.2357
12112TIP3    H157827   2.161   0.820   4.714 -0.6251 -0.7141 -1.3907
12112TIP3    H257828   2.208   0.962   4.692 -0.1479 -0.4785  0.8931
12113TIP3   OH257829   5.725   0.176   3.187  0.1657 -0.5119  0.3773
12113TIP3    H157830   5.671   0.120   3.244  1.9682 -1.1601  1.5623
12113TIP3    H257831   5.778   0.114   3.137  0.2925  0.1073 -0.2592
12114TIP3   OH257832   3.735   2.050   1.797  0.1471 -0.0124  0.4584
12114TIP3    H157833   3.787   2.061   1.877  0.0735 -0.4949  0.5774
12114TIP3    H257834   3.765   2.120   1.739  0.9429 -0.2956  0.5173
12115TIP3   OH257835   0.785   2.669   4.722 -0.2131  0.6763 -0.2853
12115TIP3    H157836   0.792   2.668   4.626  0.6124  1.1474 -0.2421
12115TIP3    H257837   0.875   2.653   4.752 -0.4485  0.6500  0.4137
12116TIP3   OH257838   3.288   0.592  13.411 -0.4766  0.4933  0.3452
12116TIP3    H157839   3.340   0.672  13.403 -0.4651  0.3703 -1.0272
12116TIP3    H257840   3.275   0.562  13.321 -0.9194 -0.7731  0.8006
12117TIP3   OH257841   1.594   2.572   4.714 -0.5040 -0.4433  0.1277
12117TIP3    H157842   1.512   2.572   4.762 -1.1217 -0.2310 -0.8970
12117TIP3    H257843   1.659   2.540   4.777 -1.5687 -1.7566  0.6037
12118TIP3   OH257844   3.978   5.793  16.076  0.2032  0.8204 -0.4220
12118TIP3    H157845   3.980   5.756  16.164 -2.0114 -1.5907 -1.2622
12118TIP3    H257846   4.065   5.830  16.063  0.8661  0.4405  2.4246
12119TIP3   OH257847   1.329   3.381   3.887 -0.0466 -0.3451  0.0667
12119TIP3    H157848   1.303   3.470   3.866 -0.2373 -0.6775 -1.1477
12119TIP3    H257849   1.351   3.341   3.803  0.2965 -1.3636  0.6202
12120TIP3   OH257850   1.916   0.190   1.985 -0.3349 -0.4838 -0.2610
12120TIP3    H157851   2.008   0.178   2.009 -0.1185  1.2697 -0.1146
12120TIP3    H257852   1.894   0.110   1.936  0.8277 -1.5737  0.9096
12121TIP3   OH257853   6.354   0.304  14.707  0.1456  0.3822  0.1490
12121TIP3    H157854   6.301   0.242  14.657 -2.0130  3.1779 -1.3649
12121TIP3    H257855   6.416   0.340  14.643  1.4657 -0.2448  1.0327
12122TIP3   OH257856   4.565   0.710   6.026  0.1060  0.2465  0.4779
12122TIP3    H157857   4.478   0.719   5.988 -1.2291  0.7361  3.3981
12122TIP3    H257858   4.600   0.799   6.028 -0.4680  0.4589  1.7247
12123TIP3   OH257859   1.323   6.691  10.415 -0.1646  0.4444 -0.6491
12123TIP3    H157860   1.247   6.637  10.394 -0.1426  0.4961 -0.8624
12123TIP3    H257861   1.334   6.748  10.339  0.6439 -0.1848 -1.0287
12124TIP3   OH257862   0.470   3.591  14.669  0.7201  0.2045 -0.3244
12124TIP3    H157863   0.537   3.579  14.602 -0.6454 -2.8316 -1.3108
12124TIP3    H257864   0.507   3.548  14.747 -0.7691 -3.5995 -1.4957
12125TIP3   OH257865   6.526   6.517   5.702  0.3588 -0.0506 -0.1186
12125TIP3    H157866   6.561   6.432   5.729 -0.4504 -0.1915  0.5336
12125TIP3    H257867   6.570   6.581   5.757  0.4690 -0.1123 -0.1348
12126TIP3   OH257868   4.810   3.904   2.076 -0.0430  0.1731  0.6341
12126TIP3    H157869   4.903   3.884   2.071 -0.2384 -0.4555 -1.3756
12126TIP3    H257870   4.773   3.836   2.132  0.2992 -1.4439 -0.9912
12127TIP3   OH257871   5.063   4.087  13.939 -0.3762 -0.0746  0.5371
12127TIP3    H157872   5.127   4.075  13.869 -0.7118 -1.6965  0.4741
12127TIP3    H257873   5.099   4.158  13.993  0.4074  0.4728 -0.6673
12128TIP3   OH257874   3.155   2.463   4.000 -0.8841 -0.5591 -0.3563
12128TIP3    H157875   3.116   2.549   4.016 -0.7843 -0.6472  0.3914
12128TIP3    H257876   3.224   2.480   3.936 -1.6710 -0.2908 -1.1405
12129TIP3   OH257877   6.521   0.592   2.467  0.2566 -0.3902 -0.0065
12129TIP3    H157878   6.607   0.615   2.432 -0.2193  0.9142 -0.3849
12129TIP3    H257879   6.525   0.497   2.480  1.1598 -0.6081 -1.6440
12130TIP3   OH257880   2.578   0.194  15.091 -0.4613  0.1071 -0.1844
12130TIP3    H157881   2.554   0.155  15.007 -1.2742  0.0172  0.0744
12130TIP3    H257882   2.573   0.289  15.076 -0.6240  0.0913 -0.2383
12131TIP3   OH257883   1.483   3.560   4.989 -0.2364  0.1107 -0.7466
12131TIP3    H157884   1.422   3.606   4.931 -1.9488 -0.6701  0.3436
12131TIP3    H257885   1.471   3.467   4.967 -0.3850 -0.1367  0.3595
12132TIP3   OH257886   5.561   0.131   1.829 -0.2209  0.0046 -0.2148
12132TIP3    H157887   5.487   0.191   1.818  0.6236  0.6550 -3.2604
12132TIP3    H257888   5.590   0.113   1.740  2.6812 -1.0381  0.8421
12133TIP3   OH257889   5.862   4.773   4.597 -0.6228 -0.0109 -0.2172
12133TIP3    H157890   5.902   4.828   4.664 -0.5961 -0.1360 -0.1309
12133TIP3    H257891   5.903   4.687   4.607  0.1657  0.2527 -1.1050
12134TIP3   OH257892   1.143   0.233  15.554  0.3012 -0.4504  0.6875
12134TIP3    H157893   1.086   0.299  15.514 -1.3083 -1.9205  0.4331
12134TIP3    H257894   1.138   0.251  15.648  1.3889  0.9206  0.5086
12135TIP3   OH257895   3.743   0.795   1.528 -0.3378  0.0659  0.8314
12135TIP3    H157896   3.648   0.804   1.522 -0.4438 -1.4594 -1.2553
12135TIP3    H257897   3.777   0.884   1.514 -1.4532  0.3832 -0.0177
12136TIP3   OH257898   1.687   1.554  12.795 -0.0545 -0.3139 -0.2412
12136TIP3    H157899   1.698   1.568  12.701 -1.3662 -1.5595 -0.6331
12136TIP3    H257900   1.635   1.629  12.825 -0.9299 -0.6609 -0.8388
12137TIP3   OH257901   5.649   3.484   1.758 -0.2576  0.1007  0.7188
12137TIP3    H157902   5.730   3.517   1.720  0.1734  0.1941  1.6996
12137TIP3    H257903   5.676   3.410   1.813 -0.9297 -0.3567  0.4469
12138TIP3   OH257904   1.540   1.014  15.389  0.0936  0.4669  0.8986
12138TIP3    H157905   1.567   1.015  15.298  0.6189 -1.0747  1.0173
12138TIP3    H257906   1.466   1.075  15.393 -1.5164 -1.2378 -1.0574
12139TIP3   OH257907   3.498   4.120  14.481  0.3968  0.2322 -0.3492
12139TIP3    H157908   3.539   4.130  14.568 -1.7873  1.4773  0.6150
12139TIP3    H257909   3.468   4.208  14.459  0.1950 -0.2345 -2.0210
12140TIP3   OH257910   0.448   4.601  15.583  0.1101  0.3121  0.5970
12140TIP3    H157911   0.507   4.609  15.658  0.1293  0.9697  0.5157
12140TIP3    H257912   0.439   4.690  15.549 -3.3815  0.8896  2.4862
12141TIP3   OH257913   0.554   6.764   6.135 -0.1738  0.2926  0.4534
12141TIP3    H157914   0.583   6.721   6.216  0.4390  0.0194  0.0915
12141TIP3    H257915   0.556   6.695   6.069  1.5758  1.0343 -0.3144
12142TIP3   OH257916   5.314   6.519  12.833  0.2656  0.2225 -0.4397
12142TIP3    H157917   5.349   6.449  12.889  0.7870  0.6024 -0.2814
12142TIP3    H257918   5.378   6.589  12.839  0.4464  0.1938 -1.6998
12143TIP3   OH257919   3.766   5.291  14.888 -0.6468  0.4418 -0.3601
12143TIP3    H157920   3.808   5.224  14.941  0.0370  0.8482 -0.3785
12143TIP3    H257921   3.692   5.246  14.847 -0.1923 -0.3045 -0.3786
12144TIP3   OH257922   4.609   0.854  15.765 -0.4546 -1.0437  0.0588
12144TIP3    H157923   4.613   0.930  15.823  0.7883 -1.2651  0.2995
12144TIP3    H257924   4.597   0.779  15.824 -2.3381 -1.0036 -0.2221
12145TIP3   OH257925   5.526   2.315   4.867 -0.0598 -0.0372  0.1678
12145TIP3    H157926   5.482   2.400   4.872  0.0483  0.0871 -0.8095
12145TIP3    H257927   5.553   2.307   4.776  3.8551  0.8427  1.0480
12146TIP3   OH257928   2.252   5.406   5.164  0.2296  0.0955 -0.6898
12146TIP3    H157929   2.196   5.448   5.099 -0.0013  0.6039 -0.1696
12146TIP3    H257930   2.318   5.360   5.112 -0.5988 -0.4214 -1.3042
12147TIP3   OH257931   0.098   3.825  11.979 -0.3209 -0.2988 -0.0344
12147TIP3    H157932   0.122   3.895  11.919 -0.1200 -0.6372 -0.3516
12147TIP3    H257933   0.009   3.800  11.953 -0.1931 -0.5191 -0.2638
12148TIP3   OH257934   4.418   3.209   5.197 -0.0050 -0.0802  0.8223
12148TIP3    H157935   4.371   3.292   5.185  0.7217  0.1848 -0.3458
12148TIP3    H257936   4.356   3.142   5.169 -0.4120  0.0995  1.2746
12149TIP3   OH257937   6.477   2.408  14.763 -0.0379 -0.1268 -0.1868
12149TIP3    H157938   6.506   2.498  14.775 -0.7738  0.1878 -0.6941
12149TIP3    H257939   6.557   2.359  14.745  0.3477  0.4571 -0.0923
12150TIP3   OH257940   5.730   3.169  12.230 -0.2240 -0.7090 -0.2900
12150TIP3    H157941   5.818   3.166  12.269  0.0581 -0.7276 -0.9174
12150TIP3    H257942   5.681   3.228  12.287 -0.4504 -2.3969  1.3286
12151TIP3   OH257943   1.560   3.750   2.685  0.4971  0.0495 -0.1474
12151TIP3    H157944   1.503   3.822   2.713 -0.1324 -0.1402 -0.8960
12151TIP3    H257945   1.546   3.744   2.591 -0.5607 -1.9488  0.0628
12152TIP3   OH257946   4.885   0.432  13.287  0.0533 -0.1457 -0.1739
12152TIP3    H157947   4.896   0.429  13.382  0.1857  1.2610 -0.1311
12152TIP3    H257948   4.967   0.470  13.254  1.3152 -3.3620 -1.1531
12153TIP3   OH257949   3.728   0.070  12.023 -0.2018  0.3789 -0.4537
12153TIP3    H157950   3.687   0.026  12.097  1.3944 -2.1734 -0.9921
12153TIP3    H257951   3.803   0.116  12.061  0.6768 -1.0133 -0.4414
12154TIP3   OH257952   6.763   6.780   3.859  0.0746  0.1465 -1.1398
12154TIP3    H157953   6.720   6.800   3.776  0.6027 -0.8777 -1.6769
12154TIP3    H257954   6.706   6.717   3.902  0.1239  0.1844 -1.0173
12155TIP3   OH257955   0.572   0.561  15.195  0.7579 -0.4547  0.5236
12155TIP3    H157956   0.544   0.563  15.104  0.8894 -2.0455  0.4170
12155TIP3    H257957   0.490   0.566  15.245  0.4736 -1.9822  0.2587
12156TIP3   OH257958   4.072   4.977  17.090 -0.1240 -0.1699 -0.1038
12156TIP3    H157959   4.018   5.050  17.061 -0.2085 -1.1703 -2.8365
12156TIP3    H257960   4.156   5.016  17.112 -0.5242  0.8790 -0.3996
12157TIP3   OH257961   4.840   4.878   1.546  0.2300  0.1025 -0.1676
12157TIP3    H157962   4.864   4.860   1.456  0.9990 -1.3185  0.2917
12157TIP3    H257963   4.837   4.793   1.589 -0.7232  0.6882  1.0188
12158TIP3   OH257964   5.682   4.875   1.857 -1.0606  0.4337 -0.2078
12158TIP3    H157965   5.627   4.876   1.935 -0.1044  2.7530  0.5315
12158TIP3    H257966   5.630   4.921   1.791 -0.8547  0.7414 -0.1556
12159TIP3   OH257967   2.200   4.922   6.172  0.0215 -0.0849 -0.3007
12159TIP3    H157968   2.180   5.004   6.217  1.1557  1.3134 -2.1802
12159TIP3    H257969   2.267   4.946   6.108 -0.4232 -2.2513 -1.6745
12160TIP3   OH257970   1.468   2.644   1.174 -0.1673 -0.4526 -0.2955
12160TIP3    H157971   1.455   2.685   1.088  2.3562  1.5330  0.1409
12160TIP3    H257972   1.446   2.713   1.237 -0.5175 -1.3843  0.6226
12161TIP3   OH257973   1.536   5.194  14.368 -0.6333  0.3872  0.5989
12161TIP3    H157974   1.448   5.163  14.346  0.0133 -1.1550  0.0385
12161TIP3    H257975   1.586   5.114  14.382  1.2554  1.1137 -1.4075
12162TIP3   OH257976   0.086   6.631   4.798 -0.9190  0.4425  0.2110
12162TIP3    H157977   0.040   6.611   4.880 -0.5752  1.3106  0.6262
12162TIP3    H257978   0.179   6.635   4.823 -0.6162 -0.9363 -0.5465
12163TIP3   OH257979   1.851   3.657   5.383 -0.3251  0.4013  0.3785
12163TIP3    H157980   1.769   3.650   5.332 -0.8531 -1.2532  1.3934
12163TIP3    H257981   1.888   3.741   5.356 -2.9987  1.8375  0.8019
12164TIP3   OH257982   1.400   6.517   1.311 -0.0834 -0.3306  0.3500
12164TIP3    H157983   1.437   6.604   1.297 -0.4728  0.1158  1.9122
12164TIP3    H257984   1.457   6.476   1.376  1.7101 -2.3457 -2.2566
12165TIP3   OH257985   5.913   0.794  12.556 -0.0777 -0.0980 -0.3270
12165TIP3    H157986   5.990   0.780  12.501  2.8903  3.2716  2.4747
12165TIP3    H257987   5.929   0.739  12.633 -2.8997 -2.7895 -1.4487
12166TIP3   OH257988   0.215   6.385  15.907 -0.8843  0.3765  0.3466
12166TIP3    H157989   0.199   6.471  15.945 -2.1462 -0.0452  0.8223
12166TIP3    H257990   0.160   6.383  15.828 -0.6411  0.1190  0.1821
12167TIP3   OH257991   2.973   1.960  12.969 -0.2931 -0.4695  0.5405
12167TIP3    H157992   2.892   1.970  12.919 -0.0174  0.2074  0.2178
12167TIP3    H257993   2.945   1.961  13.060 -0.5366  1.1484  0.4794
12168TIP3   OH257994   4.814   6.147  11.888 -0.3141  0.3174  0.0958
12168TIP3    H157995   4.808   6.230  11.840 -1.9494  1.9741  2.8792
12168TIP3    H257996   4.902   6.115  11.870 -0.7467  0.7679 -3.8484
12169TIP3   OH257997   5.138   1.544   4.984 -0.3524  0.6276  0.0372
12169TIP3    H157998   5.151   1.626   4.937  0.7477  0.3820 -0.1297
12169TIP3    H257999   5.221   1.529   5.029 -0.8840  0.1045  0.8606
12170TIP3   OH258000   2.150   0.202  13.736  0.3377  0.5768 -0.0914
12170TIP3    H158001   2.098   0.122  13.736  0.6277  0.3843  0.1507
12170TIP3    H258002   2.201   0.197  13.656 -0.2355  0.9138 -0.4817
12171TIP3   OH258003   5.144   1.900  11.294 -0.0940 -0.1056 -0.4000
12171TIP3    H158004   5.065   1.921  11.345  0.4101 -0.2247  0.4477
12171TIP3    H258005   5.112   1.891  11.204 -0.4660  3.7349 -0.7935
12172TIP3   OH258006   2.547   6.677   2.217 -0.2544 -0.4737  0.3343
12172TIP3    H158007   2.601   6.606   2.181  0.6612  1.2265 -1.9338
12172TIP3    H258008   2.520   6.646   2.303  2.2933 -2.4723  0.5295
12173TIP3   OH258009   3.882   2.341   0.690  0.7079  0.2631  0.3498
12173TIP3    H158010   3.937   2.263   0.679 -0.9076 -0.8030 -0.6774
12173TIP3    H258011   3.792   2.307   0.689 -0.0107  1.9283  2.0533
12174TIP3   OH258012   1.982   0.139  15.173 -0.1045  0.0921 -0.2718
12174TIP3    H158013   2.014   0.048  15.169  1.4143  0.6442 -1.3299
12174TIP3    H258014   1.887   0.131  15.164  0.1288 -1.3063 -1.9959
12175TIP3   OH258015   2.925   4.752  13.617 -0.3692  0.4277 -0.0788
12175TIP3    H158016   2.919   4.715  13.705 -1.5030 -1.0987 -0.7472
12175TIP3    H258017   2.975   4.687  13.567  0.7560  1.5440 -0.4533
12176TIP3   OH258018   3.828   5.035  16.020  0.8470 -0.3479 -0.1869
12176TIP3    H158019   3.858   5.082  16.097 -1.1462  1.2814 -0.3101
12176TIP3    H258020   3.873   5.078  15.947 -1.0963  1.6382 -0.3159
12177TIP3   OH258021   0.247   3.259   5.779 -0.1959 -0.1802 -0.4923
12177TIP3    H158022   0.154   3.267   5.798 -0.0635 -1.6434  1.0389
12177TIP3    H258023   0.290   3.315   5.843 -0.0170  1.1793 -1.7543
12178TIP3   OH258024   0.641   0.248   3.939 -0.3020  0.8511  0.2449
12178TIP3    H158025   0.730   0.283   3.938  0.2041 -0.3854 -0.2303
12178TIP3    H258026   0.608   0.269   4.027 -0.4794  3.4768 -0.3639
12179TIP3   OH258027   3.115   1.238  11.432 -0.3652 -0.3818 -0.1427
12179TIP3    H158028   3.077   1.169  11.377 -1.2094  1.6101 -2.1976
12179TIP3    H258029   3.047   1.260  11.495 -0.0187 -1.5042  0.6586
12180TIP3   OH258030   4.355   4.331   3.655 -0.1692  0.3440  0.3076
12180TIP3    H158031   4.396   4.400   3.603  0.1498  0.5106  0.7743
12180TIP3    H258032   4.353   4.367   3.744  1.2698 -0.7815  0.8310
12181TIP3   OH258033   5.453   1.247   5.895 -0.6001  0.0061  0.0354
12181TIP3    H158034   5.417   1.168   5.934  0.4603 -0.5179 -0.0072
12181TIP3    H258035   5.539   1.220   5.861  0.2707  1.4352  1.0088
12182TIP3   OH258036   2.380   0.355  15.361  0.1156 -0.6688 -0.7744
12182TIP3    H158037   2.415   0.443  15.350  0.1085 -0.7969 -2.0240
12182TIP3    H258038   2.340   0.354  15.448  1.2144  0.1737 -0.2479
12183TIP3   OH258039   4.369   0.595  17.177  0.5893 -0.3637  0.7386
12183TIP3    H158040   4.387   0.513  17.131 -1.2238  0.1195 -0.9668
12183TIP3    H258041   4.452   0.642  17.177  1.1303 -1.2904 -0.2219
12184TIP3   OH258042   0.151   3.758   0.275  0.6676 -0.2071 -0.2953
12184TIP3    H158043   0.061   3.790   0.281 -0.1470 -1.8129 -2.7245
12184TIP3    H258044   0.147   3.668   0.306  2.4043  0.8141  3.6997
12185TIP3   OH258045   5.479   1.845   3.390  0.2676  0.2789 -0.0169
12185TIP3    H158046   5.529   1.871   3.312 -0.7090 -1.8677 -1.4780
12185TIP3    H258047   5.425   1.921   3.411  1.3575  1.2944 -0.7445
12186TIP3   OH258048   2.387   5.523  13.054  0.1846 -0.3411 -0.1075
12186TIP3    H158049   2.371   5.555  13.142  1.4550 -0.6856  0.2752
12186TIP3    H258050   2.422   5.435  13.067 -0.0239 -0.5610 -0.9782
12187TIP3   OH258051   3.269   3.597  16.965  0.3500  0.1582 -0.7661
12187TIP3    H158052   3.335   3.577  17.031  0.4702  0.9566 -0.6271
12187TIP3    H258053   3.186   3.571  17.005  0.4420  0.4553 -0.3746
12188TIP3   OH258054   2.025   6.653   4.612  0.3460 -0.5623 -0.7378
12188TIP3    H158055   2.053   6.720   4.550  0.4968 -1.5248 -1.7501
12188TIP3    H258056   2.099   6.593   4.618  0.6641 -0.0547  1.0643
12189TIP3   OH258057   1.779   3.712   3.101 -1.2194 -0.5376 -0.0750
12189TIP3    H158058   1.789   3.770   3.176 -1.1663 -2.3403  1.4081
12189TIP3    H258059   1.762   3.770   3.027 -0.7257  1.3500  1.2193
12190TIP3   OH258060   5.205   1.153  16.797  0.5650 -0.6040 -0.1212
12190TIP3    H158061   5.231   1.241  16.768 -1.5911  0.1326 -0.0237
12190TIP3    H258062   5.280   1.121  16.847  0.2139  2.5955  2.8197
12191TIP3   OH258063   6.286   4.480   7.066  0.0954 -0.0400 -0.2658
12191TIP3    H158064   6.260   4.427   6.991 -0.3589 -0.9979  0.5522
12191TIP3    H258065   6.368   4.521   7.039 -0.2013 -0.1649 -1.3786
12192TIP3   OH258066   0.545   0.574   4.000  0.2204 -0.4912 -0.5519
12192TIP3    H158067   0.469   0.525   4.031 -1.6930  2.8281  0.6080
12192TIP3    H258068   0.598   0.589   4.078 -0.3737  0.9923 -0.3885
12193TIP3   OH258069   3.905   0.549  15.775 -0.2377 -0.1364 -0.0899
12193TIP3    H158070   3.841   0.619  15.790 -0.3182 -0.4712  1.2407
12193TIP3    H258071   3.919   0.549  15.680 -0.4510  1.4839 -0.1444
12194TIP3   OH258072   3.900   2.220   2.688  0.7091 -0.3018 -0.0617
12194TIP3    H158073   3.919   2.231   2.781  0.2838  0.4232 -0.0481
12194TIP3    H258074   3.986   2.213   2.646  0.8998 -0.7162  0.3908
12195TIP3   OH258075   5.157   1.115  15.125  0.3352  0.2263  0.1124
12195TIP3    H158076   5.217   1.082  15.192  0.1312 -0.4747 -0.0433
12195TIP3    H258077   5.090   1.048  15.117 -0.3531  0.9031  0.1242
12196TIP3   OH258078   4.080   3.878   4.391  0.0076  0.2023  0.1904
12196TIP3    H158079   4.111   3.965   4.415 -0.6886  0.4177  0.3327
12196TIP3    H258080   4.108   3.867   4.300 -1.3094  1.2617 -0.3807
12197TIP3   OH258081   0.907   5.189  16.862  0.4443  0.1625  0.4488
12197TIP3    H158082   0.933   5.133  16.789  0.2911 -1.9133  1.9091
12197TIP3    H258083   0.914   5.133  16.939 -0.6684  1.8901  1.8881
12198TIP3   OH258084   6.821   0.733   0.414 -0.1172 -0.3907  0.5260
12198TIP3    H158085   6.756   0.677   0.458 -0.4939  1.0107  1.8421
12198TIP3    H258086   6.905   0.689   0.429 -0.3748 -0.5037  1.7529
12199TIP3   OH258087   5.607   4.801  16.409  0.3717  0.1141 -0.0993
12199TIP3    H158088   5.651   4.718  16.427  1.1042  0.2495 -1.1649
12199TIP3    H258089   5.559   4.784  16.327 -0.1966  0.4802  0.1531
12200TIP3   OH258090   1.242   2.807  15.348  0.4053 -0.3302 -0.3053
12200TIP3    H158091   1.231   2.898  15.323  0.5431 -0.5390 -1.1489
12200TIP3    H258092   1.166   2.787  15.403 -1.1151 -0.4841 -2.3605
12201TIP3   OH258093   4.965   1.755   5.448  0.3504 -0.6924  0.5832
12201TIP3    H158094   5.025   1.696   5.403 -1.0255 -2.1105  0.5319
12201TIP3    H258095   5.013   1.781   5.527 -0.0843 -4.3981  2.2494
12202TIP3   OH258096   0.082   6.707   4.397  0.1907 -0.4086 -0.1058
12202TIP3    H158097   0.014   6.701   4.464 -1.0679 -0.8016 -1.3602
12202TIP3    H258098   0.048   6.769   4.333  1.0349 -0.5775 -0.7458
12203TIP3   OH258099   5.719   4.215   2.077  0.4422 -0.9452  0.2727
12203TIP3    H158100   5.801   4.166   2.088  0.6183 -0.7512 -0.1251
12203TIP3    H258101   5.681   4.220   2.164  1.0922 -0.6269  0.5428
12204TIP3   OH258102   4.548   5.110   3.481 -0.7350  0.0269  0.0057
12204TIP3    H158103   4.475   5.076   3.430  0.1579  2.2579 -3.0000
12204TIP3    H258104   4.602   5.158   3.418  1.7215  1.0465  2.6589
12205TIP3   OH258105   3.101   2.080   5.614 -0.2781  0.0972 -0.2843
12205TIP3    H158106   3.151   2.056   5.692  1.2909  1.2316 -0.8954
12205TIP3    H258107   3.044   2.151   5.643 -0.8818 -0.5643  0.1885
12206TIP3   OH258108   0.789   6.840   3.983 -0.6103 -0.0320  0.1192
12206TIP3    H158109   0.736   6.914   4.014 -0.9993 -0.5564  0.7480
12206TIP3    H258110   0.880   6.871   3.991 -0.7678  0.3872  0.3480
12207TIP3   OH258111   2.305   5.369  15.046  0.2417 -0.0566 -0.0576
12207TIP3    H158112   2.361   5.367  14.968 -0.6340  1.0122 -0.7511
12207TIP3    H258113   2.365   5.385  15.119  0.7412  2.8080 -0.9689
12208TIP3   OH258114   4.619   4.294   3.526 -0.2909  0.3203  0.1384
12208TIP3    H158115   4.551   4.278   3.591 -1.7129  0.9357 -1.1562
12208TIP3    H258116   4.658   4.208   3.511  0.5171  0.2671  2.2386
12209TIP3   OH258117   1.822   4.963   1.213 -0.2696 -0.1002 -0.4782
12209TIP3    H158118   1.874   4.908   1.272 -0.7710 -2.1026 -1.8028
12209TIP3    H258119   1.731   4.946   1.239 -0.3954  1.3150  0.0813
12210TIP3   OH258120   3.058   5.887  14.490  0.4686  0.1932  0.0625
12210TIP3    H158121   3.093   5.902  14.402  0.3713  0.3855  0.0553
12210TIP3    H258122   3.080   5.967  14.538  0.3199  0.1831  0.1473
12211TIP3   OH258123   3.467   2.259   2.158  0.1510  0.4686  0.2110
12211TIP3    H158124   3.391   2.216   2.197 -0.0332 -0.4327 -1.0985
12211TIP3    H258125   3.505   2.193   2.100  1.4711  1.1749  0.2332
12212TIP3   OH258126   4.618   2.879   4.665 -0.3352  0.3131 -0.3936
12212TIP3    H158127   4.564   2.832   4.602  0.1509 -0.5136 -0.2060
12212TIP3    H258128   4.694   2.909   4.615 -0.3644  0.3996 -0.3861
12213TIP3   OH258129   4.366   0.352  15.636 -0.6550  0.3931  0.2558
12213TIP3    H158130   4.436   0.391  15.688 -1.0456  0.1000  1.0146
12213TIP3    H258131   4.350   0.267  15.677  0.2291 -0.6348 -1.3996
12214TIP3   OH258132   0.708   4.723  16.396  0.3215 -0.0474 -0.4552
12214TIP3    H158133   0.722   4.685  16.483  0.6465  0.1792 -0.4061
12214TIP3    H258134   0.698   4.817  16.412 -0.3608 -0.0908 -0.5905
12215TIP3   OH258135   1.330   1.051  16.735  0.2523  0.3565  0.3142
12215TIP3    H158136   1.267   0.981  16.715  0.7705  0.2654 -1.0995
12215TIP3    H258137   1.411   1.022  16.693  0.4000  1.9277 -0.5508
12216TIP3   OH258138   2.935   1.972  16.230 -0.7646  0.1538 -0.0008
12216TIP3    H158139   2.930   2.023  16.311 -1.9089 -0.1139  0.1213
12216TIP3    H258140   2.913   2.035  16.161 -2.7681 -0.2447  0.2058
12217TIP3   OH258141   2.547   4.929   4.679 -0.3501  0.4479 -0.1021
12217TIP3    H158142   2.470   4.943   4.624 -1.1049 -1.1197  0.5002
12217TIP3    H258143   2.608   4.997   4.652 -1.3629  0.7951 -1.6573
12218TIP3   OH258144   0.642   1.839  15.508 -0.2711  0.4899  0.2534
12218TIP3    H158145   0.569   1.900  15.501 -1.2898 -0.7743 -0.8930
12218TIP3    H258146   0.613   1.763  15.457  1.6958 -0.1993  0.1046
12219TIP3   OH258147   4.831   5.371  11.404  0.8111  0.2622  0.4613
12219TIP3    H158148   4.842   5.276  11.401  1.4504  0.2951  1.3579
12219TIP3    H258149   4.830   5.392  11.498 -1.0647  0.9541  0.3158
12220TIP3   OH258150   0.184   4.619  14.641  0.2020 -0.3813 -0.3729
12220TIP3    H158151   0.123   4.553  14.675  0.6163 -0.6305 -0.0975
12220TIP3    H258152   0.128   4.686  14.603 -0.2005 -1.6895 -2.1941
12221TIP3   OH258153   2.332   1.658  13.934 -0.3313 -0.6782 -0.4195
12221TIP3    H158154   2.277   1.710  13.876  0.2733  0.4555  0.0115
12221TIP3    H258155   2.356   1.716  14.006  1.3779 -1.1339 -0.5585
12222TIP3   OH258156   6.243   3.297  12.744 -0.6522 -0.6648  0.2586
12222TIP3    H158157   6.249   3.312  12.838  1.1506 -0.5044  0.1561
12222TIP3    H258158   6.219   3.204  12.736  0.9535 -1.1706  0.9063
12223TIP3   OH258159   6.066   4.563  12.002  0.5498 -0.7952  0.1360
12223TIP3    H158160   6.138   4.592  11.946  0.6646  0.1915  0.7742
12223TIP3    H258161   5.990   4.562  11.944  0.3507  1.6907  0.2487
12224TIP3   OH258162   1.602   0.226  14.928 -0.1372  0.5981 -0.4715
12224TIP3    H158163   1.511   0.196  14.939 -0.2314  1.0982  0.2281
12224TIP3    H258164   1.600   0.318  14.955  0.3065  1.0181 -1.7901
12225TIP3   OH258165   5.951   1.547  17.005 -0.0277  0.3547 -0.4456
12225TIP3    H158166   6.037   1.574  16.971 -0.0613 -0.9856 -1.6671
12225TIP3    H258167   5.903   1.630  17.015  0.5306  0.9516 -2.2381
12226TIP3   OH258168   3.006   0.632   0.249 -0.3330  0.0963  0.0267
12226TIP3    H158169   3.014   0.670   0.337 -1.3984  0.1202  0.1209
12226TIP3    H258170   3.027   0.540   0.261  0.4467  0.2801  0.1315
12227TIP3   OH258171   3.265   1.089   5.251 -0.1304  0.5245  0.4568
12227TIP3    H158172   3.233   1.162   5.304 -1.4875  1.5908 -1.6899
12227TIP3    H258173   3.338   1.125   5.200 -0.8253  0.4284 -0.6428
12228TIP3   OH258174   5.879   2.553   4.282  0.2299  0.0320  0.0938
12228TIP3    H158175   5.810   2.619   4.277  0.6816  0.5610  0.6659
12228TIP3    H258176   5.873   2.506   4.199  0.4042  1.3128 -0.6780
12229TIP3   OH258177   2.313   4.584  11.524  0.2193  0.2777 -0.4773
12229TIP3    H158178   2.399   4.571  11.562 -0.2820 -0.2254  0.5267
12229TIP3    H258179   2.319   4.669  11.479  1.1163  0.4254 -0.0910
12230TIP3   OH258180   1.609   6.280  16.858  0.0977 -0.5623 -0.1678
12230TIP3    H158181   1.558   6.355  16.887  0.3414 -0.6530  0.5119
12230TIP3    H258182   1.700   6.302  16.880 -0.0376 -2.0257  2.2973
12231TIP3   OH258183   3.220   1.336   0.805  0.0294  0.0698  0.0349
12231TIP3    H158184   3.152   1.378   0.859  1.6651  0.5534  1.8210
12231TIP3    H258185   3.250   1.263   0.859  0.3383 -0.6864 -1.1293
12232TIP3   OH258186   6.437   3.501   4.566 -0.3238 -0.1992 -0.1866
12232TIP3    H158187   6.403   3.510   4.477  0.6164  0.5133 -0.4919
12232TIP3    H258188   6.367   3.537   4.621  0.0560  1.6798 -0.8389
12233TIP3   OH258189   4.292   5.843  13.509 -0.4889 -1.3389  0.2829
12233TIP3    H158190   4.286   5.785  13.433  0.7495  1.2682 -1.9941
12233TIP3    H258191   4.384   5.870  13.511 -1.0790  0.8142  0.9612
12234TIP3   OH258192   2.131   3.340   6.028  0.0484  0.1448  0.2258
12234TIP3    H158193   2.095   3.360   5.942 -1.2499 -0.1628  0.6657
12234TIP3    H258194   2.169   3.252   6.018  0.2467  0.2713 -0.1321
12235TIP3   OH258195   1.837   2.258  13.416  0.2188 -0.4204  0.4651
12235TIP3    H158196   1.778   2.212  13.477  0.7747 -0.7227  0.7878
12235TIP3    H258197   1.881   2.187  13.369 -1.4760 -0.1970 -1.5725
12236TIP3   OH258198   1.281   5.637  14.541  0.0368  0.5551 -1.0032
12236TIP3    H158199   1.321   5.588  14.469 -0.4131 -0.8922 -0.3001
12236TIP3    H258200   1.319   5.599  14.620  0.6993  2.2810 -0.4295
12237TIP3   OH258201   5.749   5.196  14.403  0.3204  0.4324 -0.1992
12237TIP3    H158202   5.695   5.117  14.405  1.7137 -0.5660 -0.2872
12237TIP3    H258203   5.766   5.212  14.310  0.7139  0.3303 -0.1501
12238TIP3   OH258204   2.845   1.503   0.089 -0.4111  0.3042  0.0546
12238TIP3    H158205   2.780   1.433   0.090 -0.6825  0.5525 -0.2349
12238TIP3    H258206   2.823   1.557   0.165  0.0777 -0.1700  0.5508
12239TIP3   OH258207   2.884   3.627   4.200  0.2880  0.1763  0.1713
12239TIP3    H158208   2.802   3.616   4.248 -0.4843  1.0686 -0.8814
12239TIP3    H258209   2.861   3.610   4.109  1.1554  0.9469 -0.2062
12240TIP3   OH258210   5.033   2.732   4.529 -0.2023 -0.4685  0.0972
12240TIP3    H158211   5.063   2.796   4.594 -2.6097  0.3860  0.4646
12240TIP3    H258212   5.093   2.743   4.456 -0.4307  2.1499  0.2026
12241TIP3   OH258213   6.496   4.785  11.756 -0.0760  0.5803  0.8742
12241TIP3    H158214   6.590   4.796  11.750 -0.0516 -0.2355 -0.6435
12241TIP3    H258215   6.459   4.867  11.724  0.1289 -0.0141 -0.9533
12242TIP3   OH258216   1.110   4.711   1.510  0.0072  0.4237 -0.4788
12242TIP3    H158217   1.055   4.764   1.452 -1.9421  0.1568  1.0049
12242TIP3    H258218   1.063   4.710   1.594  1.9641 -0.4152  0.6932
12243TIP3   OH258219   4.335   5.967   0.828 -0.2679 -0.0383  0.6565
12243TIP3    H158220   4.243   5.959   0.805  0.1153 -0.5752 -0.8102
12243TIP3    H258221   4.357   6.058   0.807 -0.2593 -0.1501  0.1680
12244TIP3   OH258222   1.373   4.903  10.831  0.2523  0.1947 -0.7922
12244TIP3    H158223   1.363   4.885  10.737 -0.9760  2.2262 -1.1229
12244TIP3    H258224   1.393   4.997  10.834 -4.0359  1.2550  1.1028
12245TIP3   OH258225   3.001   0.407   4.396  0.5856 -0.1424 -0.1465
12245TIP3    H158226   2.969   0.472   4.459  2.1001  0.4972 -0.0047
12245TIP3    H258227   2.922   0.364   4.364 -0.2783  0.0982  1.5613
12246TIP3   OH258228   4.280   1.685  17.077  0.2043 -0.5581  0.2363
12246TIP3    H158229   4.368   1.704  17.044  0.1628  0.1451  0.5236
12246TIP3    H258230   4.234   1.768  17.071 -0.6557 -1.0738 -0.5399
12247TIP3   OH258231   5.327   5.215  15.736 -0.2134  0.1505 -0.0754
12247TIP3    H158232   5.274   5.268  15.797  0.2509 -1.1419  1.5265
12247TIP3    H258233   5.379   5.158  15.793  0.3276 -1.0571 -1.7041
12248TIP3   OH258234   4.536   1.258   3.710  0.1337 -0.2318 -0.0799
12248TIP3    H158235   4.538   1.349   3.741 -0.8668 -0.2784  0.1540
12248TIP3    H258236   4.600   1.213   3.764 -0.2049  0.0964  0.6004
12249TIP3   OH258237   6.370   3.721  11.909 -0.3366  0.1040 -0.2143
12249TIP3    H158238   6.306   3.688  11.972 -0.7302  0.7798 -0.2549
12249TIP3    H258239   6.337   3.807  11.883  0.4479  0.3507 -0.4376
12250TIP3   OH258240   6.021   6.341  15.792  0.0284  0.1451  0.1556
12250TIP3    H158241   6.046   6.271  15.731  0.4057  0.0090  0.4692
12250TIP3    H258242   6.035   6.304  15.879 -1.7841 -0.1402  0.3671
12251TIP3   OH258243   3.234   4.698   1.559 -0.5269  0.8383 -0.4841
12251TIP3    H158244   3.185   4.777   1.534  0.1579  1.1848 -0.7884
12251TIP3    H258245   3.208   4.632   1.495  1.0641  1.6639 -2.0663
12252TIP3   OH258246   1.050   2.363  11.923  0.4982 -0.7641 -0.3281
12252TIP3    H158247   1.048   2.377  12.017 -2.3443 -0.0054 -0.4062
12252TIP3    H258248   1.010   2.277  11.910  0.4527 -0.6680 -0.8540
12253TIP3   OH258249   5.248   4.606  12.489  0.3273  0.1429  0.1520
12253TIP3    H158250   5.219   4.524  12.449  1.2161  0.7715 -1.9207
12253TIP3    H258251   5.257   4.586  12.582  0.9979 -2.2365 -0.3702
12254TIP3   OH258252   6.776   3.249   1.183  0.5150 -0.2048 -0.5298
12254TIP3    H158253   6.751   3.317   1.245 -2.0932 -1.3740 -0.1897
12254TIP3    H258254   6.859   3.215   1.217  0.5489  1.0434  0.7140
12255TIP3   OH258255   5.393   1.722  12.332 -0.6116  0.4567 -0.1113
12255TIP3    H158256   5.399   1.730  12.237 -1.1258  1.4784 -0.0713
12255TIP3    H258257   5.478   1.755  12.364  0.5971 -2.2219 -0.2786
12256TIP3   OH258258   3.531   2.843  15.286 -0.0914  0.3811  1.0789
12256TIP3    H158259   3.497   2.932  15.295 -0.3720  0.4777 -0.5733
12256TIP3    H258260   3.620   2.847  15.322  0.4245  1.6970 -0.2662
12257TIP3   OH258261   1.830   6.805   1.897 -0.3022 -0.3302  0.7290
12257TIP3    H158262   1.905   6.764   1.853 -1.6182  0.7010 -2.8162
12257TIP3    H258263   1.792   6.735   1.950  2.3338 -1.2348  1.5546
12258TIP3   OH258264   5.216   1.385   2.537  0.3984 -0.0819 -0.9010
12258TIP3    H158265   5.244   1.341   2.618  1.4326 -0.7064 -1.5826
12258TIP3    H258266   5.121   1.377   2.538  0.2979  0.8351  0.7666
12259TIP3   OH258267   6.065   0.116  13.080  0.8920  0.6167  0.6680
12259TIP3    H158268   6.119   0.151  13.152  1.3113  0.1311  0.5960
12259TIP3    H258269   6.108   0.034  13.056 -0.1489 -0.0204  0.9097
12260TIP3   OH258270   4.080   5.971  13.347  0.6863 -0.4581  0.0541
12260TIP3    H158271   4.127   5.960  13.265 -0.5176 -2.5646 -0.4192
12260TIP3    H258272   4.144   5.948  13.415  1.8420  1.7909 -0.1883
12261TIP3   OH258273   3.043   4.005  11.094 -0.0749  0.9379 -0.0031
12261TIP3    H158274   3.016   3.914  11.080  1.3837  0.4597  0.0977
12261TIP3    H258275   3.131   4.010  11.057 -1.1971  3.1049 -2.6846
12262TIP3   OH258276   1.025   2.796   3.263 -0.1870 -0.3112 -0.0910
12262TIP3    H158277   1.044   2.712   3.221 -2.0021 -0.7975 -0.0453
12262TIP3    H258278   0.932   2.811   3.244  0.1414  1.8007 -0.2821
12263TIP3   OH258279   6.018   6.251   2.274  0.2515 -0.0991  0.3922
12263TIP3    H158280   6.028   6.344   2.253  0.7598 -0.1346  0.4778
12263TIP3    H258281   6.103   6.224   2.308  0.7125 -1.0302 -1.3378
12264TIP3   OH258282   0.120   6.404   2.895 -1.4514 -0.5449 -0.0642
12264TIP3    H158283   0.029   6.378   2.903 -1.0482 -2.1000 -0.2224
12264TIP3    H258284   0.140   6.394   2.802 -1.4154  0.8968 -0.2320
12265TIP3   OH258285   1.181   5.866   5.271 -0.0451  0.3239 -0.2689
12265TIP3    H158286   1.268   5.871   5.231 -0.6162  0.5815 -1.5533
12265TIP3    H258287   1.142   5.951   5.253  0.4677  1.3565  2.9198
12266TIP3   OH258288   5.736   1.114   0.286  0.0242 -0.2599  0.5471
12266TIP3    H158289   5.686   1.184   0.330 -1.2967  0.4499 -1.8883
12266TIP3    H258290   5.814   1.158   0.253  0.9257 -0.7532  1.9491
12267TIP3   OH258291   6.720   1.336  15.516 -0.2453 -0.0352 -0.0899
12267TIP3    H158292   6.625   1.347  15.519 -0.3835 -0.9634 -0.5154
12267TIP3    H258293   6.738   1.265  15.578 -0.0788 -1.1977 -1.4107
12268TIP3   OH258294   1.977   5.831   6.329  0.3162 -1.0931 -0.3529
12268TIP3    H158295   1.959   5.899   6.265  0.9720  0.1402  0.7147
12268TIP3    H258296   1.896   5.822   6.379  0.7610  0.2220  0.6531
12269TIP3   OH258297   6.310   6.697  13.185  0.2621 -0.1015  0.2004
12269TIP3    H158298   6.398   6.702  13.222  0.6974 -0.6376 -0.7227
12269TIP3    H258299   6.317   6.744  13.101  0.0960 -1.4624 -0.6129
12270TIP3   OH258300   5.982   4.837  14.269 -0.3115 -1.0694  0.2192
12270TIP3    H158301   5.942   4.755  14.298 -0.1747 -1.0831  0.3663
12270TIP3    H258302   5.982   4.892  14.348 -0.6562 -0.8303  0.0552
12271TIP3   OH258303   4.011   6.558  12.906 -0.2373 -0.0641  0.2626
12271TIP3    H158304   4.077   6.603  12.959  0.7967  1.7000 -2.3442
12271TIP3    H258305   4.059   6.527  12.829 -1.8459 -1.7545 -0.1294
12272TIP3   OH258306   4.722   1.843   2.009 -0.3585  0.4771 -0.0852
12272TIP3    H158307   4.674   1.766   2.040  2.5462 -1.9828 -1.1738
12272TIP3    H258308   4.721   1.835   1.914 -0.0082  1.8546 -0.2239
12273TIP3   OH258309   0.002   6.704  15.370 -0.3315 -0.4273  0.0559
12273TIP3    H158310  -0.080   6.659  15.350 -0.5575 -0.0001  0.0008
12273TIP3    H258311  -0.025   6.789  15.404  0.0484  1.0902 -3.0323
12274TIP3   OH258312   2.217   5.721  12.496 -0.0758 -0.5390 -0.7709
12274TIP3    H158313   2.262   5.757  12.419  1.4281  1.3673  0.8995
12274TIP3    H258314   2.287   5.678  12.546 -0.3260  1.1298  1.1166
12275TIP3   OH258315   5.488   4.579  10.938 -0.0858  0.2478  0.0766
12275TIP3    H158316   5.547   4.612  10.871  0.7170  0.0863  0.6864
12275TIP3    H258317   5.409   4.632  10.930 -0.1307  0.0248 -1.1932
12276TIP3   OH258318   5.140   3.337  14.143 -0.4088  0.3151 -0.0895
12276TIP3    H158319   5.161   3.369  14.056 -2.5375 -1.2155 -1.2523
12276TIP3    H258320   5.210   3.371  14.199  0.9871  1.3722 -2.3568
12277TIP3   OH258321   5.868   5.754   6.270  0.0419 -0.0166 -0.1711
12277TIP3    H158322   5.855   5.842   6.234 -0.0749 -0.3397 -0.9469
12277TIP3    H258323   5.930   5.767   6.342  1.2364  0.5076 -1.2283
12278TIP3   OH258324   4.858   1.947   5.255  0.0169  0.5058  0.2669
12278TIP3    H158325   4.850   1.886   5.182  0.0403  0.5253  0.2486
12278TIP3    H258326   4.903   1.897   5.323  1.0433  0.8489 -0.1408
12279TIP3   OH258327   5.244   6.697  11.548  0.1797  0.1549  0.0923
12279TIP3    H158328   5.299   6.729  11.477  0.9084 -0.2933  0.4394
12279TIP3    H258329   5.303   6.689  11.623 -0.3677 -0.3034  0.4898
12280TIP3   OH258330   5.594   3.507  10.479 -0.0737 -0.1412  0.2500
12280TIP3    H158331   5.649   3.570  10.432 -1.0350 -0.8428 -1.9487
12280TIP3    H258332   5.643   3.426  10.477  0.1918 -0.0045  1.1119
12281TIP3   OH258333   3.436   5.483  11.046  0.1450  0.0063  0.1141
12281TIP3    H158334   3.523   5.469  11.083 -0.5917 -0.1529  1.8537
12281TIP3    H258335   3.395   5.397  11.045 -0.5243  0.3003  0.7393
12282TIP3   OH258336   6.211   4.499   0.182  0.1378  0.4480 -0.3397
12282TIP3    H158337   6.128   4.480   0.139  1.5144 -0.0966 -2.9613
12282TIP3    H258338   6.230   4.590   0.159 -1.0267  1.6054  2.7279
12283TIP3   OH258339   5.518   3.897   0.363  0.0215 -0.5294 -0.5705
12283TIP3    H158340   5.604   3.893   0.321 -0.0728  1.9489 -1.1762
12283TIP3    H258341   5.537   3.913   0.455  0.2978  1.3815 -0.9058
12284TIP3   OH258342   2.067   0.337   2.504 -0.1477 -0.7100 -0.7434
12284TIP3    H158343   2.160   0.339   2.479 -0.1819 -0.2456 -0.8333
12284TIP3    H258344   2.063   0.274   2.577  0.6233  0.9714  0.8304
12285TIP3   OH258345   3.967   1.615  11.577  0.2715  0.4213 -0.1370
12285TIP3    H158346   3.946   1.575  11.492  0.6737  0.0526 -0.0690
12285TIP3    H258347   3.890   1.666  11.599 -0.6313 -1.0220  0.1793
12286TIP3   OH258348   5.367   1.858   2.825 -0.5093 -0.0002  0.3003
12286TIP3    H158349   5.358   1.877   2.732  0.3736 -1.2507 -0.0713
12286TIP3    H258350   5.278   1.839   2.855 -0.5824 -1.5102 -0.7552
12287TIP3   OH258351   3.575   4.924   1.244 -0.5376  0.3096  0.1733
12287TIP3    H158352   3.588   4.903   1.152 -0.5244 -0.8051  0.4195
12287TIP3    H258353   3.535   4.846   1.281  0.2512  0.4173  1.3005
12288TIP3   OH258354   5.808   5.345   1.025  0.2221 -0.0545  0.3208
12288TIP3    H158355   5.854   5.266   0.995 -0.9639 -0.9954  0.9165
12288TIP3    H258356   5.879   5.405   1.049  1.1541 -0.7803 -0.4995
12289TIP3   OH258357   0.512   6.293  13.289 -0.1616 -0.5346  0.1747
12289TIP3    H158358   0.570   6.302  13.213  0.2064  2.0080  0.6508
12289TIP3    H258359   0.562   6.331  13.362 -1.5672 -0.3565  1.0883
12290TIP3   OH258360   6.158   3.075  14.491  0.3013  0.5637  0.1252
12290TIP3    H158361   6.145   3.067  14.396  0.7682  0.2654  0.0854
12290TIP3    H258362   6.113   2.999  14.527  1.0319  0.0890  0.0606
12291TIP3   OH258363   4.538   2.304  14.777  0.3888 -0.0023 -0.1863
12291TIP3    H158364   4.478   2.348  14.838  0.0645 -1.0927  0.3047
12291TIP3    H258365   4.511   2.335  14.690 -0.4685  0.0147  0.0764
12292TIP3   OH258366   0.638   4.499  15.161  0.7204  0.5185  0.7916
12292TIP3    H158367   0.636   4.413  15.121  0.6071 -0.3898  2.6381
12292TIP3    H258368   0.547   4.530  15.157  0.9632  1.1084 -0.9252
12293TIP3   OH258369   3.833   0.535  14.770 -0.1169  0.0717 -0.5733
12293TIP3    H158370   3.857   0.470  14.703  2.2797  0.4584 -0.1720
12293TIP3    H258371   3.814   0.614  14.720 -0.6176 -0.2578 -0.9186
12294TIP3   OH258372   0.415   4.345  15.504  0.1665 -0.1599  0.1281
12294TIP3    H158373   0.439   4.437  15.506 -1.2440  0.2317  0.3433
12294TIP3    H258374   0.450   4.312  15.421  1.1303  0.4204  0.2885
12295TIP3   OH258375   1.105   1.956   5.375 -0.1488 -0.2347  0.2915
12295TIP3    H158376   1.064   1.878   5.337 -0.8074  1.0621 -1.8222
12295TIP3    H258377   1.040   1.990   5.437 -0.6126 -0.3957 -0.0991
12296TIP3   OH258378   3.779   5.161   0.574 -0.0026 -0.3878  0.5324
12296TIP3    H158379   3.715   5.110   0.624 -2.6988  2.3977  0.2042
12296TIP3    H258380   3.814   5.224   0.637  1.5805 -1.0672  0.3881
12297TIP3   OH258381   0.742   1.381   1.481 -0.3514 -0.0645 -0.3099
12297TIP3    H158382   0.742   1.467   1.524  0.3222  0.7700 -1.9019
12297TIP3    H258383   0.695   1.395   1.399 -1.8699 -1.6999  0.2041
12298TIP3   OH258384   6.683   3.858   3.527  1.0440  0.3148  0.3365
12298TIP3    H158385   6.590   3.851   3.505  1.1347 -0.5729  0.2009
12298TIP3    H258386   6.690   3.940   3.576  0.2489  0.5598  0.0504
12299TIP3   OH258387   5.286   3.599   2.941 -0.0404 -0.4613  0.1174
12299TIP3    H158388   5.300   3.507   2.962 -2.3554 -1.8662 -3.6511
12299TIP3    H258389   5.367   3.626   2.897  0.5821 -0.6492  1.0982
12300TIP3   OH258390   3.674   6.236  17.149  0.4175 -0.2230 -0.6877
12300TIP3    H158391   3.682   6.142  17.132 -2.8453 -1.1751  1.9790
12300TIP3    H258392   3.764   6.268  17.149  1.9170 -3.8963  0.8669
12301TIP3   OH258393   3.320   0.015   0.500  0.1103 -0.1720 -0.2164
12301TIP3    H158394   3.336   0.102   0.537 -0.0983  0.7036 -2.0891
12301TIP3    H258395   3.389  -0.040   0.538 -0.3714  0.5211  1.8005
12302TIP3   OH258396   4.358   2.220  13.596  0.4146  0.1514 -0.2628
12302TIP3    H158397   4.418   2.159  13.640 -0.8634  0.4911  2.1354
12302TIP3    H258398   4.288   2.164  13.563 -0.2002  0.1720  0.9613
12303TIP3   OH258399   5.478   2.651  11.230  0.1831 -0.2902  0.0877
12303TIP3    H158400   5.489   2.558  11.208  1.1385 -0.3148  0.6101
12303TIP3    H258401   5.387   2.658  11.258 -0.1800 -0.8692 -0.8793
12304TIP3   OH258402   1.859   4.744   1.845 -0.0690  0.4285 -0.4832
12304TIP3    H158403   1.886   4.829   1.879 -0.6924  0.2953  0.3961
12304TIP3    H258404   1.765   4.754   1.827 -0.5767 -0.5402  1.2936
12305TIP3   OH258405   2.167   5.913   4.001 -0.3989  0.0064 -0.3130
12305TIP3    H158406   2.108   5.838   3.994 -3.2681  2.0308  0.2393
12305TIP3    H258407   2.212   5.917   3.916 -0.4418 -2.0679 -0.4780
12306TIP3   OH258408   6.731   6.598   1.275  0.0514  0.3607 -0.4170
12306TIP3    H158409   6.777   6.522   1.239 -0.9019 -1.0215  1.1619
12306TIP3    H258410   6.761   6.671   1.221  3.4723 -0.5582 -0.0027
12307TIP3   OH258411   0.946   3.948   4.497 -0.6986 -0.3791 -0.9103
12307TIP3    H158412   0.872   3.940   4.558  0.2279 -2.4208  0.0411
12307TIP3    H258413   0.912   3.915   4.414 -1.9453  2.3403 -1.5836
12308TIP3   OH258414   2.651   5.517  14.560 -0.4962 -0.0652 -0.5719
12308TIP3    H158415   2.581   5.545  14.620 -0.4096  0.3070 -0.6393
12308TIP3    H258416   2.718   5.584  14.570  0.0550 -0.6709 -0.1566
12309TIP3   OH258417   4.003   0.629   4.380  0.5648 -0.0236  0.9950
12309TIP3    H158418   3.964   0.542   4.378 -3.7725  1.6419  1.7577
12309TIP3    H258419   3.998   0.660   4.289  1.1851 -0.1451  0.9091
12310TIP3   OH258420   6.664   1.554   2.434  0.3076  0.3607  0.2054
12310TIP3    H158421   6.759   1.560   2.448  0.3689  1.7085 -0.5783
12310TIP3    H258422   6.655   1.546   2.339 -0.3288 -1.1873  0.3831
12311TIP3   OH258423   4.939   4.424  11.938 -0.0629  0.4022 -0.0635
12311TIP3    H158424   4.961   4.517  11.926 -0.5564  0.5226 -0.0799
12311TIP3    H258425   4.985   4.379  11.868  0.7242  0.5486  0.3420
12312TIP3   OH258426   5.458   1.129   4.850  0.2719  0.1581 -0.4577
12312TIP3    H158427   5.439   1.042   4.885  1.0836 -0.3824 -1.3089
12312TIP3    H258428   5.470   1.115   4.756  0.3079  1.2083 -0.6233
12313TIP3   OH258429   2.293   2.882  15.536  0.1944  0.0070  0.0114
12313TIP3    H158430   2.362   2.946  15.554 -0.6147  0.8465  0.2516
12313TIP3    H258431   2.304   2.861  15.444  0.5628  0.3958 -0.0390
12314TIP3   OH258432   3.976   6.243   4.599 -0.2076 -0.2313 -0.0307
12314TIP3    H158433   3.916   6.318   4.611 -2.5082 -2.0030  0.3001
12314TIP3    H258434   3.928   6.169   4.635  2.8661 -1.5836  1.6007
12315TIP3   OH258435   4.828   6.734   5.755  0.1004  0.2836 -0.2086
12315TIP3    H158436   4.859   6.672   5.821 -3.5402 -0.2755  1.2341
12315TIP3    H258437   4.788   6.680   5.688  0.5172  0.9754 -1.0302
12316TIP3   OH258438   4.453   4.193   2.369  0.2739 -0.1239  0.0705
12316TIP3    H158439   4.533   4.171   2.320  0.3802 -0.4764  0.4023
12316TIP3    H258440   4.419   4.270   2.324  1.2066  0.4877  0.3805
12317TIP3   OH258441   0.171   0.748   1.441 -0.0847 -0.3829  0.0709
12317TIP3    H158442   0.118   0.813   1.394  2.2935  1.2056 -0.5796
12317TIP3    H258443   0.180   0.784   1.529  1.4749  0.4099 -0.3697
12318TIP3   OH258444   3.122   0.565  15.117 -0.0543  0.0750 -0.0900
12318TIP3    H158445   3.116   0.632  15.049  0.5711  1.2621  0.9806
12318TIP3    H258446   3.112   0.613  15.199 -1.4055 -1.3988  0.6729
12319TIP3   OH258447   4.354   5.965   4.774  0.0481  0.0253  0.2504
12319TIP3    H158448   4.398   5.879   4.773 -0.2009 -0.1081  0.7674
12319TIP3    H258449   4.330   5.980   4.683  1.4997  0.2716 -0.1322
12320TIP3   OH258450   3.236   0.298  15.339  0.0226 -0.0645  0.6741
12320TIP3    H158451   3.254   0.215  15.384 -0.7597 -0.5299  0.1513
12320TIP3    H258452   3.169   0.340  15.394 -0.7755 -0.5353  0.0856
12321TIP3   OH258453   2.078   3.175   0.913  0.5392 -0.3483  0.4931
12321TIP3    H158454   1.992   3.166   0.953  0.1993  0.1665 -0.0909
12321TIP3    H258455   2.115   3.087   0.914 -0.2009 -0.6689  0.2941
12322TIP3   OH258456   0.285   2.411   4.197 -0.3535 -0.2033 -0.5681
12322TIP3    H158457   0.210   2.412   4.137 -0.3239 -2.3938 -0.7371
12322TIP3    H258458   0.260   2.348   4.264  0.2129  1.1530  0.9665
12323TIP3   OH258459   2.050   1.996   0.471  0.2282  0.0040  0.1740
12323TIP3    H158460   2.043   2.085   0.504 -0.1340 -0.6108  1.8504
12323TIP3    H258461   1.963   1.959   0.482  0.8710 -1.2037  1.5479
12324TIP3   OH258462   1.870   4.712  11.307  0.5244  0.2540 -0.1023
12324TIP3    H158463   1.819   4.793  11.314  0.3348  0.0660  0.9268
12324TIP3    H258464   1.949   4.738  11.259  1.8134  1.7849  2.5476
12325TIP3   OH258465   6.075   0.677   4.378  0.7138 -0.3467 -0.0977
12325TIP3    H158466   6.170   0.680   4.367  0.7468 -0.3983  0.1679
12325TIP3    H258467   6.060   0.702   4.469  0.4454  0.0569 -0.2470
12326TIP3   OH258468   3.607   4.046   3.967  0.2895  0.1010 -0.2100
12326TIP3    H158469   3.536   4.105   3.990 -0.3469 -0.7186 -0.0344
12326TIP3    H258470   3.564   3.971   3.926  1.2360  0.6163 -2.2716
12327TIP3   OH258471   2.992   4.012   4.606  0.0296 -0.0022  0.0588
12327TIP3    H158472   3.017   3.996   4.515 -0.7564 -0.3712 -0.0947
12327TIP3    H258473   2.936   4.090   4.603  2.3599  1.8301  0.5917
12328TIP3   OH258474   5.227   4.530  16.925  0.2089 -0.0497  0.5846
12328TIP3    H158475   5.150   4.496  16.970 -0.2581 -0.4844 -0.5146
12328TIP3    H258476   5.295   4.465  16.941 -0.4249 -1.0878 -0.7330
12329TIP3   OH258477   3.430   4.933  12.407 -0.3179  0.6574 -0.3337
12329TIP3    H158478   3.446   4.861  12.347 -0.8979  1.1428 -1.0934
12329TIP3    H258479   3.456   4.899  12.493 -0.3600 -0.3686 -0.7108
12330TIP3   OH258480   2.164   1.951   1.258 -0.6087 -0.1429  0.0851
12330TIP3    H158481   2.157   2.023   1.321  0.1416 -2.6248  3.2198
12330TIP3    H258482   2.081   1.904   1.266 -0.4708 -0.5554 -0.7732
12331TIP3   OH258483   5.951   0.454  15.355 -0.0372 -0.2569  0.7125
12331TIP3    H158484   5.859   0.430  15.353  0.3332 -1.9391  1.5599
12331TIP3    H258485   5.978   0.454  15.263 -1.1726  1.6961  0.3301
12332TIP3   OH258486   5.420   1.799  15.231 -0.2865  0.0693  0.1977
12332TIP3    H158487   5.426   1.872  15.169 -0.1717  0.4706  0.6791
12332TIP3    H258488   5.403   1.722  15.176 -2.2012  0.7046 -0.1822
12333TIP3   OH258489   3.908   3.186  12.552  0.3378 -0.0494  0.2453
12333TIP3    H158490   3.886   3.279  12.542 -0.8077 -0.2517  0.7297
12333TIP3    H258491   3.828   3.146  12.586  0.1032 -1.6009 -1.9640
12334TIP3   OH258492   2.565   1.316   0.886 -0.4890 -0.2439  0.1963
12334TIP3    H158493   2.607   1.231   0.873 -1.1068 -0.3452 -1.2970
12334TIP3    H258494   2.629   1.380   0.856 -0.2486 -0.1963  0.7840
12335TIP3   OH258495   0.710   1.612   3.413  0.0201  0.1411 -0.2179
12335TIP3    H158496   0.622   1.575   3.402  0.3537 -1.5686  2.1997
12335TIP3    H258497   0.765   1.561   3.354 -0.6302  1.7817 -2.3999
12336TIP3   OH258498   4.904   1.562   4.123  0.2073 -0.0148  0.2696
12336TIP3    H158499   4.968   1.497   4.150 -2.0452 -2.8231 -0.6319
12336TIP3    H258500   4.865   1.593   4.205  0.3446 -0.8780  0.6680
12337TIP3   OH258501   3.336   0.351  13.721  0.5313 -0.1406  0.0148
12337TIP3    H158502   3.381   0.386  13.798 -1.1930  1.1792  0.4721
12337TIP3    H258503   3.281   0.280  13.755  0.8872 -0.5495 -0.2533
12338TIP3   OH258504   5.190   1.894   5.063 -0.0370  0.3418 -0.2234
12338TIP3    H158505   5.210   1.844   5.142  1.5908  0.1331 -0.7230
12338TIP3    H258506   5.102   1.867   5.039 -0.5399  0.3592  1.4735
12339TIP3   OH258507   0.917   4.830   4.596 -0.3266  0.2598 -0.7539
12339TIP3    H158508   0.844   4.769   4.607  0.6026 -0.7344  0.2523
12339TIP3    H258509   0.877   4.916   4.590 -1.5515 -0.1525  0.7929
12340TIP3   OH258510   4.594   5.825   4.227  0.2595  0.7931 -0.7146
12340TIP3    H158511   4.618   5.795   4.139  0.6768 -0.8076 -0.1041
12340TIP3    H258512   4.571   5.917   4.216  0.6822  0.7308 -2.4256
12341TIP3   OH258513   2.442   4.936  13.561  0.3084 -0.0381 -0.2125
12341TIP3    H158514   2.460   4.909  13.651  0.1993  0.5356 -0.0145
12341TIP3    H258515   2.499   4.881  13.508 -0.4533 -1.1843  0.1233
12342TIP3   OH258516   2.191   2.099  14.762  0.1686  0.5852  0.1209
12342TIP3    H158517   2.283   2.108  14.738  0.4883  3.4924  1.9690
12342TIP3    H258518   2.193   2.057  14.848 -0.1001  1.7875  0.7374
12343TIP3   OH258519   5.292   3.044  13.760 -0.0358  0.3089 -0.2351
12343TIP3    H158520   5.318   2.965  13.713  0.1754 -2.5326  4.1045
12343TIP3    H258521   5.373   3.095  13.770  0.7246 -0.9549  0.2593
12344TIP3   OH258522   1.819   0.296   5.381  0.1560  0.4482 -0.6191
12344TIP3    H158523   1.777   0.381   5.369 -1.0136  0.2023  1.3039
12344TIP3    H258524   1.911   0.311   5.358 -0.2063  2.0056 -1.1544
12345TIP3   OH258525   3.625   1.219  16.670  0.0172 -0.5261  0.5097
12345TIP3    H158526   3.667   1.184  16.591 -2.7141 -3.5238  0.1651
12345TIP3    H258527   3.555   1.275  16.637  1.0060  1.0567  0.9817
12346TIP3   OH258528   2.785   6.840   5.773  0.0255 -0.4937  0.4484
12346TIP3    H158529   2.714   6.799   5.724 -1.3884  0.4207  1.6617
12346TIP3    H258530   2.840   6.767   5.801 -1.3670 -1.3839  0.9236
12347TIP3   OH258531   5.601   4.893   0.285 -0.5432  0.3127 -0.0220
12347TIP3    H158532   5.589   4.982   0.320 -0.6040  0.2155  0.2033
12347TIP3    H258533   5.567   4.898   0.195 -2.4518 -0.0005  0.6404
12348TIP3   OH258534   0.494   6.204  13.603  0.2842 -0.6290 -0.5420
12348TIP3    H158535   0.533   6.151  13.534  0.0685  0.3679 -1.4526
12348TIP3    H258536   0.525   6.293  13.586 -2.8480  0.3551 -1.7345
12349TIP3   OH258537   5.044   6.060  13.765  0.7743  0.4856 -0.0791
12349TIP3    H158538   5.098   5.985  13.738  1.2028  1.3800 -1.9039
12349TIP3    H258539   5.090   6.096  13.841  1.5906 -0.0098 -0.3210
12350TIP3   OH258540   5.045   0.505  11.556 -0.0807 -0.1610  0.0009
12350TIP3    H158541   5.045   0.599  11.536  1.2138 -0.0053  0.6963
12350TIP3    H258542   5.078   0.499  11.645 -2.2099 -1.1441  0.7832
12351TIP3   OH258543   1.697   1.071  10.657 -0.0874 -0.8168 -0.2640
12351TIP3    H158544   1.743   0.993  10.689 -0.5148 -1.2611 -0.7189
12351TIP3    H258545   1.765   1.122  10.612  0.2248 -0.8493  0.1656
12352TIP3   OH258546   1.442   2.664  10.547  0.2635 -0.0261  0.3232
12352TIP3    H158547   1.471   2.640  10.459 -0.9863 -0.6590  0.0603
12352TIP3    H258548   1.404   2.583  10.582 -2.5160  1.0573  0.0792
12353TIP3   OH258549   0.966   3.644   1.252 -0.7243  0.5604  0.2321
12353TIP3    H158550   1.002   3.661   1.165 -1.1281 -0.3012 -0.1098
12353TIP3    H258551   0.873   3.630   1.237 -1.1038  2.1069  1.0282
12354TIP3   OH258552   6.440   4.877   1.850 -0.2073  0.3927  0.4711
12354TIP3    H158553   6.366   4.850   1.905 -0.2260 -0.1554  0.1889
12354TIP3    H258554   6.481   4.795   1.824  1.8782  0.7323  2.4535
12355TIP3   OH258555   1.169   6.104  16.365 -0.1738 -0.2082  0.1585
12355TIP3    H158556   1.264   6.104  16.351  0.0080 -1.0267  1.2436
12355TIP3    H258557   1.145   6.196  16.368  0.8623  0.0533  1.4951
12356TIP3   OH258558   1.201   5.035  10.269  0.4952  0.4461 -0.1677
12356TIP3    H158559   1.146   4.995  10.335  2.4033 -1.1066  0.5891
12356TIP3    H258560   1.273   4.974  10.257  0.1198  0.4749 -3.9402
12357TIP3   OH258561   5.037   3.084   0.529  0.2008  0.0606 -0.4252
12357TIP3    H158562   5.027   3.179   0.524 -0.3990  0.0134 -0.2278
12357TIP3    H258563   4.980   3.051   0.460  0.4005 -0.1544 -0.4849
12358TIP3   OH258564   5.305   3.186   4.908 -0.1982  0.1383 -0.1169
12358TIP3    H158565   5.307   3.164   5.002 -0.6637  0.4300 -0.0386
12358TIP3    H258566   5.250   3.119   4.869  0.2206 -0.1454 -0.2286
12359TIP3   OH258567   6.657   6.722   0.124  0.0060  0.2023 -0.5899
12359TIP3    H158568   6.684   6.814   0.121  2.7330 -0.5522 -1.5521
12359TIP3    H258569   6.577   6.719   0.072 -0.0885  2.0161 -0.5972
12360TIP3   OH258570   0.045   4.234   0.970  0.6589  0.5214  0.2276
12360TIP3    H158571   0.083   4.322   0.965  1.9805 -0.0022  0.5188
12360TIP3    H258572   0.120   4.177   0.992 -0.6496 -0.2867  3.1599
12361TIP3   OH258573   0.894   4.362  13.886  0.2898  0.0649 -0.4051
12361TIP3    H158574   0.852   4.348  13.800 -0.8212 -0.8572  0.2524
12361TIP3    H258575   0.829   4.331  13.949 -0.1671  3.5039  0.9900
12362TIP3   OH258576   3.739   0.087   4.559  0.0474  0.7420  0.1519
12362TIP3    H158577   3.716   0.053   4.472  0.6767  0.2250  0.1805
12362TIP3    H258578   3.814   0.034   4.586  1.3202  2.3990  0.0365
12363TIP3   OH258579   0.514   3.191   3.708  0.2930 -0.3894 -0.2984
12363TIP3    H158580   0.584   3.257   3.706  1.8773 -2.0228 -0.7781
12363TIP3    H258581   0.437   3.240   3.736  1.7696  1.3262  1.0179
12364TIP3   OH258582   2.393   2.191  10.972 -0.6916  0.6402 -0.3864
12364TIP3    H158583   2.318   2.248  10.953 -0.6573  0.4368 -1.1657
12364TIP3    H258584   2.463   2.224  10.916 -0.8846 -0.6041 -1.4059
12365TIP3   OH258585   1.760   0.441  12.950 -0.2233 -0.2883 -0.1779
12365TIP3    H158586   1.670   0.469  12.963 -0.0136  0.7357 -0.8120
12365TIP3    H258587   1.787   0.483  12.868  1.4196  0.9588  0.9347
12366TIP3   OH258588   4.041   1.185   0.929  0.3928 -0.9743 -0.4169
12366TIP3    H158589   4.038   1.108   0.985  1.1920  0.8040  2.2631
12366TIP3    H258590   3.958   1.229   0.945  0.8492 -0.1813 -0.1931
12367TIP3   OH258591   0.068   3.789  11.456  0.3103 -0.0476 -0.6901
12367TIP3    H158592  -0.010   3.817  11.503  0.8992 -0.6296  0.6764
12367TIP3    H258593   0.067   3.840  11.375 -1.9146 -0.6370 -1.1081
12368TIP3   OH258594   4.997   1.167   2.247 -0.1638  0.2221  0.3247
12368TIP3    H158595   4.991   1.214   2.163 -0.7813  1.6302  1.1279
12368TIP3    H258596   5.070   1.106   2.234  0.1760  0.8571 -1.0209
12369TIP3   OH258597   2.937   0.403   3.862 -0.1124 -0.1222  0.2319
12369TIP3    H158598   2.862   0.361   3.820  1.2487  0.2336 -2.8996
12369TIP3    H258599   2.979   0.452   3.791  1.9577  1.3238  2.3052
12370TIP3   OH258600   0.441   0.596  14.917  0.3705  0.4660 -0.5369
12370TIP3    H158601   0.348   0.590  14.939 -0.2688  3.9082 -1.6515
12370TIP3    H258602   0.446   0.571  14.825  0.8921 -1.3067 -0.0658
12371TIP3   OH258603   1.750   1.215   1.389 -0.2855 -0.4072  0.2985
12371TIP3    H158604   1.803   1.142   1.421  0.2542 -0.4670 -0.7101
12371TIP3    H258605   1.661   1.179   1.383  0.1743 -1.3776 -1.3495
12372TIP3   OH258606   6.382   0.057  13.886 -0.0685 -0.0157 -0.0511
12372TIP3    H158607   6.346  -0.028  13.859  0.8895 -0.3939 -0.1953
12372TIP3    H258608   6.429   0.038  13.967  1.3216  0.0724 -0.8047
12373TIP3   OH258609   3.558   2.437  15.264 -0.0402 -0.0100  0.8361
12373TIP3    H158610   3.587   2.503  15.327 -0.2027  1.0320 -0.1431
12373TIP3    H258611   3.638   2.407  15.221  0.1336 -1.1316  1.8949
12374TIP3   OH258612   2.988   3.696   6.058 -0.3372  0.0318  0.2841
12374TIP3    H158613   2.941   3.695   6.141  0.2195  0.8537  0.6227
12374TIP3    H258614   3.054   3.764   6.069 -0.6707  0.6005 -1.0573
12375TIP3   OH258615   5.212   2.583  11.322 -0.2380 -0.1811 -0.1307
12375TIP3    H158616   5.146   2.581  11.252  0.2794  0.5350 -0.6580
12375TIP3    H258617   5.192   2.663  11.371  0.3866  0.1711 -0.4471
12376TIP3   OH258618   4.566   6.001  16.119 -0.2682 -0.1277 -0.0613
12376TIP3    H158619   4.614   5.945  16.058 -0.6978  0.3567 -0.8566
12376TIP3    H258620   4.474   5.981  16.103 -0.3862 -0.0442  0.4797
12377TIP3   OH258621   2.994   5.076  14.956  0.3222 -0.2019 -0.2552
12377TIP3    H158622   3.074   5.080  15.009  0.8454 -1.5961 -0.8901
12377TIP3    H258623   3.025   5.060  14.867 -0.6149  0.7561 -0.7757
12378TIP3   OH258624   2.612   5.352   4.381  0.5878  0.5326  0.0524
12378TIP3    H158625   2.549   5.399   4.327  0.2702  0.8428  0.6740
12378TIP3    H258626   2.694   5.400   4.372  0.6186  0.3900 -0.4094
12379TIP3   OH258627   3.487   6.546  11.125  0.5031  0.3550  0.1570
12379TIP3    H158628   3.533   6.545  11.041  2.4083  4.6391  0.8842
12379TIP3    H258629   3.553   6.520  11.189  0.2980  1.0787  0.6780
12380TIP3   OH258630   2.108   6.134   6.576 -0.0458 -0.3266 -0.3052
12380TIP3    H158631   2.093   6.070   6.645  1.1093 -1.4615 -1.0456
12380TIP3    H258632   2.086   6.219   6.615  0.0079 -1.0050  1.2430
12381TIP3   OH258633   5.333   1.055  12.410  0.1724 -0.1665 -0.2250
12381TIP3    H158634   5.281   0.999  12.353 -1.5738  0.4296  0.7201
12381TIP3    H258635   5.363   1.125  12.353  0.1170 -0.6179 -0.8270
12382TIP3   OH258636   1.730   1.937  15.534 -0.4279 -0.0160  0.1519
12382TIP3    H158637   1.666   1.999  15.500  0.3157  0.7613  0.1490
12382TIP3    H258638   1.677   1.870  15.577 -1.2481  0.5305  0.0211
12383TIP3   OH258639   0.078   5.161   3.646  0.2967 -0.0925  0.1388
12383TIP3    H158640   0.154   5.203   3.606  0.0788  0.3228  0.1620
12383TIP3    H258641   0.058   5.214   3.723 -1.1224  0.8987 -0.8466
12384TIP3   OH258642   4.133   2.587   2.163 -0.1161  0.0315  0.1681
12384TIP3    H158643   4.149   2.652   2.095  2.2626  1.5661  2.0060
12384TIP3    H258644   4.130   2.637   2.245  2.0963 -2.0975  1.7117
12385TIP3   OH258645   6.473   2.768  15.480  0.4756  0.3705 -0.8469
12385TIP3    H158646   6.383   2.734  15.481  1.1897 -1.6298 -0.4612
12385TIP3    H258647   6.495   2.779  15.572  1.6546 -2.2122 -0.7332
12386TIP3   OH258648   5.936   2.378   3.693  0.4080  0.4582 -0.0435
12386TIP3    H158649   5.983   2.391   3.611 -0.0788  0.3444 -0.3485
12386TIP3    H258650   5.905   2.465   3.718 -0.8999  0.2537 -0.8834
12387TIP3   OH258651   3.532   4.006   5.378 -0.1986 -0.2377  0.0381
12387TIP3    H158652   3.623   4.034   5.367 -0.4981  1.2496  0.9717
12387TIP3    H258653   3.487   4.038   5.299 -0.1625  0.2453  0.2092
12388TIP3   OH258654   1.168   0.839   2.375  0.1509  0.1643  0.2275
12388TIP3    H158655   1.174   0.750   2.340  0.7158  0.6592 -0.9769
12388TIP3    H258656   1.091   0.876   2.332  0.4457  0.5519  0.0317
12389TIP3   OH258657   4.878   2.602  14.592  0.1328 -0.5044 -0.6374
12389TIP3    H158658   4.918   2.688  14.576  0.6169 -0.3322  1.3057
12389TIP3    H258659   4.952   2.545  14.614 -0.5293 -0.1234  3.2492
12390TIP3   OH258660   6.764   5.061  12.573  0.6389 -0.3778 -0.4294
12390TIP3    H158661   6.728   5.021  12.652 -0.2125 -0.3464 -0.7868
12390TIP3    H258662   6.802   4.989  12.524  0.1341 -0.5742 -0.5341
12391TIP3   OH258663   2.800   0.696  12.156 -0.3464 -0.5133  0.2369
12391TIP3    H158664   2.862   0.756  12.115 -0.2217 -1.3664 -0.8325
12391TIP3    H258665   2.723   0.698  12.099 -1.0906  0.0506  1.2087
12392TIP3   OH258666   6.423   5.056   6.490  0.3579  0.2441 -0.2340
12392TIP3    H158667   6.398   5.147   6.507  1.5964  1.0292 -2.2691
12392TIP3    H258668   6.516   5.052   6.512  0.0703 -0.8609  0.8836
12393TIP3   OH258669   6.474   1.916   3.811  0.1529 -0.0967  0.5337
12393TIP3    H158670   6.413   1.984   3.839  0.5862  1.4896 -1.9945
12393TIP3    H258671   6.557   1.962   3.799  0.0392 -0.5341 -2.9865
12394TIP3   OH258672   5.814   0.575   3.641  0.2667  0.2042  0.1838
12394TIP3    H158673   5.738   0.627   3.666 -0.1058 -0.5761  0.7051
12394TIP3    H258674   5.820   0.584   3.546 -0.4248  0.3432  0.1532
12395TIP3   OH258675   3.407   0.894   3.511 -0.4683 -1.2185 -0.0758
12395TIP3    H158676   3.345   0.852   3.451 -1.0880  0.4867 -0.6676
12395TIP3    H258677   3.443   0.967   3.462 -1.3316  0.5265  1.7215
12396TIP3   OH258678   2.360   0.586  11.834 -0.7228 -0.0451 -0.2395
12396TIP3    H158679   2.305   0.662  11.855 -1.8917 -0.4580 -1.6514
12396TIP3    H258680   2.404   0.565  11.916 -2.5427  0.4210  0.9005
12397TIP3   OH258681   2.534   0.868   6.408  0.2475  0.4285  0.5347
12397TIP3    H158682   2.446   0.832   6.411  0.0418  0.8365 -0.4045
12397TIP3    H258683   2.575   0.827   6.331  1.3611 -0.8155  1.7256
12398TIP3   OH258684   6.243   6.465  12.745  0.3558 -0.5059 -0.3707
12398TIP3    H158685   6.260   6.463  12.651  0.0035 -1.6267 -0.4235
12398TIP3    H258686   6.159   6.420  12.755 -0.0178  0.3461  0.3976
12399TIP3   OH258687   4.879   5.137   6.476  0.5549 -0.6439 -0.2974
12399TIP3    H158688   4.969   5.105   6.467  0.8891 -0.0882  0.8759
12399TIP3    H258689   4.883   5.227   6.443  0.8143 -0.0768  1.1938
12400TIP3   OH258690   4.339   6.603   2.426 -0.3779 -0.4468 -0.7463
12400TIP3    H158691   4.415   6.550   2.451 -2.1666 -2.6307  0.5376
12400TIP3    H258692   4.373   6.692   2.415  2.3012 -1.3129 -0.1319
12401TIP3   OH258693   4.947   4.442   5.555 -0.4266 -0.3589 -0.0998
12401TIP3    H158694   4.873   4.467   5.499 -0.8253 -2.1244 -0.4321
12401TIP3    H258695   4.915   4.456   5.644 -0.7711 -0.0559 -0.2676
12402TIP3   OH258696   1.845   5.807  16.922  0.5673 -0.1330 -0.1209
12402TIP3    H158697   1.771   5.746  16.919  1.0666 -0.9818  2.4515
12402TIP3    H258698   1.808   5.891  16.896 -0.5735 -1.1020 -1.8646
12403TIP3   OH258699   0.223   1.585   1.833  0.3442  0.3115  0.1446
12403TIP3    H158700   0.202   1.515   1.772 -1.2451 -0.6264  1.6744
12403TIP3    H258701   0.154   1.582   1.899  0.3532  3.1827  0.4190
12404TIP3   OH258702   1.886   4.634   3.818 -0.1576 -0.4829 -0.2560
12404TIP3    H158703   1.853   4.721   3.794 -1.2598 -0.6667  0.5314
12404TIP3    H258704   1.939   4.607   3.743 -2.1523 -0.3633 -1.7873
12405TIP3   OH258705   0.671   1.391  13.228  0.7661  0.3281 -0.0025
12405TIP3    H158706   0.686   1.484  13.212 -0.3131  0.4826 -0.2239
12405TIP3    H258707   0.686   1.381  13.322  0.0765  0.9078  0.1804
12406TIP3   OH258708   4.892   6.099   5.715  0.5149  0.0027  0.2370
12406TIP3    H158709   4.896   6.071   5.806  2.7487 -2.0241 -0.3891
12406TIP3    H258710   4.909   6.193   5.718 -1.1920  0.3309  1.9679
12407TIP3   OH258711   6.763   1.064  12.270 -0.6983  0.4984  0.0453
12407TIP3    H158712   6.803   1.093  12.188 -0.1764  0.4151  0.2635
12407TIP3    H258713   6.728   1.143  12.309  0.7554  0.8717  0.6610
12408TIP3   OH258714   6.577   5.729  14.021 -0.0126  0.1163  0.2073
12408TIP3    H158715   6.555   5.679  14.100  0.9452 -1.5087 -0.5010
12408TIP3    H258716   6.670   5.750  14.032  0.0245  0.2191 -0.3090
12409TIP3   OH258717   4.892   2.538   2.311 -0.2047  0.1484  0.4933
12409TIP3    H158718   4.986   2.550   2.296 -0.7305  1.3197 -2.5895
12409TIP3    H258719   4.862   2.488   2.235 -2.4833  2.2547 -0.1388
12410TIP3   OH258720   0.856   1.138   2.713 -0.0618 -0.3496 -0.4572
12410TIP3    H158721   0.791   1.170   2.650  0.0976 -0.1095 -0.5012
12410TIP3    H258722   0.867   1.211   2.775 -0.1867 -0.5692 -0.1741
12411TIP3   OH258723   2.855   3.697   2.460  0.6707 -0.0734 -0.0718
12411TIP3    H158724   2.923   3.695   2.527 -0.3758  1.3004  1.1089
12411TIP3    H258725   2.902   3.710   2.378  1.8145  3.6317  0.9565
12412TIP3   OH258726   1.504   2.226  16.644  0.2832 -0.0456 -0.8107
12412TIP3    H158727   1.527   2.271  16.725 -1.6027  1.5065 -1.0608
12412TIP3    H258728   1.588   2.212  16.600  1.2863 -0.3056  1.0529
12413TIP3   OH258729   5.697   1.922  13.441 -0.6245  0.3832 -0.7653
12413TIP3    H158730   5.743   1.957  13.517 -2.7593  0.2923  0.6508
12413TIP3    H258731   5.653   1.998  13.403 -2.2139 -0.0602  0.0894
12414TIP3   OH258732   3.403   3.293  17.090  0.4081  0.2803  0.0346
12414TIP3    H158733   3.477   3.300  17.150 -0.4115 -0.7224  1.2058
12414TIP3    H258734   3.420   3.213  17.040 -0.2831 -0.4383  0.9139
12415TIP3   OH258735   4.430   4.376  11.379 -0.0325 -0.0071 -0.0964
12415TIP3    H158736   4.385   4.461  11.377 -2.3358 -1.0951  1.4182
12415TIP3    H258737   4.400   4.332  11.300  1.7151  0.7593 -1.2599
12416TIP3   OH258738   2.310   6.778   0.360 -0.4693 -0.6028  0.1572
12416TIP3    H158739   2.398   6.761   0.324 -0.6613 -0.4501 -0.3837
12416TIP3    H258740   2.321   6.765   0.454  0.2580 -0.0748  0.1582
12417TIP3   OH258741   0.814   2.846  11.515  0.2942 -0.5232  0.1121
12417TIP3    H158742   0.900   2.852  11.473  1.0281  0.4244  1.6912
12417TIP3    H258743   0.754   2.826  11.442  1.6976 -0.2649 -1.1719
12418TIP3   OH258744   0.125   3.941  13.236 -0.1773 -0.3726  0.0277
12418TIP3    H158745   0.189   4.009  13.215  1.3455 -1.8639 -0.3103
12418TIP3    H258746   0.050   3.962  13.181 -0.3089  1.7862  0.9086
12419TIP3   OH258747   1.934   1.201  17.167  0.0967  0.1868  0.4538
12419TIP3    H158748   1.917   1.118  17.211 -0.6902 -0.0173 -0.2063
12419TIP3    H258749   1.865   1.207  17.100  0.5161  1.0758  0.0874
12420TIP3   OH258750   4.169   0.101   3.404 -0.3925 -0.5426  0.1635
12420TIP3    H158751   4.198   0.141   3.322  0.7444 -1.1754  0.2306
12420TIP3    H258752   4.073   0.106   3.401 -0.4828 -2.1546 -2.0566
12421TIP3   OH258753   1.688   4.628  14.488 -0.1040 -0.4221 -0.6638
12421TIP3    H158754   1.607   4.600  14.446 -0.4245 -0.0952 -0.2687
12421TIP3    H258755   1.674   4.611  14.582 -0.5025  1.4845 -0.3337
12422TIP3   OH258756   2.832   1.087  15.067 -0.2843 -0.2461  0.0141
12422TIP3    H158757   2.904   1.049  15.117  0.4885  1.7007  0.4789
12422TIP3    H258758   2.866   1.098  14.979 -0.5521 -0.7289 -0.1535
12423TIP3   OH258759   0.420   2.339   0.636  0.4107  0.7241 -0.7848
12423TIP3    H158760   0.372   2.259   0.617  0.8163  0.1844  0.3639
12423TIP3    H258761   0.511   2.318   0.615  0.9078  0.0429  1.7160
12424TIP3   OH258762   5.634   5.663   6.165 -0.7069  0.4095 -0.0462
12424TIP3    H158763   5.581   5.726   6.213 -0.5563  1.8176 -1.6116
12424TIP3    H258764   5.724   5.683   6.190 -0.7485 -0.5418  0.9549
12425TIP3   OH258765   3.733   5.386  15.691  0.1692 -0.1178  0.0708
12425TIP3    H158766   3.682   5.365  15.769 -0.3096 -0.6376 -0.3620
12425TIP3    H258767   3.824   5.380  15.718  0.0161  1.0737  0.9278
12426TIP3   OH258768   5.430   6.446  15.989  0.4198 -0.0571  0.1921
12426TIP3    H158769   5.406   6.353  15.991 -1.6347  0.4372  0.0518
12426TIP3    H258770   5.358   6.491  16.033  0.5249  1.6305 -1.2308
12427TIP3   OH258771   1.176   5.903   4.966 -0.5019 -0.3389  0.2417
12427TIP3    H158772   1.166   5.841   5.039 -0.1215 -1.1962 -0.4257
12427TIP3    H258773   1.099   5.887   4.911 -0.6279  0.0960  0.2861
12428TIP3   OH258774   0.858   1.968   1.669 -0.6654  0.2988 -0.0604
12428TIP3    H158775   0.876   2.053   1.709  0.0743  0.1523 -0.0631
12428TIP3    H258776   0.940   1.944   1.626 -1.0129 -0.2038 -0.4546
12429TIP3   OH258777   0.989   3.601  13.786 -0.3927  0.2444  0.5210
12429TIP3    H158778   0.925   3.606  13.715 -0.9356 -0.6639  0.9343
12429TIP3    H258779   0.956   3.662  13.852 -0.3736  0.4089  0.3789
12430TIP3   OH258780   0.131   5.400   6.515  0.1688  0.4380  0.3068
12430TIP3    H158781   0.225   5.406   6.529  0.3100  1.1035 -0.7958
12430TIP3    H258782   0.118   5.314   6.474  0.6280  1.2987 -1.7496
12431TIP3   OH258783   1.658   4.152   6.278 -0.0153  0.5995  0.3284
12431TIP3    H158784   1.631   4.121   6.192 -0.0075  2.4520 -0.3863
12431TIP3    H258785   1.752   4.171   6.269 -0.3073  2.1429  0.2927
12432TIP3   OH258786   2.931   2.696   1.726 -0.1785 -0.3362 -0.1602
12432TIP3    H158787   2.985   2.775   1.733 -0.7113  0.1299 -1.1366
12432TIP3    H258788   2.947   2.664   1.637 -1.7442  0.0056 -0.5876
12433TIP3   OH258789   4.580   5.448   4.854  0.2029  0.5449  0.0688
12433TIP3    H158790   4.567   5.490   4.769 -0.5136  1.3333  0.5412
12433TIP3    H258791   4.579   5.521   4.917 -1.2724 -0.1536  0.9348
12434TIP3   OH258792   2.418   0.188   3.962  0.4807 -0.3262  0.1197
12434TIP3    H158793   2.409   0.273   3.917  1.0188 -0.9663 -1.2735
12434TIP3    H258794   2.342   0.183   4.019 -0.7817  0.1496 -1.4341
12435TIP3   OH258795   2.413   1.274  15.631  0.3202  0.2149  0.4381
12435TIP3    H158796   2.352   1.264  15.558  2.0364 -0.1199 -1.0200
12435TIP3    H258797   2.388   1.357  15.672 -0.7091  0.3940 -0.4924
12436TIP3   OH258798   6.334   2.778  14.354 -0.8028 -0.2785  0.8765
12436TIP3    H158799   6.258   2.759  14.300 -0.8050  0.4046  0.6282
12436TIP3    H258800   6.376   2.693  14.367 -1.0065 -0.5054  0.1043
12437TIP3   OH258801   6.430   3.701  10.884  0.3501  0.3769 -0.1626
12437TIP3    H158802   6.379   3.642  10.829  0.5416  0.4266 -0.3972
12437TIP3    H258803   6.399   3.789  10.861 -0.4537  0.3347  0.7164
12438TIP3   OH258804   4.969   0.946   0.105  0.0593  0.8741 -0.0226
12438TIP3    H158805   4.980   0.908   0.017 -0.4906 -0.0029  0.2758
12438TIP3    H258806   4.887   0.996   0.099  0.7880  2.0714 -0.4182
12439TIP3   OH258807   3.278   5.881   0.794 -0.9911 -0.2071  0.0949
12439TIP3    H158808   3.281   5.958   0.851  1.3902  0.0016 -0.2395
12439TIP3    H258809   3.249   5.810   0.852 -2.0135  0.6601  0.6984
12440TIP3   OH258810   4.929   4.026   1.518 -0.4536 -0.1037 -1.0377
12440TIP3    H158811   4.915   4.057   1.429  2.4155  0.4056 -1.4145
12440TIP3    H258812   4.995   4.085   1.554 -1.1213 -0.6545  1.2513
12441TIP3   OH258813   2.388   0.516  12.116 -0.1408 -0.3287 -1.0338
12441TIP3    H158814   2.324   0.474  12.174  0.2556  2.0291  1.3285
12441TIP3    H258815   2.473   0.484  12.146  0.1102  1.3825  0.2792
12442TIP3   OH258816   5.111   2.503  15.123 -0.3544 -0.5982  0.7156
12442TIP3    H158817   5.119   2.471  15.213  2.5312 -0.0813  0.7530
12442TIP3    H258818   5.121   2.598  15.131 -1.2793 -0.4308 -0.0479
12443TIP3   OH258819   2.876   1.459   0.555  1.2736 -0.1704 -0.1118
12443TIP3    H158820   2.862   1.403   0.631  1.6790  0.5845  0.5452
12443TIP3    H258821   2.806   1.437   0.494  0.0009  0.2862  1.1294
12444TIP3   OH258822   0.037   3.983  16.251 -0.1034  0.5583  0.0318
12444TIP3    H158823   0.030   3.890  16.230  1.3094  0.3398  0.4118
12444TIP3    H258824  -0.053   4.011  16.269 -0.7102 -0.4251 -1.3248
12445TIP3   OH258825   1.947   4.849   4.937  0.1724  0.5559  0.9225
12445TIP3    H158826   1.887   4.775   4.923 -0.7385  1.6231 -1.3893
12445TIP3    H258827   2.029   4.808   4.964  0.8498 -1.7674 -3.6430
12446TIP3   OH258828   0.871   5.141   4.895  0.1211 -0.4462  0.5482
12446TIP3    H158829   0.935   5.210   4.877  0.2461 -0.7058 -0.0193
12446TIP3    H258830   0.918   5.078   4.950  0.7607 -1.2384 -0.8393
12447TIP3   OH258831   1.805   4.273  16.852  0.0720  0.1951 -0.2791
12447TIP3    H158832   1.848   4.258  16.936  0.0431 -1.6153 -0.5403
12447TIP3    H258833   1.781   4.366  16.853 -1.1944 -0.0746  2.2802
12448TIP3   OH258834   1.064   1.297  11.159  0.1505 -0.3385  0.6960
12448TIP3    H158835   1.024   1.370  11.111 -0.5709  0.8697  2.9836
12448TIP3    H258836   1.098   1.239  11.091 -0.7054  1.3169 -1.2388
12449TIP3   OH258837   0.252   6.350  13.594 -0.1267 -0.4947 -0.1971
12449TIP3    H158838   0.319   6.288  13.568  1.0415  1.1786 -1.3654
12449TIP3    H258839   0.263   6.425  13.535 -1.5743  0.7670  1.0227
12450TIP3   OH258840   5.788   1.096   1.953  0.5351 -0.3684  0.7038
12450TIP3    H158841   5.789   1.001   1.945  1.1374 -0.2931 -0.2427
12450TIP3    H258842   5.871   1.124   1.914 -0.3405  0.6550 -0.4833
12451TIP3   OH258843   3.924   0.651  15.504 -0.7725 -0.1219  0.3785
12451TIP3    H158844   3.854   0.597  15.466 -2.9565  1.3878  2.0585
12451TIP3    H258845   3.917   0.735  15.458 -0.1759  0.1248  0.7286
12452TIP3   OH258846   0.117   4.183   3.031  0.0362  0.3183 -0.4423
12452TIP3    H158847   0.044   4.215   2.977  1.0799 -0.3114 -2.2968
12452TIP3    H258848   0.076   4.121   3.092 -0.8011 -1.4423 -2.6513
12453TIP3   OH258849   3.515   6.616   4.404  0.7322 -0.2192 -0.5092
12453TIP3    H158850   3.445   6.557   4.435  0.0718  0.6115 -0.3752
12453TIP3    H258851   3.532   6.588   4.314  0.3336 -0.5404 -0.4891
12454TIP3   OH258852   4.997   6.541  17.147  0.0109 -0.3990 -0.7997
12454TIP3    H158853   5.042   6.551  17.230  0.1808  1.0957 -1.0502
12454TIP3    H258854   4.942   6.463  17.159 -0.2101 -0.0353  0.8219
12455TIP3   OH258855   6.114   5.887  15.367 -0.2373 -0.1068  0.8977
12455TIP3    H158856   6.196   5.907  15.322  0.0169 -1.5165  0.6822
12455TIP3    H258857   6.053   5.865  15.297 -0.2131 -1.0115  1.1457
12456TIP3   OH258858   1.211   3.700  13.208 -0.1839  0.3571 -0.1131
12456TIP3    H158859   1.189   3.625  13.153 -0.1365 -1.2530  1.9281
12456TIP3    H258860   1.150   3.695  13.281 -0.0669  2.2410  0.1604
12457TIP3   OH258861   0.621   5.953  12.181 -0.0514 -0.1906  0.0773
12457TIP3    H158862   0.667   6.001  12.113  1.6710 -2.2571 -0.3200
12457TIP3    H258863   0.604   6.018  12.249  1.3727  1.1537 -0.8006
12458TIP3   OH258864   3.861   6.094  10.508 -0.6009  0.4847 -0.0251
12458TIP3    H158865   3.876   6.159  10.577  1.6966 -0.6395  0.6404
12458TIP3    H258866   3.798   6.032  10.546 -1.2351  1.1903  0.0989
12459TIP3   OH258867   5.430   6.737   1.824 -0.1465 -0.7740  0.3584
12459TIP3    H158868   5.490   6.664   1.815 -0.2473 -0.6564 -1.7761
12459TIP3    H258869   5.486   6.812   1.844  0.0177 -1.2870  1.9269
12460TIP3   OH258870   1.757   2.753  11.752  0.8643  0.0991 -0.4478
12460TIP3    H158871   1.735   2.795  11.668  0.5132 -1.0657 -0.9521
12460TIP3    H258872   1.837   2.798  11.780 -0.3011  2.1591 -0.1852
12461TIP3   OH258873   3.117   2.540  13.822 -0.4657 -0.0619  0.5411
12461TIP3    H158874   3.098   2.599  13.895 -0.1816  2.4960 -1.3174
12461TIP3    H258875   3.032   2.511  13.791 -0.7420  1.0447  0.2245
12462TIP3   OH258876   6.210   5.744   1.866 -0.1830  0.4296  0.6763
12462TIP3    H158877   6.188   5.651   1.868  0.8709  0.1326 -0.5337
12462TIP3    H258878   6.184   5.773   1.778  1.2042  0.8255  0.3793
12463TIP3   OH258879   3.651   4.980   5.317  0.6853  0.3098  0.0886
12463TIP3    H158880   3.592   5.000   5.389  0.0066 -2.4492  0.4165
12463TIP3    H258881   3.728   4.940   5.359  0.5348 -0.7924 -0.6227
12464TIP3   OH258882   6.610   5.971  12.522  0.0910 -0.1634 -0.1344
12464TIP3    H158883   6.697   5.949  12.487  1.0247  0.3914  1.6621
12464TIP3    H258884   6.551   5.908  12.482  1.2056 -0.1717 -1.8946
12465TIP3   OH258885   2.187   5.118   0.493 -0.4346  0.1965  0.3990
12465TIP3    H158886   2.169   5.111   0.587 -0.4394 -0.7184  0.3432
12465TIP3    H258887   2.273   5.078   0.483 -0.0210  1.1409  0.1379
12466TIP3   OH258888   1.676   2.622  15.907  0.1993 -0.2352 -0.4211
12466TIP3    H158889   1.649   2.560  15.975 -0.7794  1.2428  0.5832
12466TIP3    H258890   1.769   2.638  15.925  0.0633 -0.2188  0.2680
12467TIP3   OH258891   0.268   5.228  16.257  0.3946  0.3456  0.0531
12467TIP3    H158892   0.311   5.171  16.193  0.0865  0.2922 -0.1069
12467TIP3    H258893   0.289   5.317  16.228 -0.2230  0.3277 -0.4475
12468TIP3   OH258894   3.762   5.823  13.154 -0.5207 -0.0539  0.6003
12468TIP3    H158895   3.692   5.760  13.171 -1.7591  1.0315 -0.2552
12468TIP3    H258896   3.832   5.799  13.214 -1.6549 -1.1445  1.5270
12469TIP3   OH258897   2.683   2.794   1.868 -0.0062  0.0013 -0.6190
12469TIP3    H158898   2.754   2.761   1.813  1.3977  1.5629  0.1656
12469TIP3    H258899   2.720   2.795   1.957 -0.5612  1.9418 -0.3630
12470TIP3   OH258900   2.417   0.747   5.695 -0.4840 -0.0414  0.4094
12470TIP3    H158901   2.354   0.794   5.641 -0.6168  1.4290  1.7491
12470TIP3    H258902   2.364   0.691   5.752 -0.5082  0.1482  0.5771
12471TIP3   OH258903   6.595   5.050  15.875 -0.1261 -0.6055  0.1312
12471TIP3    H158904   6.608   5.076  15.784 -1.1604  0.0404  0.1491
12471TIP3    H258905   6.591   4.954  15.872  2.2339 -0.7573 -0.1449
12472TIP3   OH258906   3.651   6.823   4.956 -0.2185 -0.3011 -0.2416
12472TIP3    H158907   3.578   6.885   4.950 -0.4487 -0.6130 -0.7515
12472TIP3    H258908   3.624   6.749   4.901 -0.5003 -1.4155  1.3253
12473TIP3   OH258909   3.161   2.553  14.645 -0.1857  0.5092  0.6372
12473TIP3    H158910   3.104   2.476  14.649  0.6824 -0.2363 -0.8139
12473TIP3    H258911   3.243   2.521  14.608 -0.3146  2.3937 -1.5198
12474TIP3   OH258912   3.993   2.967  11.244 -0.0305 -0.2639  0.4828
12474TIP3    H158913   4.031   2.881  11.266  0.0525 -0.3797 -0.1014
12474TIP3    H258914   4.010   2.977  11.151 -1.9052 -0.5598  0.0689
12475TIP3   OH258915   3.501   2.219   4.690  0.8711  0.2176 -0.3442
12475TIP3    H158916   3.492   2.314   4.679 -0.2560  0.3492  1.2819
12475TIP3    H258917   3.556   2.210   4.768  2.2853 -0.5133 -1.3870
12476TIP3   OH258918   5.616   6.464  13.261  0.1770  0.1352 -0.4092
12476TIP3    H158919   5.683   6.532  13.250  0.5424 -0.3576 -1.3086
12476TIP3    H258920   5.569   6.491  13.340  0.9294  0.9149 -0.1976
12477TIP3   OH258921   0.399   4.315   5.862 -0.1996 -0.4695 -0.9775
12477TIP3    H158922   0.391   4.397   5.910  0.2210  1.2284 -3.6115
12477TIP3    H258923   0.424   4.250   5.928 -3.5996  0.7684  1.7480
12478TIP3   OH258924   2.759   6.652  13.657 -0.4031 -0.1313 -0.2557
12478TIP3    H158925   2.848   6.658  13.691 -0.5812  0.6563  0.0880
12478TIP3    H258926   2.714   6.593  13.718 -0.2362 -0.1877 -0.1850
12479TIP3   OH258927   6.793   0.801   6.121  0.0897 -0.3190 -0.1360
12479TIP3    H158928   6.804   0.728   6.060 -0.2828  0.0663 -0.6715
12479TIP3    H258929   6.867   0.793   6.182 -0.0634 -1.2641 -0.0557
12480TIP3   OH258930   2.805   5.280  10.982 -0.2877 -0.3648  0.3852
12480TIP3    H158931   2.818   5.323  10.898 -1.2862 -0.0428  0.3866
12480TIP3    H258932   2.870   5.209  10.983 -0.0514 -0.1684 -0.5064
12481TIP3   OH258933   1.690   0.016   5.189 -1.0194 -0.1621 -0.1329
12481TIP3    H158934   1.654   0.041   5.104 -1.8501 -1.4274 -0.1794
12481TIP3    H258935   1.784   0.003   5.172 -0.9864  0.6312 -0.6063
12482TIP3   OH258936   0.169   5.967  13.075 -0.4079 -0.0546 -0.1188
12482TIP3    H158937   0.102   6.015  13.026 -1.0362 -1.9833 -1.2690
12482TIP3    H258938   0.226   6.035  13.110 -0.7370  1.5064 -2.3702
12483TIP3   OH258939   6.396   3.120   5.737 -0.3840 -0.4463 -0.5786
12483TIP3    H158940   6.444   3.132   5.655  0.4235  0.0582 -0.0589
12483TIP3    H258941   6.342   3.199   5.745  0.8866  0.3929  0.2199
12484TIP3   OH258942   3.228   2.965  11.990  0.2587  0.0247  0.1172
12484TIP3    H158943   3.295   3.031  11.975  0.8735 -0.5617  0.2610
12484TIP3    H258944   3.267   2.905  12.053 -1.0355  0.6166  1.5535
12485TIP3   OH258945   2.966   3.692   1.449  0.5615 -0.0249 -0.3815
12485TIP3    H158946   2.997   3.622   1.391  0.0508  0.3648 -1.1298
12485TIP3    H258947   3.026   3.689   1.524  0.7287 -1.0655 -0.5426
12486TIP3   OH258948   4.866   5.329   1.179 -0.4435  0.6667  0.1035
12486TIP3    H158949   4.885   5.421   1.199 -0.8074  0.4535  1.5708
12486TIP3    H258950   4.837   5.292   1.262 -1.2834 -0.5357 -0.6805
12487TIP3   OH258951   4.909   6.320   5.967  0.7644  0.8163  0.6673
12487TIP3    H158952   4.985   6.335   6.024  1.8876  0.2706 -0.6411
12487TIP3    H258953   4.927   6.371   5.888 -0.1877  0.5908  0.2859
12488TIP3   OH258954   1.650   1.481  11.077 -0.0561 -0.7833  0.6128
12488TIP3    H158955   1.624   1.395  11.043 -0.4420 -0.8547  1.0809
12488TIP3    H258956   1.573   1.536  11.063 -0.0788 -0.7114  1.0108
12489TIP3   OH258957   0.131   5.014   0.199  0.1279  0.0822  0.1513
12489TIP3    H158958   0.065   5.011   0.130  0.6628  1.4265 -0.4338
12489TIP3    H258959   0.090   4.969   0.273 -0.4674 -1.3584 -0.9999
12490TIP3   OH258960   5.945   3.719   3.962  0.2094 -0.5811  0.4426
12490TIP3    H158961   6.012   3.787   3.964  2.6452 -2.5537 -2.8487
12490TIP3    H258962   5.913   3.720   3.872 -1.9368 -1.7923  1.1304
12491TIP3   OH258963   0.936   5.446   2.311 -0.0792  0.0378 -0.0103
12491TIP3    H158964   0.955   5.362   2.268 -1.0037  0.6706 -1.7621
12491TIP3    H258965   0.877   5.491   2.250 -0.2624  1.6248  1.2793
12492TIP3   OH258966   2.020   5.922   2.460 -0.6737 -0.0231  0.5189
12492TIP3    H158967   2.092   5.949   2.517 -0.6040 -1.3197  1.0899
12492TIP3    H258968   2.055   5.848   2.411 -1.1583  0.2628 -0.2775
12493TIP3   OH258969   5.913   4.947   0.620  0.1182  0.4153 -0.3768
12493TIP3    H158970   5.826   4.909   0.608 -0.3929  1.7332 -1.0699
12493TIP3    H258971   5.964   4.879   0.665 -1.6512  0.1069  1.2850
12494TIP3   OH258972   4.348   2.967  12.605  0.4325  0.0784  0.1840
12494TIP3    H158973   4.353   2.877  12.636 -0.6755 -0.0762 -0.0226
12494TIP3    H258974   4.306   2.960  12.519 -1.1576  0.9042  0.8604
12495TIP3   OH258975   5.515   1.538   4.307 -0.5392 -0.5872  0.1951
12495TIP3    H158976   5.609   1.521   4.309 -0.5433 -0.6160  1.5262
12495TIP3    H258977   5.499   1.584   4.225  1.1333  2.1561  1.2684
12496TIP3   OH258978   3.887   6.355   2.497 -0.3233 -0.0301  0.4730
12496TIP3    H158979   3.798   6.384   2.481 -0.4942  0.4692  2.1152
12496TIP3    H258980   3.886   6.324   2.588  1.1857  0.0538  0.5508
12497TIP3   OH258981   1.418   0.712  13.652 -0.3486 -0.6874 -0.1500
12497TIP3    H158982   1.394   0.621  13.632  3.8434 -2.3653  1.3661
12497TIP3    H258983   1.483   0.734  13.586 -0.3164  0.7514  0.3349
12498TIP3   OH258984   4.174   1.430  11.376 -0.3414  0.0332  0.5791
12498TIP3    H158985   4.084   1.461  11.380 -0.8898 -1.4035 -0.2128
12498TIP3    H258986   4.178   1.375  11.298  0.1641 -3.1457  2.6696
12499TIP3   OH258987   1.830   2.768  14.863  0.2937 -0.2653  0.1808
12499TIP3    H158988   1.754   2.731  14.908  0.3220 -0.9727 -0.3418
12499TIP3    H258989   1.876   2.818  14.931 -1.3872  1.3697  0.1812
12500TIP3   OH258990   4.297   5.714  13.745 -0.1795  0.4494  0.2444
12500TIP3    H158991   4.337   5.746  13.826  1.4021 -0.5130 -0.1075
12500TIP3    H258992   4.317   5.781  13.680 -0.2106  0.5570  0.3466
12501TIP3   OH258993   2.972   6.010  15.842 -0.1888 -0.2025  0.8980
12501TIP3    H158994   2.912   5.940  15.868  0.0534  0.0257  2.1491
12501TIP3    H258995   2.916   6.083  15.817 -0.4780 -1.1591 -1.5328
12502TIP3   OH258996   2.682   6.031   0.411  0.6236 -0.0375  0.3125
12502TIP3    H158997   2.604   6.025   0.467 -0.6292  0.4554 -1.3022
12502TIP3    H258998   2.716   5.942   0.409  0.8053 -0.0378  1.9702
12503TIP3   OH258999   4.162   1.648  16.746  0.2517  0.0280  0.2003
12503TIP3    H159000   4.115   1.664  16.828 -1.9879 -2.6666 -0.4089
12503TIP3    H259001   4.218   1.572  16.765  0.7514  0.2376 -0.4063
12504TIP3   OH259002   2.460   5.492  12.304 -0.0393 -0.3703  0.6098
12504TIP3    H159003   2.499   5.404  12.307  2.4820  0.6939  1.7073
12504TIP3    H259004   2.418   5.503  12.389 -0.5408 -0.5497  0.3937
12505TIP3   OH259005   1.198   4.643   0.303 -0.6671  0.1392  0.0734
12505TIP3    H159006   1.198   4.562   0.252 -1.7110  0.3495 -0.2634
12505TIP3    H259007   1.231   4.616   0.389 -0.2999 -0.4958 -0.2560
12506TIP3   OH259008   5.860   2.713   6.374 -0.0861 -0.0369 -0.3523
12506TIP3    H159009   5.871   2.799   6.414 -0.6867 -0.4244  0.6704
12506TIP3    H259010   5.942   2.667   6.391 -1.3353 -1.2881  3.2251
12507TIP3   OH259011   4.283   4.174   4.007 -0.7308  0.5381 -0.0901
12507TIP3    H159012   4.269   4.254   4.058 -2.3251  0.1933  0.0524
12507TIP3    H259013   4.233   4.188   3.927 -0.5908 -0.1172 -0.2924
12508TIP3   OH259014   4.298   1.443   2.678  0.4320  0.4198  0.1333
12508TIP3    H159015   4.203   1.429   2.678  0.1820  1.7842 -0.9683
12508TIP3    H259016   4.315   1.490   2.760 -0.1612  1.7328 -0.4532
12509TIP3   OH259017   5.270   6.299  13.298 -0.6509  0.0049 -0.0869
12509TIP3    H159018   5.332   6.369  13.318 -0.0473  0.3567 -2.7068
12509TIP3    H259019   5.184   6.336  13.319 -0.1781  0.7032  0.6521
12510TIP3   OH259020   1.542   2.228  11.713 -0.4487 -0.1739 -0.8203
12510TIP3    H159021   1.563   2.142  11.749 -0.7448  0.0577 -0.0905
12510TIP3    H259022   1.618   2.282  11.734 -1.1085  0.2652  0.4886
12511TIP3   OH259023   0.210   1.889   0.379  0.4412  0.1091  0.8276
12511TIP3    H159024   0.269   1.834   0.327 -1.0360 -0.1714 -0.6078
12511TIP3    H259025   0.149   1.828   0.420  0.2635  0.5114  1.1802
12512TIP3   OH259026   5.668   1.953  11.844  0.5720  0.3350  0.1208
12512TIP3    H159027   5.623   1.878  11.882  0.0165 -0.2017 -1.5184
12512TIP3    H259028   5.699   2.003  11.920 -0.6925 -0.5370  1.2615
12513TIP3   OH259029   6.449   0.051   4.400  0.1734  0.0742 -0.7559
12513TIP3    H159030   6.383   0.120   4.403 -0.3726 -0.3803 -1.7846
12513TIP3    H259031   6.477   0.049   4.309  2.9225  1.4456 -0.0476
12514TIP3   OH259032   3.265   4.077  15.315 -0.4098  0.0399  0.7019
12514TIP3    H159033   3.328   4.098  15.246 -0.1209  1.2666  1.3059
12514TIP3    H259034   3.187   4.048  15.268  0.0522  0.0723 -0.1105
12515TIP3   OH259035   0.522   0.251   5.556  0.3732  0.1882  0.5286
12515TIP3    H159036   0.434   0.263   5.591 -0.0906  1.4972 -0.9790
12515TIP3    H259037   0.580   0.279   5.627 -0.4832  1.1211  0.8900
12516TIP3   OH259038   3.299   5.153   2.312 -0.3837  0.6112  0.8212
12516TIP3    H159039   3.302   5.177   2.404 -0.4976  2.7009  0.3142
12516TIP3    H259040   3.390   5.141   2.287 -0.1185  2.7611  0.5772
12517TIP3   OH259041   6.126   1.272  15.495 -0.5517  0.5289 -0.2960
12517TIP3    H159042   6.038   1.293  15.465 -0.6952  1.1328  0.5107
12517TIP3    H259043   6.164   1.357  15.520 -0.0610  0.1753  0.1933
12518TIP3   OH259044   3.666   0.953  10.620 -0.2907  0.0190  0.2974
12518TIP3    H159045   3.689   1.044  10.602 -0.9317 -0.1229 -1.4893
12518TIP3    H259046   3.736   0.921  10.676  0.7756  1.1863 -0.3227
12519TIP3   OH259047   1.354   4.034   4.593  0.2563 -0.6081 -0.1267
12519TIP3    H159048   1.333   4.097   4.662  3.2148  1.2488 -0.7226
12519TIP3    H259049   1.426   3.982   4.630  0.0851 -1.3885 -0.8654
12520TIP3   OH259050   4.818   5.150   3.787 -0.4767 -0.0068 -0.2522
12520TIP3    H159051   4.728   5.176   3.765 -0.4557 -1.3321 -2.0382
12520TIP3    H259052   4.809   5.104   3.871 -1.5818 -0.7107 -0.7377
12521TIP3   OH259053   1.017   6.642  11.275 -0.0657  0.1769 -0.2008
12521TIP3    H159054   1.016   6.616  11.367  0.0010 -0.3027 -0.3306
12521TIP3    H259055   0.999   6.561  11.227  0.4080  0.3227 -0.6308
12522TIP3   OH259056   3.093   4.215  12.471 -0.4398 -0.1387 -0.2201
12522TIP3    H159057   3.181   4.193  12.439  0.1655  2.4679 -0.6073
12522TIP3    H259058   3.044   4.238  12.392 -0.2994  1.9957  0.2560
12523TIP3   OH259059   4.555   0.287  13.084 -0.5416 -0.2567 -0.4774
12523TIP3    H159060   4.514   0.353  13.139 -2.3260 -0.7896 -1.1150
12523TIP3    H259061   4.558   0.327  12.997 -0.4161 -0.5128 -0.5917
12524TIP3   OH259062   2.980   2.884   2.041 -0.6618  0.1632 -0.1432
12524TIP3    H159063   3.069   2.912   2.060 -1.0413  0.2413  1.7289
12524TIP3    H259064   2.977   2.792   2.069 -1.0331  0.0216 -0.6436
12525TIP3   OH259065   2.977   4.381   0.589 -0.4415 -0.6473  0.5457
12525TIP3    H159066   2.911   4.321   0.556 -1.6726  1.9179 -2.1530
12525TIP3    H259067   2.927   4.454   0.625  0.8315  1.0031 -0.8364
12526TIP3   OH259068   2.583   3.562  16.180 -0.2003 -0.7878 -0.3059
12526TIP3    H159069   2.618   3.647  16.206 -1.5469 -0.0902 -0.6460
12526TIP3    H259070   2.606   3.503  16.252 -1.1377  0.3842  1.0015
12527TIP3   OH259071   5.717   1.520   5.392  0.4596 -0.0091 -0.1274
12527TIP3    H159072   5.716   1.600   5.340 -0.3362 -0.3024 -0.5818
12527TIP3    H259073   5.808   1.512   5.422  0.5420  1.0728 -0.0391
12528TIP3   OH259074   4.261   3.661   4.518  0.0004  0.9260 -0.1458
12528TIP3    H159075   4.208   3.729   4.477  1.6431  1.4402 -1.5683
12528TIP3    H259076   4.283   3.601   4.446 -0.5494 -0.5547  0.8757
12529TIP3   OH259077   1.742   1.448  11.812  0.1996 -0.2778 -0.0441
12529TIP3    H159078   1.800   1.415  11.743  0.6800 -0.0522  0.2456
12529TIP3    H259079   1.706   1.529  11.776  0.5446 -0.0954  0.0125
12530TIP3   OH259080   4.809   2.690   3.200 -0.3713  0.1408  0.3274
12530TIP3    H159081   4.782   2.668   3.289 -2.2745 -1.2011 -0.5265
12530TIP3    H259082   4.856   2.612   3.170  1.2079  0.9950  0.4703
12531TIP3   OH259083   4.794   1.244   3.872  0.6104 -0.0641  0.0914
12531TIP3    H159084   4.851   1.233   3.796 -0.3200  0.9365 -0.7877
12531TIP3    H259085   4.843   1.206   3.944  0.9625 -2.3229 -1.2269
12532TIP3   OH259086   3.157   3.769   0.375 -0.4381  0.3072 -0.1992
12532TIP3    H159087   3.240   3.794   0.415 -0.2209 -1.5773  0.6371
12532TIP3    H259088   3.180   3.732   0.290 -0.2579 -1.3993  0.5652
12533TIP3   OH259089   1.979   5.323  15.353 -0.1097  0.3103  0.2387
12533TIP3    H159090   2.001   5.383  15.282 -0.1042 -0.3634 -0.3392
12533TIP3    H259091   2.061   5.311  15.400  0.0336  0.2668 -0.0216
12534TIP3   OH259092   0.917   6.739  14.999 -0.1264 -0.5735  0.6050
12534TIP3    H159093   0.833   6.746  15.045 -0.4218 -0.5507  0.0709
12534TIP3    H259094   0.972   6.687  15.057  1.1030  3.2452  3.2437
12535TIP3   OH259095   1.576   5.310   5.359 -0.0712  0.4973  0.5538
12535TIP3    H159096   1.536   5.287   5.443  0.4718  1.3635  1.0582
12535TIP3    H259097   1.569   5.406   5.355 -0.2903  0.4437 -0.4899
12536TIP3   OH259098   4.690   2.111  12.207  0.2453 -0.2023  0.3305
12536TIP3    H159099   4.651   2.078  12.289  0.2260 -0.1098  0.3582
12536TIP3    H259100   4.696   2.033  12.151  0.6609 -0.3524  0.5781
12537TIP3   OH259101   1.739   2.850  14.543  0.3284  0.0264  0.5198
12537TIP3    H159102   1.784   2.843  14.627 -0.2384  1.5214  0.9881
12537TIP3    H259103   1.648   2.827  14.562  0.7073 -2.4190 -0.3057
12538TIP3   OH259104   5.239   2.346   5.740  0.4616  0.3671  0.2212
12538TIP3    H159105   5.267   2.395   5.817  0.7366 -1.1759  1.1362
12538TIP3    H259106   5.153   2.382   5.719  1.2863  2.2929 -0.1039
12539TIP3   OH259107   5.295   1.012   1.486 -0.0999 -0.6302  0.1923
12539TIP3    H159108   5.322   1.084   1.429  4.2053 -1.4290  0.8799
12539TIP3    H259109   5.253   1.056   1.560 -0.0936  0.9225 -0.6645
12540TIP3   OH259110   3.920   0.562  12.632 -0.0499  0.3486 -0.3166
12540TIP3    H159111   3.900   0.504  12.558 -1.4836  0.9575 -0.4271
12540TIP3    H259112   3.836   0.603  12.654  0.6245  1.1758  0.7986
12541TIP3   OH259113   0.818   5.766   4.110  0.1075 -0.5163 -0.1339
12541TIP3    H159114   0.845   5.792   4.198 -0.8437 -0.4633  0.1511
12541TIP3    H259115   0.724   5.754   4.117  0.4208 -3.7873 -0.3098
12542TIP3   OH259116   2.199   0.377   5.810 -0.2014 -0.1432 -0.2113
12542TIP3    H159117   2.112   0.341   5.789 -0.3405 -0.2640  0.5346
12542TIP3    H259118   2.183   0.471   5.820 -0.2847 -0.1862  0.0848
12543TIP3   OH259119   4.933   5.697  11.702  0.6426  0.1846  0.2059
12543TIP3    H159120   5.020   5.693  11.743  0.4545  0.4892  0.6436
12543TIP3    H259121   4.915   5.608  11.674  1.0395  0.0927  0.2394
12544TIP3   OH259122   3.200   0.581   5.535  1.0428 -0.0396 -0.3653
12544TIP3    H159123   3.188   0.500   5.484  1.1326  1.0779 -2.2638
12544TIP3    H259124   3.282   0.617   5.503  1.0626  0.7679  0.5569
12545TIP3   OH259125   2.176   6.110  16.748 -0.9566  0.0091  0.0195
12545TIP3    H159126   2.105   6.150  16.698 -1.0023  1.2512  1.0072
12545TIP3    H259127   2.154   6.130  16.839  0.0066 -0.6929  0.4182
12546TIP3   OH259128   1.796   6.573  14.542  0.2468  0.4717 -0.0238
12546TIP3    H159129   1.806   6.602  14.451 -0.9256 -1.0499 -0.6945
12546TIP3    H259130   1.874   6.605  14.586  1.6970 -0.1535 -1.9710
12547TIP3   OH259131   6.273   3.429  12.315  0.2552 -0.0779 -0.1118
12547TIP3    H159132   6.344   3.494  12.314 -1.5637  2.0385 -0.4372
12547TIP3    H259133   6.238   3.430  12.226 -0.4337 -0.7900  0.1420
12548TIP3   OH259134   5.533   1.980  15.066  0.1542  0.2201  0.8501
12548TIP3    H159135   5.604   1.928  15.029 -1.1510 -1.6317  0.8106
12548TIP3    H259136   5.568   2.069  15.072  1.3634  0.0732 -2.2776
12549TIP3   OH259137   2.332   1.477   5.741 -0.1860  0.3760  0.1034
12549TIP3    H159138   2.401   1.525   5.788 -0.4642  1.6479 -0.7395
12549TIP3    H259139   2.252   1.525   5.762 -1.0470 -1.6623  1.8832
12550TIP3   OH259140   3.299   2.007   2.069 -0.2762 -0.6433  0.4728
12550TIP3    H159141   3.353   1.997   1.990 -0.4754  2.6789 -0.2302
12550TIP3    H259142   3.356   1.980   2.141  0.7462 -1.4637 -0.6078
12551TIP3   OH259143   4.450   3.756   0.348  0.6967 -0.3559 -0.4046
12551TIP3    H159144   4.522   3.790   0.295  1.3596 -0.6691  0.2781
12551TIP3    H259145   4.488   3.740   0.434  0.0770 -1.4926 -0.3089
12552TIP3   OH259146   6.437   3.640   0.004  0.6491 -0.2820 -0.6877
12552TIP3    H159147   6.377   3.714  -0.003  0.2567 -0.3484  1.3493
12552TIP3    H259148   6.522   3.675  -0.021  1.1692  1.8652  3.2155
12553TIP3   OH259149   3.976   5.165   1.031  0.5710  0.1666 -0.0097
12553TIP3    H159150   4.050   5.167   1.092  1.1280 -0.7201 -0.6212
12553TIP3    H259151   4.000   5.097   0.968  0.3024  1.4752 -1.5832
12554TIP3   OH259152   1.011   1.021   1.845  0.1060  0.5224 -0.0211
12554TIP3    H159153   0.987   1.113   1.857  1.6256  1.3176 -2.4154
12554TIP3    H259154   0.936   0.983   1.798 -1.3538 -0.0442  2.5599
12555TIP3   OH259155   0.587   5.427  13.863  0.2252 -0.0998 -0.0994
12555TIP3    H159156   0.590   5.341  13.819 -0.5956  0.1429 -0.6543
12555TIP3    H259157   0.628   5.487  13.801 -0.4195  0.1400 -0.3098
12556TIP3   OH259158   5.455   1.090  16.917  0.0475 -0.0153  0.1980
12556TIP3    H159159   5.474   0.999  16.940 -0.2560 -0.1352 -0.0210
12556TIP3    H259160   5.502   1.141  16.983  1.2284 -0.2998 -0.3994
12557TIP3   OH259161   6.081   3.287   1.683  0.3230 -0.2621 -0.3252
12557TIP3    H159162   6.176   3.277   1.675  0.4080 -2.1447  1.7833
12557TIP3    H259163   6.045   3.227   1.618  0.7078 -2.4993  1.4050
12558TIP3   OH259164   1.938   4.439  15.797 -0.0283 -1.2105  0.0565
12558TIP3    H159165   1.920   4.375  15.866 -2.8340  0.5253  1.1037
12558TIP3    H259166   1.854   4.481  15.781  1.4423  1.4317 -1.3703
12559TIP3   OH259167   1.451   4.168   3.066 -0.1133  0.1071 -0.1265
12559TIP3    H159168   1.399   4.235   3.023 -0.4447 -1.0872 -1.6583
12559TIP3    H259169   1.512   4.137   2.999  0.2921 -0.8550  0.6495
12560TIP3   OH259170   1.021   3.341   4.324  0.0951  0.2627  0.1551
12560TIP3    H159171   1.102   3.390   4.342  2.2255 -2.8222 -0.2178
12560TIP3    H259172   0.983   3.325   4.410  0.2712  1.0446  0.3914
12561TIP3   OH259173   4.600   0.792  11.831  0.5016 -0.7747 -0.3508
12561TIP3    H159174   4.657   0.869  11.841 -0.7525  0.3378 -1.4122
12561TIP3    H259175   4.648   0.735  11.771  1.6868 -1.0969  0.8528
12562TIP3   OH259176   4.869   5.198  14.897  0.1875  0.6163 -0.1609
12562TIP3    H159177   4.916   5.223  14.818 -1.1574  0.8679 -0.9154
12562TIP3    H259178   4.867   5.103  14.895  1.1794  0.5693  0.2181
12563TIP3   OH259179   4.279   3.586  13.509 -0.1417 -0.3146 -0.1022
12563TIP3    H159180   4.187   3.567  13.491  0.3597 -1.9636 -1.2157
12563TIP3    H259181   4.319   3.596  13.423  0.7683  0.2233  0.3614
12564TIP3   OH259182   3.547   3.771   2.248  0.1224 -0.1953  0.2434
12564TIP3    H159183   3.629   3.730   2.221  0.2755  0.0628  0.3204
12564TIP3    H259184   3.539   3.848   2.192 -0.1051 -0.2594  0.1855
12565TIP3   OH259185   2.716   0.775   1.133  0.1941 -0.1554 -0.1133
12565TIP3    H159186   2.684   0.826   1.058  0.6088 -1.0848 -0.9496
12565TIP3    H259187   2.773   0.836   1.180 -1.3197  0.9452  0.3703
12566TIP3   OH259188   5.677   2.353  10.929 -0.1801  0.1595 -0.4477
12566TIP3    H159189   5.627   2.297  10.988 -0.3727  0.6980 -0.0898
12566TIP3    H259190   5.612   2.415  10.895  0.2491  0.9229  0.0891
12567TIP3   OH259191   6.293   1.417  16.072 -0.4298 -0.5891  0.0622
12567TIP3    H159192   6.252   1.498  16.042 -0.8555 -1.4942 -1.9656
12567TIP3    H259193   6.385   1.427  16.049 -0.3764 -0.4490  0.3366
12568TIP3   OH259194   1.037   0.922  13.659  0.4546  0.2671 -0.2668
12568TIP3    H159195   1.091   0.944  13.583  1.8713  0.1386  0.6446
12568TIP3    H259196   1.084   0.961  13.733  1.4583 -3.1079  1.0743
12569TIP3   OH259197   0.146   4.367  16.174  0.1678 -0.4216  0.2445
12569TIP3    H159198   0.222   4.401  16.126 -0.0834 -0.0143  0.1305
12569TIP3    H259199   0.105   4.444  16.213 -0.1214 -0.6533  0.4074
12570TIP3   OH259200   6.149   5.455  16.076  0.2255  0.2908 -0.0615
12570TIP3    H159201   6.205   5.378  16.083 -0.4710 -0.2785 -0.5028
12570TIP3    H259202   6.091   5.436  16.002 -1.5219  0.1897  1.2590
12571TIP3   OH259203   5.363   4.073   3.811 -0.3587 -0.2801 -0.0112
12571TIP3    H159204   5.322   3.999   3.766  0.3923  0.8875 -2.8242
12571TIP3    H259205   5.292   4.137   3.822  0.2302  1.3274 -3.9662
12572TIP3   OH259206   5.940   3.005  15.594  0.5448 -0.4687 -0.1573
12572TIP3    H159207   6.031   3.016  15.624  0.0642 -1.7800  1.9636
12572TIP3    H259208   5.939   3.044  15.507  3.1205 -0.3208 -0.1948
12573TIP3   OH259209   6.521   3.175  12.832  0.6937  0.3767 -0.1550
12573TIP3    H159210   6.449   3.189  12.770 -0.3987  2.7504  1.5034
12573TIP3    H259211   6.505   3.088  12.868 -1.4264  0.8666  0.2125
12574TIP3   OH259212   6.238   5.196   5.480  0.4048 -0.0976 -0.2504
12574TIP3    H159213   6.214   5.288   5.469  0.3901 -0.1381 -0.5804
12574TIP3    H259214   6.323   5.188   5.435  0.2799 -0.3025 -0.4553
12575TIP3   OH259215   5.309   3.622  13.655  0.1518  0.3202  0.7763
12575TIP3    H159216   5.295   3.698  13.598  2.4694  1.2920  1.3790
12575TIP3    H259217   5.404   3.607  13.650  0.0262 -1.1910  2.3660
12576TIP3   OH259218   2.549   1.597  14.888  0.1134 -0.1518  0.1127
12576TIP3    H159219   2.587   1.537  14.825 -0.0118 -1.5317  1.2918
12576TIP3    H259220   2.539   1.679  14.840  0.9684 -0.8502 -1.3341
12577TIP3   OH259221   5.273   2.874   2.286 -0.1219  0.2264  0.0380
12577TIP3    H159222   5.276   2.831   2.372  2.4674 -1.2691 -0.7120
12577TIP3    H259223   5.354   2.924   2.282 -0.5636  0.8726 -1.2886
12578TIP3   OH259224   3.464   0.537   1.200 -0.8983 -0.2117 -0.0235
12578TIP3    H159225   3.540   0.552   1.256 -0.5656 -0.4485 -0.4111
12578TIP3    H259226   3.390   0.571   1.251 -0.5750 -0.2480  0.4777
12579TIP3   OH259227   1.857   0.320  12.308  0.2906 -0.1968 -0.4067
12579TIP3    H159228   1.936   0.283  12.348  0.6569 -0.3151 -1.2249
12579TIP3    H259229   1.786   0.294  12.367  0.8203 -0.3660  0.1621
12580TIP3   OH259230   5.013   0.019   0.159  0.0589  0.5258  0.1560
12580TIP3    H159231   4.926   0.024   0.200  0.4251  1.3867  0.8465
12580TIP3    H259232   4.995   0.021   0.065 -0.6737  0.7227  0.2912
12581TIP3   OH259233   6.652   5.717   6.314 -0.7771  0.0040 -0.1077
12581TIP3    H159234   6.651   5.802   6.358 -0.2385 -0.4778  0.8702
12581TIP3    H259235   6.676   5.655   6.382  1.7828 -0.5796 -1.4166
12582TIP3   OH259236   5.550   2.537  16.991 -0.2373 -0.3545  0.4003
12582TIP3    H159237   5.495   2.480  16.938 -0.4508  0.1861  0.0273
12582TIP3    H259238   5.500   2.551  17.071 -1.1388  0.9590 -0.3531
12583TIP3   OH259239   5.930   6.135  14.337  0.2780 -0.2401 -0.2936
12583TIP3    H159240   5.934   6.050  14.295 -1.1731 -0.8101  0.6506
12583TIP3    H259241   5.967   6.120  14.425  0.8139  0.3155 -0.4152
12584TIP3   OH259242   1.819   2.296  14.677 -0.6204 -0.3509 -0.5170
12584TIP3    H159243   1.852   2.386  14.673 -2.9132  0.5308 -0.6786
12584TIP3    H259244   1.788   2.286  14.767  0.0464 -1.1641 -0.3674
12585TIP3   OH259245   2.143   0.961   3.989  0.1596 -0.6105 -0.2979
12585TIP3    H159246   2.137   0.879   4.037  2.6943 -1.0711 -0.6513
12585TIP3    H259247   2.195   0.940   3.912  0.6630  1.2818 -0.5121
12586TIP3   OH259248   3.436   5.955  15.726  0.8473 -0.6209  0.6085
12586TIP3    H159249   3.348   5.927  15.750  0.8390 -2.1829 -1.0380
12586TIP3    H259250   3.481   5.968  15.810 -0.1845 -2.3804  1.4790
12587TIP3   OH259251   3.800   0.937  12.997 -0.0634 -0.2916 -0.2546
12587TIP3    H159252   3.810   0.933  12.902  0.5728  1.1288 -0.2665
12587TIP3    H259253   3.708   0.918  13.013 -0.0461 -1.1455 -1.1010
12588TIP3   OH259254   1.931   4.927  13.463  0.0440 -0.4266 -0.2964
12588TIP3    H159255   1.972   4.981  13.395 -2.5607 -0.1870 -1.7825
12588TIP3    H259256   1.959   4.838  13.443  0.5026 -0.1882 -0.7382
12589TIP3   OH259257   6.383   0.156  15.357 -0.0174 -0.1699 -0.6887
12589TIP3    H159258   6.402   0.067  15.329  0.1966 -0.1686 -0.5446
12589TIP3    H259259   6.288   0.157  15.369  0.1795 -0.9097  1.1467
12590TIP3   OH259260   4.020   5.838   0.027 -0.2882  0.2119 -0.5346
12590TIP3    H159261   3.943   5.817  -0.026 -0.2924 -0.5630 -0.2306
12590TIP3    H259262   4.005   5.929   0.054 -0.8633  0.2272 -0.8688
12591TIP3   OH259263   4.483   1.570  15.005  0.1117  0.1294 -0.2029
12591TIP3    H159264   4.510   1.590  15.094  1.8054  0.5270 -0.7599
12591TIP3    H259265   4.535   1.629  14.950 -2.3940  1.4073 -1.3793
12592TIP3   OH259266   6.744   4.706   1.045 -1.1417 -0.2789  0.3806
12592TIP3    H159267   6.783   4.789   1.015  0.0408 -0.6765  0.7431
12592TIP3    H259268   6.815   4.663   1.093 -2.2476 -0.7533  1.6411
12593TIP3   OH259269   1.369   2.311  11.372  0.3274 -1.0204  0.3231
12593TIP3    H159270   1.368   2.258  11.293  1.7148  1.2520 -1.3375
12593TIP3    H259271   1.460   2.337  11.383 -0.2335  0.7680  1.2016
12594TIP3   OH259272   6.766   3.485  17.109  0.3075  0.0423  0.1309
12594TIP3    H159273   6.735   3.528  17.029  0.6031 -1.0220 -0.5823
12594TIP3    H259274   6.688   3.445  17.147  0.2161  0.3082  0.2234
12595TIP3   OH259275   0.288   1.190   4.987 -0.0880 -0.1707 -0.1721
12595TIP3    H159276   0.258   1.232   5.067  1.6867  1.0466 -0.0995
12595TIP3    H259277   0.379   1.165   5.005  0.3090  0.0070 -1.7436
12596TIP3   OH259278   1.001   3.619  14.303  0.0918  0.3653  0.0372
12596TIP3    H159279   0.931   3.621  14.237 -1.7165 -2.6710  1.6249
12596TIP3    H259280   0.975   3.686  14.366 -0.3856  0.5281 -0.3175
12597TIP3   OH259281   2.286   4.639   3.025  0.2168 -0.4825  0.0634
12597TIP3    H159282   2.275   4.549   2.995 -0.7405 -0.0242 -1.0631
12597TIP3    H259283   2.350   4.677   2.965  1.3647 -0.6747  1.1485
12598TIP3   OH259284   1.178   4.686   4.864  0.1397 -0.7811  0.2050
12598TIP3    H159285   1.245   4.618   4.879  1.0118 -0.5940 -2.4378
12598TIP3    H259286   1.204   4.758   4.921  1.5975 -1.1213  0.0033
12599TIP3   OH259287   2.113   0.296  16.523  0.3466 -0.1565  0.8548
12599TIP3    H159288   2.128   0.339  16.607 -1.5272 -1.4641  1.9429
12599TIP3    H259289   2.131   0.203  16.539 -2.2032 -0.7868  0.5171
12600TIP3   OH259290   2.511   3.275  13.987  0.2973  0.0240 -0.0598
12600TIP3    H159291   2.555   3.342  13.934  0.2456  1.1714  1.2844
12600TIP3    H259292   2.542   3.192  13.951  0.1432  0.7349 -1.9708
12601TIP3   OH259293   0.624   2.255  14.409  0.3172  0.2587 -0.3090
12601TIP3    H159294   0.667   2.204  14.341  0.1169  1.1534 -1.1297
12601TIP3    H259295   0.530   2.244  14.393  0.2709  0.6193 -0.2998
12602TIP3   OH259296   0.486   2.491   6.710 -0.3454  0.3961 -0.1912
12602TIP3    H159297   0.515   2.441   6.633 -0.8113 -0.9888  0.5092
12602TIP3    H259298   0.391   2.499   6.699 -0.5204 -0.4619  0.5929
12603TIP3   OH259299   6.324   6.611   4.842  0.5281  0.2143  0.1657
12603TIP3    H159300   6.317   6.690   4.788 -1.1849  0.5482  0.7798
12603TIP3    H259301   6.254   6.621   4.907 -1.7570 -3.1528 -1.4892
12604TIP3   OH259302   4.169   1.836  15.518  0.0301  0.2707 -0.3830
12604TIP3    H159303   4.078   1.832  15.548  0.1833  1.3536  0.2596
12604TIP3    H259304   4.213   1.766  15.567 -0.3516  0.0466 -0.3525
12605TIP3   OH259305   6.443   3.543   1.080 -0.2376 -0.8335 -0.0732
12605TIP3    H159306   6.470   3.508   0.995  1.4528  0.6011 -0.1823
12605TIP3    H259307   6.387   3.618   1.058  0.5764 -0.1759  0.0320
12606TIP3   OH259308   6.150   6.473  16.692  0.1361  0.1034 -0.3989
12606TIP3    H159309   6.161   6.457  16.599 -0.5683  0.3090 -0.5221
12606TIP3    H259310   6.075   6.531  16.698 -0.3928 -0.6392  0.3514
12607TIP3   OH259311   1.434   1.110  17.092  0.1770 -0.1812  0.2620
12607TIP3    H159312   1.450   1.135  17.183  1.6243  0.4550 -0.1368
12607TIP3    H259313   1.489   1.032  17.079  1.2219  0.6450 -0.4759
12608TIP3   OH259314   0.975   2.250  12.504 -0.0429 -0.7529 -0.2151
12608TIP3    H159315   0.897   2.257  12.558  0.2050 -0.6910  0.1356
12608TIP3    H259316   1.042   2.299  12.552 -0.4137  1.3624 -1.7129
12609TIP3   OH259317   2.449   6.746  17.067  0.1131 -0.7306  0.1042
12609TIP3    H159318   2.514   6.793  17.015 -1.2702  1.8036  0.4931
12609TIP3    H259319   2.500   6.706  17.138  1.4289 -0.0636 -0.4250
12610TIP3   OH259320   2.065   6.506   2.385  0.2865 -0.2783  0.2362
12610TIP3    H159321   2.003   6.579   2.382 -1.2302 -1.5207  0.3219
12610TIP3    H259322   2.151   6.548   2.395 -0.5866  1.4633  0.7866
12611TIP3   OH259323   5.332   2.077  15.409  0.5514 -0.4623  0.4398
12611TIP3    H159324   5.423   2.083  15.440  0.9301  0.1402 -0.7158
12611TIP3    H259325   5.329   2.136  15.333 -1.0672  0.2931  1.0348
12612TIP3   OH259326   3.781   2.602   2.096 -0.0165  0.6115 -0.1191
12612TIP3    H159327   3.689   2.576   2.090  0.0056  0.4517  0.2225
12612TIP3    H259328   3.825   2.528   2.137  0.1119  1.0230  0.5077
12613TIP3   OH259329   0.724   0.935  12.891  0.0002  0.6114 -0.2161
12613TIP3    H159330   0.790   0.967  12.952 -1.9460  1.2094  1.7098
12613TIP3    H259331   0.676   1.014  12.864 -0.6748  0.0737 -0.6176
12614TIP3   OH259332   3.504   4.906   4.234 -0.0009  0.4822 -0.5603
12614TIP3    H159333   3.546   4.866   4.310  0.5652  0.3299 -0.9474
12614TIP3    H259334   3.576   4.927   4.176 -0.5660 -2.6506 -2.6647
12615TIP3   OH259335   2.435   0.264  14.366 -0.0605  0.1522 -0.5161
12615TIP3    H159336   2.496   0.293  14.434 -0.0086 -1.2777  0.0838
12615TIP3    H259337   2.475   0.290  14.284  1.2580 -0.5438 -0.1192
12616TIP3   OH259338   0.561   1.123  16.259 -0.3900  0.4737 -0.0076
12616TIP3    H159339   0.514   1.106  16.341 -0.6701 -1.0861 -0.4601
12616TIP3    H259340   0.612   1.202  16.277 -0.4259  0.1574  1.6819
12617TIP3   OH259341   6.386   4.799  15.349  0.3752 -0.5268  0.3443
12617TIP3    H159342   6.296   4.824  15.329  0.6047 -0.4113 -0.6098
12617TIP3    H259343   6.381   4.756  15.434 -0.4898  0.0079  0.5794
12618TIP3   OH259344   5.938   0.143  11.340  0.1756  0.2960  0.3885
12618TIP3    H159345   5.959   0.065  11.289  0.5883  1.3593 -1.1578
12618TIP3    H259346   5.855   0.173  11.304  1.2808  2.0048 -0.9356
12619TIP3   OH259347   4.398   2.927  16.417  0.5260 -0.0732 -0.1342
12619TIP3    H159348   4.395   2.841  16.460  3.0395  0.7010  1.8206
12619TIP3    H259349   4.314   2.933  16.371  0.4741 -3.7581 -0.8137
12620TIP3   OH259350   0.991   2.969   4.430  0.2214 -0.0974 -0.3274
12620TIP3    H159351   1.066   2.954   4.489  0.7080 -0.5368 -1.0422
12620TIP3    H259352   0.954   2.882   4.417 -0.4952  0.1339  0.1124
12621TIP3   OH259353   3.680   3.595  16.541 -0.9597 -0.2217  0.0862
12621TIP3    H159354   3.748   3.558  16.485 -0.5304 -1.4960  1.4062
12621TIP3    H259355   3.686   3.690  16.527  0.8705 -0.3369 -0.0445
12622TIP3   OH259356   2.995   2.026   1.134 -0.1862 -0.5822 -0.1965
12622TIP3    H159357   3.065   2.023   1.068  1.1595  1.4099  1.0079
12622TIP3    H259358   2.977   2.120   1.145 -1.7651 -0.9687  0.8580
12623TIP3   OH259359   5.042   3.639  14.482  0.3530 -0.0362  0.4791
12623TIP3    H159360   4.948   3.643  14.495  0.5156  1.1921  1.3859
12623TIP3    H259361   5.053   3.584  14.404 -1.2175  1.5718 -0.9459
12624TIP3   OH259362   0.784   0.130  15.501 -0.2607 -0.6828 -0.4776
12624TIP3    H159363   0.828   0.183  15.568 -1.2791 -0.2470 -0.1414
12624TIP3    H259364   0.810   0.171  15.419  0.7299 -1.0169 -0.3507
12625TIP3   OH259365   4.678   1.101  13.448  0.2668 -0.2770 -0.1997
12625TIP3    H159366   4.767   1.070  13.432 -0.4067 -1.6070 -1.5765
12625TIP3    H259367   4.668   1.096  13.543  1.6650 -0.0382 -0.0093
12626TIP3   OH259368   6.430   3.466  15.778 -0.1111 -0.2796 -0.0399
12626TIP3    H159369   6.468   3.378  15.779  0.4560 -0.0382  0.9931
12626TIP3    H259370   6.506   3.524  15.774 -0.4648  0.1775 -0.1822
12627TIP3   OH259371   2.702   2.078  15.479  0.5861 -0.2174 -0.0712
12627TIP3    H159372   2.679   2.080  15.386 -0.2729  0.5130  0.1492
12627TIP3    H259373   2.738   1.990  15.492  1.5578 -0.0431 -1.2803
12628TIP3   OH259374   6.414   1.816   6.183 -0.2744  0.8399 -0.1017
12628TIP3    H159375   6.370   1.733   6.161 -0.9798  1.3994 -0.8454
12628TIP3    H259376   6.418   1.816   6.279  0.2421 -0.3094 -0.0972
12629TIP3   OH259377   0.023   0.737  11.959  0.1572  0.0890  0.7388
12629TIP3    H159378   0.106   0.742  12.006  1.5302 -0.1129 -1.5041
12629TIP3    H259379   0.012   0.644  11.940 -0.3857  0.1638  0.6755
12630TIP3   OH259380   5.569   0.704  14.569 -0.2549 -0.6845 -0.0968
12630TIP3    H159381   5.474   0.694  14.561 -0.0499 -2.6449 -0.8534
12630TIP3    H259382   5.590   0.657  14.650 -0.0848  1.2565  1.0256
12631TIP3   OH259383   5.014   4.924   1.742  0.1783  0.8935  0.1696
12631TIP3    H159384   4.941   4.926   1.681  0.8279 -0.3062 -0.6936
12631TIP3    H259385   5.085   4.883   1.693  1.4911  2.1592  0.9332
12632TIP3   OH259386   4.063   3.224  15.615 -0.4693  0.0092  0.4732
12632TIP3    H159387   4.062   3.278  15.694  0.6151 -0.8046  1.0674
12632TIP3    H259388   4.089   3.284  15.546 -0.0575  0.4301  0.9841
12633TIP3   OH259389   0.328   6.524   3.817  0.0098 -0.1900 -0.1735
12633TIP3    H159390   0.265   6.573   3.764  1.1221  3.1909  1.3416
12633TIP3    H259391   0.404   6.513   3.760 -1.4246 -3.4101 -1.6729
12634TIP3   OH259392   4.422   4.214   4.398  0.2940  0.5589  0.1050
12634TIP3    H159393   4.449   4.131   4.360  4.1839  2.3486 -1.7072
12634TIP3    H259394   4.449   4.210   4.489 -2.2783 -1.0670  0.9107
12635TIP3   OH259395   5.786   1.603  16.118 -0.2822 -0.3823  0.2070
12635TIP3    H159396   5.710   1.566  16.075  0.0484 -0.5094 -0.2726
12635TIP3    H259397   5.781   1.570  16.208  0.3706 -2.1977 -0.3729
12636TIP3   OH259398   0.848   4.242  16.892  0.1564  0.6629 -0.1236
12636TIP3    H159399   0.768   4.251  16.945 -0.1316 -0.2048 -0.3911
12636TIP3    H259400   0.915   4.216  16.955 -0.2520 -0.6566 -0.2042
12637TIP3   OH259401   5.826   2.003   4.929  0.3722 -0.4072  0.0221
12637TIP3    H159402   5.770   1.938   4.887 -0.1201  0.5011 -0.7712
12637TIP3    H259403   5.788   2.015   5.016  0.0207 -0.6344 -0.0994
12638TIP3   OH259404   2.831   3.098   0.156 -0.2659  0.3423 -0.8918
12638TIP3    H159405   2.874   3.141   0.082 -0.7946 -0.3779 -1.6340
12638TIP3    H259406   2.818   3.167   0.220  0.6390  0.8797 -1.2688
12639TIP3   OH259407   3.330   0.326   2.494 -0.2799  0.1821 -0.0787
12639TIP3    H159408   3.412   0.278   2.491 -0.3329  0.0914 -0.0844
12639TIP3    H259409   3.281   0.285   2.565 -0.3158  0.2430 -0.0684
12640TIP3   OH259410   5.035   0.981   2.687 -0.1618 -0.2689 -0.0425
12640TIP3    H159411   5.009   0.932   2.608 -1.8173  2.2755 -1.1980
12640TIP3    H259412   5.118   1.022   2.663 -0.5855  0.3763 -0.4399
12641TIP3   OH259413   4.561   3.032   3.499  0.0096 -0.4612  0.0208
12641TIP3    H159414   4.480   3.078   3.476  1.0954  0.4563 -2.1800
12641TIP3    H259415   4.531   2.954   3.547 -2.2169 -0.4213 -1.1609
12642TIP3   OH259416   3.218   6.021   4.674  0.2290 -0.0320  0.0137
12642TIP3    H159417   3.133   6.066   4.674  0.3154  0.1405  0.3487
12642TIP3    H259418   3.273   6.075   4.731  1.0550  0.7494 -1.4924
12643TIP3   OH259419   6.720   0.733   3.210 -0.3557  0.2030 -0.0087
12643TIP3    H159420   6.733   0.778   3.126  1.0903 -1.0978 -0.5178
12643TIP3    H259421   6.625   0.719   3.216 -0.5650  1.1083 -0.9814
12644TIP3   OH259422   3.314   0.684  16.201 -1.3969  0.0398  0.0897
12644TIP3    H159423   3.349   0.702  16.288  0.1608 -0.1236 -0.4521
12644TIP3    H259424   3.262   0.604  16.211  0.5707 -1.2828  0.5132
12645TIP3   OH259425   5.334   2.762   0.161  0.3212  0.2266 -0.0032
12645TIP3    H159426   5.248   2.774   0.201 -1.0061 -1.8607 -1.9980
12645TIP3    H259427   5.391   2.738   0.235 -0.7189  1.7062  1.3617
12646TIP3   OH259428   0.936   4.798   0.102 -0.3622 -0.2968 -0.4691
12646TIP3    H159429   0.930   4.844   0.186 -0.8264  0.0100 -0.6635
12646TIP3    H259430   0.858   4.827   0.054 -0.2537 -0.7006 -0.8892
12647TIP3   OH259431   1.125   6.283  15.576 -0.4887  0.1984  0.2131
12647TIP3    H159432   1.168   6.360  15.615 -0.1588 -0.2002  0.6565
12647TIP3    H259433   1.186   6.254  15.508 -0.3366 -0.0042  0.4313
12648TIP3   OH259434   0.612   0.051  14.476 -0.2420  0.3507  0.4521
12648TIP3    H159435   0.604   0.125  14.416  0.5669  0.2924  0.2668
12648TIP3    H259436   0.527   0.048  14.521 -0.3115  1.3346  0.4128
12649TIP3   OH259437   2.649   3.662  14.015 -0.2244  0.3121 -0.5151
12649TIP3    H159438   2.602   3.651  14.098  0.9077  0.9101  0.2394
12649TIP3    H259439   2.741   3.670  14.041  0.1909  0.1666 -1.8662
12650TIP3   OH259440   1.207   2.050  13.565  0.4155  0.0637  0.1909
12650TIP3    H159441   1.147   2.109  13.612  0.6139 -0.3955  1.0361
12650TIP3    H259442   1.210   1.971  13.619  0.6329 -0.4884 -0.6155
12651TIP3   OH259443   3.204   2.981  14.209 -0.2257  0.4915  0.3670
12651TIP3    H159444   3.172   2.922  14.276 -1.2652  0.4982 -0.1011
12651TIP3    H259445   3.196   3.068  14.248 -2.0392  0.6079 -0.1964
12652TIP3   OH259446   4.672   6.791   2.592  0.0726  0.3110  0.6025
12652TIP3    H159447   4.580   6.795   2.618  0.6610  1.3676  2.7889
12652TIP3    H259448   4.699   6.701   2.613  0.0940  0.6643  2.2481
12653TIP3   OH259449   4.354   0.986   5.898 -0.7774  0.5653 -0.8640
12653TIP3    H159450   4.300   0.948   5.968  0.5894  1.8667  0.9907
12653TIP3    H259451   4.300   1.055   5.861 -1.1256  0.5582 -0.3860
12654TIP3   OH259452   3.727   0.423   1.670 -0.4005  0.5084 -0.1006
12654TIP3    H159453   3.646   0.376   1.651 -1.2595  0.2439  3.5582
12654TIP3    H259454   3.698   0.503   1.715  1.3301  1.5997 -0.7941
12655TIP3   OH259455   4.283   5.309   2.558 -0.4086  0.2844  0.2894
12655TIP3    H159456   4.347   5.295   2.488 -1.2146 -0.3698 -0.3426
12655TIP3    H259457   4.240   5.392   2.536 -0.7240  0.0332 -0.0431
12656TIP3   OH259458   4.949   2.564  16.295 -0.6242 -0.0607 -0.6075
12656TIP3    H159459   4.902   2.579  16.213 -1.5703 -1.9668 -0.4702
12656TIP3    H259460   5.006   2.490  16.277 -1.1054 -0.7372  0.5341
12657TIP3   OH259461   5.515   6.582  16.406  0.2107  0.5362  0.0257
12657TIP3    H159462   5.440   6.590  16.465  1.0190  2.2270  0.8748
12657TIP3    H259463   5.547   6.672  16.396  0.1868  0.2969 -2.9058
12658TIP3   OH259464   4.585   5.488   4.340 -0.0061 -0.4544 -0.0215
12658TIP3    H159465   4.622   5.412   4.296 -0.9949 -0.6815 -0.4952
12658TIP3    H259466   4.638   5.562   4.309 -0.1489 -0.7253 -0.9312
12659TIP3   OH259467   2.872   2.738   5.960 -0.0849  0.3133 -0.2305
12659TIP3    H159468   2.864   2.826   5.998 -1.3477  0.1931 -0.1868
12659TIP3    H259469   2.799   2.733   5.898 -0.9196 -1.2332  0.8235
12660TIP3   OH259470   2.434   3.389   3.964 -0.0513 -0.7298 -0.8925
12660TIP3    H159471   2.397   3.335   4.034  0.2148 -1.1507 -1.0775
12660TIP3    H259472   2.358   3.433   3.925  0.0193  2.4079  2.0039
12661TIP3   OH259473   2.670   0.526   2.430 -0.1662  0.1864  0.6395
12661TIP3    H159474   2.626   0.456   2.381  0.3101  0.5252 -0.3019
12661TIP3    H259475   2.599   0.584   2.458 -0.4096  0.2787 -0.1384
12662TIP3   OH259476   2.609   2.108   6.397 -0.7530 -0.4334  0.3765
12662TIP3    H159477   2.610   2.018   6.430 -1.2430 -0.0787  1.4134
12662TIP3    H259478   2.587   2.161   6.474 -0.1794  0.6023 -0.1578
12663TIP3   OH259479   2.743   2.927  13.598 -0.8519 -0.7202 -0.3143
12663TIP3    H159480   2.817   2.911  13.658 -0.0913  2.0317 -0.3808
12663TIP3    H259481   2.756   2.865  13.527  0.6971 -1.1189  0.2741
12664TIP3   OH259482   1.245   3.149  12.764 -1.0452 -0.0029  0.1672
12664TIP3    H159483   1.244   3.147  12.859 -1.4570  1.0234  0.2016
12664TIP3    H259484   1.153   3.142  12.739 -0.8903 -0.8468 -0.1753
12665TIP3   OH259485   1.306   6.719   3.704  0.5904 -0.2689 -0.0057
12665TIP3    H159486   1.390   6.682   3.730  0.0892 -1.7439 -0.4192
12665TIP3    H259487   1.306   6.717   3.609 -0.2133 -0.9924  0.0008
12666TIP3   OH259488   2.935   2.705   2.335  0.7592 -0.0753 -0.1890
12666TIP3    H159489   2.855   2.701   2.387  0.4603 -2.6974 -0.7039
12666TIP3    H259490   3.005   2.714   2.400  0.2219 -0.5162  0.4676
12667TIP3   OH259491   2.387   6.216   6.215  0.5015 -0.2376 -0.0090
12667TIP3    H159492   2.315   6.168   6.257 -2.0936  2.4258 -1.0975
12667TIP3    H259493   2.372   6.307   6.239  2.9561  0.5584 -1.1805
12668TIP3   OH259494   0.991   5.761  16.666  0.8250 -0.2859  0.6135
12668TIP3    H159495   0.972   5.746  16.573  1.1998 -2.8323  0.8922
12668TIP3    H259496   1.077   5.804  16.666  0.2000  1.0646 -0.2117
12669TIP3   OH259497   0.553   0.563  16.374 -0.2395  0.1214  0.5770
12669TIP3    H159498   0.607   0.615  16.434  0.5488  0.4075 -0.3522
12669TIP3    H259499   0.512   0.628  16.317 -0.1279 -0.2113  0.1142
12670TIP3   OH259500   2.705   2.844   5.546  0.2369  0.1221  0.1518
12670TIP3    H159501   2.654   2.782   5.493  2.2970 -0.9263 -0.7060
12670TIP3    H259502   2.647   2.920   5.556 -1.3292 -0.8346 -1.0856
12671TIP3   OH259503   5.385   1.480   4.755  0.1516  0.2667  0.3171
12671TIP3    H159504   5.459   1.460   4.812  0.5319  1.2996  0.2035
12671TIP3    H259505   5.402   1.569   4.723 -0.8038  0.2684 -0.2327
12672TIP3   OH259506   0.209   0.093   5.427  0.0910  0.1131  0.1613
12672TIP3    H159507   0.118   0.068   5.412  0.2321 -1.8240  2.1065
12672TIP3    H259508   0.205   0.164   5.491 -0.0300 -0.8213  1.2044
12673TIP3   OH259509   3.497   4.917   3.887  0.2626 -0.2205 -0.3102
12673TIP3    H159510   3.463   4.828   3.875  1.8512 -1.1649  1.7560
12673TIP3    H259511   3.577   4.906   3.938  0.3767  2.4337  0.2093
12674TIP3   OH259512   0.482   1.253   0.093  0.1002  0.1329 -0.1131
12674TIP3    H159513   0.417   1.191   0.060  0.4735  0.0273 -0.6724
12674TIP3    H259514   0.522   1.290   0.014 -1.0768  2.1544  0.1637
12675TIP3   OH259515   5.749   3.437   0.586  0.3618  0.2197  0.3571
12675TIP3    H159516   5.723   3.510   0.642  1.2795 -0.0139  1.1109
12675TIP3    H259517   5.680   3.372   0.596  0.9459 -0.1931  1.9452
12676TIP3   OH259518   1.992   4.296   4.413  0.4878  0.0207 -0.4753
12676TIP3    H159519   2.085   4.277   4.404  0.9957  1.3542  1.3764
12676TIP3    H259520   1.960   4.304   4.323  3.0234  3.4489 -1.2809
12677TIP3   OH259521   5.753   2.408  13.120  0.9997  0.1363  0.4789
12677TIP3    H159522   5.845   2.418  13.097  1.7045 -2.1298  2.0148
12677TIP3    H259523   5.732   2.318  13.097 -1.3910  1.0576 -1.4238
12678TIP3   OH259524   3.174   2.599  10.501  0.2119  0.6667 -0.2108
12678TIP3    H159525   3.093   2.650  10.491 -0.1518  0.0627 -0.3545
12678TIP3    H259526   3.158   2.518  10.453  0.0696 -0.4323  1.6323
12679TIP3   OH259527   6.525   2.556  13.998  0.1302  0.0445  0.1001
12679TIP3    H159528   6.621   2.552  13.991  0.3341  2.6317  0.4919
12679TIP3    H259529   6.494   2.486  13.940  2.2252 -1.0032  0.1247
12680TIP3   OH259530   5.800   4.744  15.857 -0.3571  0.4638  0.2848
12680TIP3    H159531   5.817   4.835  15.833  0.7562  0.2447  0.1761
12680TIP3    H259532   5.707   4.732  15.840 -0.3366  1.3313 -0.5423
12681TIP3   OH259533   0.693   3.365   6.142  0.5836  0.0034 -0.5348
12681TIP3    H159534   0.672   3.316   6.222  0.1796 -1.3830 -1.4416
12681TIP3    H259535   0.748   3.304   6.092  1.7326  1.2619 -0.8651
12682TIP3   OH259536   2.611   6.015  12.174  0.3300 -0.3103 -0.1075
12682TIP3    H159537   2.523   6.052  12.163  0.2238 -0.7118 -0.6314
12682TIP3    H259538   2.629   5.971  12.091  0.7988 -0.7152  0.2085
12683TIP3   OH259539   2.465   3.553   3.686 -0.2075  0.0741  0.0638
12683TIP3    H159540   2.494   3.504   3.763 -0.1110  2.3679  1.5719
12683TIP3    H259541   2.539   3.610   3.664 -1.4474  1.9023  0.4216
12684TIP3   OH259542   5.168   6.690  11.222  0.3780 -0.7898  0.1560
12684TIP3    H159543   5.247   6.707  11.273  0.7198 -0.1376 -0.5583
12684TIP3    H259544   5.194   6.708  11.132 -0.1002 -2.2904 -0.3029
12685TIP3   OH259545   1.818   1.366  14.205 -0.0475  0.0128 -0.2194
12685TIP3    H159546   1.771   1.312  14.141 -2.3165  2.4600 -0.7658
12685TIP3    H259547   1.853   1.439  14.154  0.4491  0.6004  0.9148
12686TIP3   OH259548   1.610   0.549  14.762 -0.3738 -0.1382  0.2199
12686TIP3    H159549   1.590   0.642  14.755  2.6411  0.9576  3.3086
12686TIP3    H259550   1.567   0.522  14.844 -0.4083 -1.2282 -0.1420
12687TIP3   OH259551   4.481   5.258  14.484 -0.3731 -0.0292 -0.5206
12687TIP3    H159552   4.447   5.316  14.552  0.0815  0.4249 -0.6758
12687TIP3    H259553   4.552   5.308  14.443  1.6621 -1.5833  0.9334
12688TIP3   OH259554   0.852   5.152   2.860  0.6511  0.0062 -0.3645
12688TIP3    H159555   0.939   5.160   2.898  1.4709 -0.6968 -2.0014
12688TIP3    H259556   0.854   5.070   2.811 -1.9217 -1.6402  1.9722
12689TIP3   OH259557   1.229   6.743  13.142  0.4182  0.2091 -0.0327
12689TIP3    H159558   1.279   6.809  13.190 -0.0367  1.1417 -0.8379
12689TIP3    H259559   1.294   6.698  13.089  1.0569 -1.2850  1.8706
12690TIP3   OH259560   3.828   4.918   4.305 -0.5608 -0.0237  0.2028
12690TIP3    H159561   3.837   4.822   4.302 -1.8196 -0.1870  0.7941
12690TIP3    H259562   3.893   4.946   4.369  0.1762 -0.4267 -0.3557
12691TIP3   OH259563   0.296   2.281  17.158  0.1618  0.0292  0.8147
12691TIP3    H159564   0.302   2.202  17.212 -0.7265 -0.2574  0.5076
12691TIP3    H259565   0.279   2.351  17.221 -0.7197 -0.2804  0.9332
12692TIP3   OH259566   4.063   4.976  14.610 -0.0609  0.5896  0.0176
12692TIP3    H159567   4.154   4.986  14.582 -0.0188 -0.4783 -0.2636
12692TIP3    H259568   4.067   4.983  14.706  0.5527 -0.8453  0.1352
12693TIP3   OH259569   2.243   5.254   2.947  0.1837 -0.2267 -0.6357
12693TIP3    H159570   2.189   5.264   3.025  0.6258  1.2792 -0.4942
12693TIP3    H259571   2.183   5.223   2.880 -1.2087  2.5403 -0.8180
12694TIP3   OH259572   0.230   1.181   5.614  0.1672 -0.2197  0.0595
12694TIP3    H159573   0.187   1.124   5.550 -0.9712  1.3691 -0.6313
12694TIP3    H259574   0.324   1.163   5.603  0.1127  0.8965 -2.9826
12695TIP3   OH259575   6.545   3.585  16.350  0.1510  0.7877  0.4286
12695TIP3    H159576   6.508   3.643  16.416  2.9142  1.7109  1.2739
12695TIP3    H259577   6.583   3.644  16.285  0.0716 -0.1187 -0.4709
12696TIP3   OH259578   5.420   5.375   6.611 -0.4542  0.1833  0.4391
12696TIP3    H159579   5.376   5.448   6.656  0.2719  1.6505 -1.1082
12696TIP3    H259580   5.508   5.374   6.648 -0.0389  1.0169 -0.4677
12697TIP3   OH259581   3.539   1.442  11.436 -0.4307  0.0723 -0.2758
12697TIP3    H159582   3.463   1.407  11.389 -0.7490 -0.7956  0.8384
12697TIP3    H259583   3.566   1.371  11.495  0.9018  0.5738 -0.2514
12698TIP3   OH259584   2.135   5.499  12.883 -0.4339 -0.1960 -0.4258
12698TIP3    H159585   2.218   5.490  12.929 -1.4206 -0.3380  1.4418
12698TIP3    H259586   2.129   5.422  12.826  0.0573 -0.9654  0.5397
12699TIP3   OH259587   0.498   2.533  13.173 -0.1444 -0.5605  0.0848
12699TIP3    H159588   0.461   2.554  13.259 -1.3601 -0.3488 -0.4631
12699TIP3    H259589   0.580   2.583  13.169  0.3282 -1.1991  1.4241
12700TIP3   OH259590   0.737   3.495  14.508  0.6388  0.7887  0.8203
12700TIP3    H159591   0.791   3.421  14.479 -0.5850 -1.6003  4.0666
12700TIP3    H259592   0.781   3.529  14.586 -0.7995  0.9303  1.6110
12701TIP3   OH259593   1.363   1.086   2.670  0.0882 -0.2136  0.2639
12701TIP3    H159594   1.363   0.990   2.674 -1.5798 -0.3394 -1.7327
12701TIP3    H259595   1.456   1.109   2.670  0.5193 -1.7865  1.1834
12702TIP3   OH259596   5.565   1.348   2.741 -0.0153  0.1251 -0.1889
12702TIP3    H159597   5.594   1.362   2.831  1.6240  1.2483 -0.8339
12702TIP3    H259598   5.534   1.433   2.712 -0.1235 -0.1257 -0.8241
12703TIP3   OH259599   1.316   3.842   2.014 -0.0864  0.2653  0.8894
12703TIP3    H159600   1.349   3.774   1.954 -0.3947  1.3752 -0.5963
12703TIP3    H259601   1.221   3.829   2.015 -0.0368 -0.0735  1.5648
12704TIP3   OH259602   3.090   4.961   5.286  0.6536  0.5821  0.2072
12704TIP3    H159603   3.032   4.924   5.353 -0.3124  1.3100 -0.2170
12704TIP3    H259604   3.031   4.998   5.220  1.5182 -1.8126 -2.0924
12705TIP3   OH259605   5.876   6.128   1.678 -0.3040  0.3843  0.5994
12705TIP3    H159606   5.947   6.181   1.716 -0.4040  0.7759  0.2513
12705TIP3    H259607   5.816   6.113   1.751 -0.5968  1.3043  0.5644
12706TIP3   OH259608   3.857   4.183   4.479  0.3472  0.2477 -0.1376
12706TIP3    H159609   3.793   4.112   4.488  0.3740  0.0241 -1.5481
12706TIP3    H259610   3.940   4.139   4.463  1.1561  0.4874  2.7941
12707TIP3   OH259611   1.588   6.717   3.187  0.0613 -0.1796 -0.0460
12707TIP3    H159612   1.648   6.729   3.260  2.4288 -2.2739 -1.4748
12707TIP3    H259613   1.584   6.802   3.145 -0.0193  0.6358  1.5383
12708TIP3   OH259614   0.954   3.520  16.958 -0.4866  0.6042 -0.3610
12708TIP3    H159615   0.922   3.454  17.020 -0.1917  1.0599  0.2844
12708TIP3    H259616   0.875   3.551  16.913 -0.3990 -2.0189 -2.5579
12709TIP3   OH259617   6.018   3.155  10.875  0.1002  0.1908 -0.4177
12709TIP3    H159618   6.039   3.099  10.949 -0.2936  2.7920  1.8374
12709TIP3    H259619   5.938   3.117  10.838 -0.2148 -0.6780  1.0729
12710TIP3   OH259620   1.560   5.475   0.627  0.4919  0.6162 -0.1483
12710TIP3    H159621   1.499   5.452   0.697 -0.5580  1.8517 -0.5962
12710TIP3    H259622   1.646   5.479   0.669 -0.1681  1.7093  1.1891
12711TIP3   OH259623   5.979   3.222  16.578 -0.4330 -0.2817  0.1706
12711TIP3    H159624   5.899   3.171  16.566  0.2717 -1.0284 -1.8594
12711TIP3    H259625   6.027   3.177  16.646 -0.7514 -1.1337 -0.1580
12712TIP3   OH259626   1.551   6.155  15.852  0.3466  0.6503 -0.4459
12712TIP3    H159627   1.494   6.216  15.900  2.0136  0.4776  1.9516
12712TIP3    H259628   1.606   6.212  15.798  0.1750  1.0760 -0.1801
12713TIP3   OH259629   0.017   4.010  11.294 -0.3506  0.1142 -0.3568
12713TIP3    H159630   0.097   4.059  11.274  0.6584 -1.1308  0.5238
12713TIP3    H259631  -0.050   4.052  11.239  1.3424 -0.2583 -2.8704
12714TIP3   OH259632   5.750   2.918  15.173  0.2217 -0.0762 -0.0211
12714TIP3    H159633   5.837   2.928  15.134  0.8186  1.1003  1.5088
12714TIP3    H259634   5.744   2.825  15.192  2.0165  0.0842  1.6743
12715TIP3   OH259635   6.250   3.438   2.567  0.1591 -0.2206 -0.1576
12715TIP3    H159636   6.264   3.344   2.577  1.9816  0.1862  2.0950
12715TIP3    H259637   6.326   3.469   2.518  0.0136  0.2007 -0.1231
12716TIP3   OH259638   1.431   0.451  11.296 -0.0013  0.1035  0.1458
12716TIP3    H159639   1.413   0.537  11.333  1.8435  1.0827 -1.0936
12716TIP3    H259640   1.387   0.451  11.211  0.0464 -0.1792  0.1186
12717TIP3   OH259641   1.003   1.733  16.266 -0.7193  0.1434 -0.3311
12717TIP3    H159642   0.917   1.698  16.289 -0.6182 -0.3548 -0.7031
12717TIP3    H259643   1.009   1.720  16.171  0.1517 -0.6865 -0.1667
12718TIP3   OH259644   0.265   0.781   5.665  0.4451 -0.0982 -0.0307
12718TIP3    H159645   0.275   0.830   5.747 -1.0054 -2.6369  1.8419
12718TIP3    H259646   0.343   0.802   5.614  1.5035  1.4597  2.0719
12719TIP3   OH259647   0.292   1.511   6.498 -0.4857  0.1546 -0.0903
12719TIP3    H159648   0.222   1.486   6.437 -1.1090  0.1153  0.6322
12719TIP3    H259649   0.260   1.484   6.584 -0.2636  1.5580  0.4539
12720TIP3   OH259650   4.570   4.406   2.993 -0.6889 -0.1020  0.1215
12720TIP3    H159651   4.484   4.432   3.027 -0.3754 -0.1024  0.9567
12720TIP3    H259652   4.582   4.459   2.914 -1.6972 -0.5245 -0.3263
12721TIP3   OH259653   0.775   5.405   2.772  0.0156  1.0203  0.1074
12721TIP3    H159654   0.690   5.384   2.733 -0.6959  0.6952  1.7516
12721TIP3    H259655   0.807   5.321   2.805  2.3515  0.5525 -2.8869
12722TIP3   OH259656   4.131   4.514  16.331  0.2712  0.1850  0.6370
12722TIP3    H159657   4.036   4.502  16.327  0.1579  1.1132 -0.0005
12722TIP3    H259658   4.156   4.480  16.416 -0.3151 -2.0062 -0.0051
12723TIP3   OH259659   4.395   5.821  16.831  0.5369 -0.6441 -0.7349
12723TIP3    H159660   4.341   5.858  16.900  0.1586 -1.7022 -0.4498
12723TIP3    H259661   4.360   5.858  16.750  0.2020 -0.3434 -0.4520
12724TIP3   OH259662   6.505   3.460   3.549  0.3269 -1.0936  0.2118
12724TIP3    H159663   6.560   3.484   3.475  0.7926 -2.4025  0.1042
12724TIP3    H259664   6.503   3.364   3.548 -0.8847 -1.1109  1.0040
12725TIP3   OH259665   6.537   3.114  16.612  0.3798  0.4002  0.3231
12725TIP3    H159666   6.500   3.201  16.598 -2.7052 -0.7902  0.3368
12725TIP3    H259667   6.536   3.073  16.525  0.1411 -0.2053  0.6040
12726TIP3   OH259668   4.887   6.428   5.435  0.7470  0.2714  0.3384
12726TIP3    H159669   4.863   6.518   5.411 -0.7788 -0.3804 -0.7636
12726TIP3    H259670   4.824   6.373   5.388  1.6119 -1.3865  1.0249
12727TIP3   OH259671   1.066   1.234   2.459  0.2581 -0.2728 -0.2112
12727TIP3    H159672   1.149   1.197   2.429  0.7685  0.3673  0.3709
12727TIP3    H259673   1.083   1.261   2.549 -0.7337 -0.5744  0.0762
12728TIP3   OH259674   3.125   0.739  11.805 -0.1239 -0.2696  0.3022
12728TIP3    H159675   3.108   0.645  11.796  0.2240 -0.2351 -0.9035
12728TIP3    H259676   3.179   0.761  11.729  1.9808  0.4087  1.8880
12729TIP3   OH259677   1.134   2.276   4.512  0.4462  0.0103  0.0729
12729TIP3    H159678   1.044   2.303   4.533 -0.7132 -2.4919 -1.3029
12729TIP3    H259679   1.143   2.293   4.418  1.8153  1.1601  0.3754
12730TIP3   OH259680   2.032   4.122  12.782  0.8421 -0.4533  0.2701
12730TIP3    H159681   1.938   4.105  12.790  0.4949  1.3096  0.2775
12730TIP3    H259682   2.072   4.064  12.846 -0.3877 -0.0075  1.4936
12731TIP3   OH259683   0.078   5.573  13.256 -0.2178 -0.3389 -0.1649
12731TIP3    H159684   0.136   5.632  13.305  0.8854 -1.7187  0.2727
12731TIP3    H259685  -0.010   5.605  13.275  0.3263  0.9288  0.3516
12732TIP3   OH259686   5.416   5.682  13.671 -0.1640  0.1012 -0.2405
12732TIP3    H159687   5.429   5.733  13.751 -2.2259  0.4335 -0.0495
12732TIP3    H259688   5.461   5.599  13.687  1.0684  0.8837  0.4757
12733TIP3   OH259689   5.272   2.303  11.648  0.1110  0.1912  0.1141
12733TIP3    H159690   5.193   2.296  11.701 -1.3354 -1.6026 -2.0607
12733TIP3    H259691   5.334   2.244  11.690 -0.9786 -1.1515 -0.0692
12734TIP3   OH259692   4.968   5.823   5.393 -0.2374 -0.3657 -0.0930
12734TIP3    H159693   4.896   5.787   5.444  0.6390  0.3556  1.7615
12734TIP3    H259694   5.025   5.748   5.376 -0.6841 -0.6691 -0.2675
12735TIP3   OH259695   3.276   1.481   1.073  0.0920 -0.4394  0.7034
12735TIP3    H159696   3.273   1.386   1.083  0.5206 -0.4660  0.6025
12735TIP3    H259697   3.202   1.502   1.016  1.5036 -1.0230 -1.4713
12736TIP3   OH259698   4.884   6.097  16.485 -0.0764  0.1303  0.1566
12736TIP3    H159699   4.807   6.043  16.501  0.9362 -1.0488  1.3150
12736TIP3    H259700   4.949   6.036  16.448  0.8244  0.7200  0.7231
12737TIP3   OH259701   0.350   5.416   5.942 -0.2100  0.5394  0.2778
12737TIP3    H159702   0.344   5.377   6.029 -1.2311  0.3549  0.1266
12737TIP3    H259703   0.439   5.396   5.913  0.2877  0.9719  1.4471
12738TIP3   OH259704   6.216   2.415   4.918 -0.2265  0.1505 -0.3698
12738TIP3    H159705   6.185   2.386   5.003  0.2359 -1.8274 -0.8331
12738TIP3    H259706   6.205   2.339   4.861 -0.1217  1.2958 -1.9811
12739TIP3   OH259707   1.346   1.747   3.467 -0.9647 -0.4483  0.0374
12739TIP3    H159708   1.318   1.804   3.539 -1.4888 -0.4896 -0.1292
12739TIP3    H259709   1.384   1.807   3.403 -1.2760 -0.3145 -0.0240
12740TIP3   OH259710   2.213   5.472   4.264  0.3078 -0.3392 -0.2177
12740TIP3    H159711   2.185   5.432   4.181  0.7388 -0.6554 -0.2140
12740TIP3    H259712   2.306   5.489   4.252  0.2377  0.2008 -0.0252
12741TIP3   OH259713   6.378   0.634  15.487 -0.4833  0.1754 -0.0452
12741TIP3    H159714   6.391   0.629  15.392 -0.5721  0.1358 -0.0554
12741TIP3    H259715   6.316   0.706  15.499 -0.1314  0.4678  0.0163
12742TIP3   OH259716   3.049   4.658   3.177 -0.0722  0.5522  0.1930
12742TIP3    H159717   2.961   4.640   3.211 -0.0615 -0.0303 -0.0663
12742TIP3    H259718   3.086   4.571   3.162  0.6369  0.7965  0.5256
12743TIP3   OH259719   6.208   2.995  14.870 -0.1586 -0.4722 -0.2508
12743TIP3    H159720   6.283   2.948  14.905  0.1729 -0.6976 -1.2366
12743TIP3    H259721   6.242   3.044  14.795 -0.3521  1.9494  1.1816
12744TIP3   OH259722   0.506   5.400   0.568  0.2950 -0.4452  0.2549
12744TIP3    H159723   0.522   5.306   0.574  1.6960 -0.1808  0.9390
12744TIP3    H259724   0.517   5.421   0.475 -0.2807 -0.9857  0.0593
12745TIP3   OH259725   0.997   4.261   4.573 -0.4089 -0.0504  0.3287
12745TIP3    H159726   0.934   4.259   4.501 -1.2177 -0.9425  1.0409
12745TIP3    H259727   0.944   4.250   4.652  0.4186  1.3310  1.1199
12746TIP3   OH259728   5.241   4.530   2.598 -0.3862  0.0172 -0.6416
12746TIP3    H159729   5.288   4.464   2.648 -5.0293 -2.2102  1.3350
12746TIP3    H259730   5.215   4.486   2.517 -0.2085  0.8292 -1.1655
12747TIP3   OH259731   4.651   6.090   4.161 -0.2089 -0.5448 -0.3642
12747TIP3    H159732   4.628   6.167   4.214 -3.0569 -1.4737 -0.0908
12747TIP3    H259733   4.702   6.125   4.089 -1.5544  1.6698 -0.3384
12748TIP3   OH259734   3.907   5.295  13.209  0.1281 -0.0494 -0.2630
12748TIP3    H159735   3.989   5.259  13.174  1.3892  1.6393  0.7832
12748TIP3    H259736   3.905   5.385  13.176  0.3882  0.9769  2.3094
12749TIP3   OH259737   6.653   0.440  13.271  0.5909  0.3056 -0.5456
12749TIP3    H159738   6.594   0.369  13.296  1.3460 -0.3359 -0.5480
12749TIP3    H259739   6.635   0.453  13.178  1.1458 -0.5845 -0.7939
12750TIP3   OH259740   2.004   0.558   1.357  0.1394  0.1641 -0.4612
12750TIP3    H159741   1.997   0.616   1.281 -0.8482  1.2725  0.4386
12750TIP3    H259742   1.933   0.495   1.346  0.1926  0.1276 -0.6049
12751TIP3   OH259743   1.320   5.895   5.536  0.3206 -0.2379 -0.9461
12751TIP3    H159744   1.255   5.918   5.470  0.4182  2.1018 -0.2871
12751TIP3    H259745   1.269   5.849   5.604 -0.1334 -0.8017 -1.6438
12752TIP3   OH259746   6.445   0.167   5.104 -0.2802 -0.1600 -0.3307
12752TIP3    H159747   6.374   0.192   5.163  0.0054  0.0288 -0.0623
12752TIP3    H259748   6.509   0.238   5.112 -0.7242  0.4215 -1.7039
12753TIP3   OH259749   6.141   4.542   1.182 -0.2177  0.6265 -0.0092
12753TIP3    H159750   6.143   4.495   1.098 -0.2324 -0.9638  0.8450
12753TIP3    H259751   6.191   4.486   1.241  0.0604  1.8909  0.9812
12754TIP3   OH259752   3.707   0.417   5.866  0.1428 -0.1892 -0.1749
12754TIP3    H159753   3.774   0.381   5.808 -1.3831  0.2800 -2.3739
12754TIP3    H259754   3.728   0.510   5.872  0.2528 -0.2223 -0.0511
12755TIP3   OH259755   5.701   4.508  12.140  0.4296  0.1301  0.5486
12755TIP3    H159756   5.706   4.602  12.123 -0.5809  0.1084  0.0416
12755TIP3    H259757   5.791   4.482  12.158  1.2166  0.6649 -2.1337
12756TIP3   OH259758   2.844   2.379  13.772  0.6107  1.1974  0.2257
12756TIP3    H159759   2.790   2.452  13.803 -2.0719 -0.7830  0.6218
12756TIP3    H259760   2.874   2.336  13.853  0.8637  0.9731  0.0138
12757TIP3   OH259761   3.683   6.066  12.516  0.1738 -0.2136 -0.3536
12757TIP3    H159762   3.748   6.073  12.447 -2.0005 -1.2256 -2.6792
12757TIP3    H259763   3.680   6.153  12.556  2.6690 -0.0726 -0.3348
12758TIP3   OH259764   6.207   4.641   2.979 -0.4132  0.4348 -0.4806
12758TIP3    H159765   6.151   4.717   2.995 -0.0978  0.4502  0.6653
12758TIP3    H259766   6.275   4.647   3.046  0.0442 -0.4525 -0.8497
12759TIP3   OH259767   1.676   3.875   4.355 -0.1386 -0.1225 -0.0410
12759TIP3    H159768   1.603   3.849   4.298  1.0412 -1.8180 -0.8213
12759TIP3    H259769   1.673   3.971   4.354 -0.5491 -0.0910 -2.4784
12760TIP3   OH259770   5.382   4.123   4.491  0.2401  0.8341  0.2678
12760TIP3    H159771   5.374   4.029   4.476 -0.1353  1.0785 -1.2475
12760TIP3    H259772   5.292   4.155   4.488  0.0887  0.9614  3.2289
12761TIP3   OH259773   2.562   3.458   0.978 -0.2168 -0.5163 -0.2670
12761TIP3    H159774   2.544   3.403   0.901 -1.2617 -0.0825 -0.3352
12761TIP3    H259775   2.553   3.548   0.946 -1.4468 -0.3384  0.5395
12762TIP3   OH259776   6.612   1.447  17.017 -0.0407 -0.4102 -0.6142
12762TIP3    H159777   6.657   1.453  17.101  0.4196 -2.1417 -0.6987
12762TIP3    H259778   6.679   1.465  16.952  0.3434 -2.0351 -0.7013
12763TIP3   OH259779   0.808   0.131  11.895 -0.0979  0.0683  0.0461
12763TIP3    H159780   0.729   0.114  11.844 -0.1645 -1.2202  0.5459
12763TIP3    H259781   0.812   0.227  11.903 -0.6848  0.2271 -1.4064
12764TIP3   OH259782   2.242   5.485   2.772 -0.0817  0.2128 -0.6564
12764TIP3    H159783   2.219   5.440   2.691 -3.6412 -0.2441  0.4351
12764TIP3    H259784   2.269   5.415   2.832  1.9140  0.4835 -1.1704
12765TIP3   OH259785   5.324   4.191  12.081  0.4614 -0.2700  0.4193
12765TIP3    H159786   5.255   4.175  12.017 -0.6010 -0.2277  1.5127
12765TIP3    H259787   5.292   4.149  12.161  1.5264  0.0873  1.0487
12766TIP3   OH259788   3.336   4.397   0.689  0.3903  0.2915  0.2889
12766TIP3    H159789   3.262   4.390   0.628  0.1703 -0.4284  0.6203
12766TIP3    H259790   3.327   4.484   0.727 -2.3295 -0.8872  2.8084
12767TIP3   OH259791   5.519   3.411  12.685 -0.0462  0.2630  0.4167
12767TIP3    H159792   5.610   3.383  12.694 -0.6200 -1.3941  1.6738
12767TIP3    H259793   5.468   3.335  12.713 -1.7927  1.8006  1.7114
12768TIP3   OH259794   4.872   3.925  11.693  0.6254 -0.9789  0.3847
12768TIP3    H159795   4.939   3.986  11.725  0.7076 -1.5266  1.3087
12768TIP3    H259796   4.847   3.875  11.771 -1.1619 -0.5122  0.1388
12769TIP3   OH259797   3.023   2.730  15.977  0.5804  0.7760 -0.0024
12769TIP3    H159798   3.015   2.697  15.888  3.6191  1.3943 -0.6287
12769TIP3    H259799   2.948   2.788  15.988 -1.6759 -1.7747 -0.8943
12770TIP3   OH259800   6.825   3.199  12.597 -0.0049 -0.3234  0.1610
12770TIP3    H159801   6.887   3.204  12.669  0.7855 -1.0210 -0.4496
12770TIP3    H259802   6.873   3.153  12.528 -0.9582 -0.2228 -0.5793
12771TIP3   OH259803   5.952   2.874   1.963 -0.3175  0.0903 -0.1790
12771TIP3    H159804   5.996   2.959   1.977 -1.1280  0.3607  0.8287
12771TIP3    H259805   5.932   2.843   2.051 -1.4265 -0.4126 -0.5995
12772TIP3   OH259806   6.609   2.473   4.270  0.6334 -0.1344  0.1207
12772TIP3    H159807   6.553   2.551   4.272  2.3197  1.2096 -1.7299
12772TIP3    H259808   6.692   2.502   4.308  0.7201 -1.5688  1.0926
12773TIP3   OH259809   0.327   1.183   0.926 -0.1503  0.6032 -0.0392
12773TIP3    H159810   0.244   1.143   0.952  0.2399  0.4235  1.0002
12773TIP3    H259811   0.358   1.227   1.006  1.6256 -0.8656  0.1445
12774TIP3   OH259812   3.666   2.127   6.221 -0.4594  0.4681  0.8116
12774TIP3    H159813   3.726   2.171   6.160 -1.4563  0.2113 -0.4016
12774TIP3    H259814   3.632   2.198   6.275  0.4581  0.7013  1.1039
12775TIP3   OH259815   2.018   0.052   6.160 -0.1751 -0.0115  0.2786
12775TIP3    H159816   2.036   0.079   6.250 -0.7584  0.7166  0.1882
12775TIP3    H259817   1.952   0.114   6.129  0.0925 -0.1898 -0.6868
12776TIP3   OH259818   4.586   2.763   6.740  0.1315 -0.1688 -0.0495
12776TIP3    H159819   4.643   2.840   6.732 -0.8788  0.5971 -0.1729
12776TIP3    H259820   4.646   2.688   6.738  1.1744  0.6167  0.3705
12777TIP3   OH259821   5.745   4.352   5.713 -0.1409  0.1120  0.0103
12777TIP3    H159822   5.691   4.408   5.769  0.1316 -0.7360  1.1479
12777TIP3    H259823   5.769   4.408   5.639  0.5091  1.6757  1.3428
12778TIP3   OH259824   3.844   5.472  12.377 -0.1904 -0.2259 -0.4696
12778TIP3    H159825   3.790   5.415  12.432  1.8041 -0.9121  0.9045
12778TIP3    H259826   3.932   5.438  12.387  0.9863  2.6136 -0.2021
12779TIP3   OH259827   4.076   0.018  11.023 -0.0886 -0.0866  0.8573
12779TIP3    H159828   4.048   0.109  11.024 -0.9196 -0.2842 -0.6514
12779TIP3    H259829   4.134   0.011  10.948 -1.1560 -1.0743  0.0738
12780TIP3   OH259830   1.382   1.789  12.217  0.1528  0.6251  0.1650
12780TIP3    H159831   1.315   1.857  12.218  0.8591  1.3286  0.5244
12780TIP3    H259832   1.419   1.791  12.305 -0.0116 -0.4293  0.2713
12781TIP3   OH259833   6.223   3.008  12.487 -0.0507  0.7029  0.3323
12781TIP3    H159834   6.276   2.929  12.481 -1.1354  0.0433 -0.8878
12781TIP3    H259835   6.212   3.022  12.581  1.3084  0.2282  0.5941
12782TIP3   OH259836   0.284   3.493  10.351  0.1398  0.8921  0.2237
12782TIP3    H159837   0.340   3.495  10.429  0.4412  1.6961 -0.0005
12782TIP3    H259838   0.286   3.402  10.322 -0.0494  0.5606  1.2043
12783TIP3   OH259839   6.466   4.578  14.708 -0.3810 -0.4894  0.1890
12783TIP3    H159840   6.465   4.607  14.617  0.6006 -2.6516 -0.5727
12783TIP3    H259841   6.527   4.639  14.752  0.0137 -0.1171 -0.8442
12784TIP3   OH259842   0.933   6.250  15.773 -0.8277  0.0530  0.5474
12784TIP3    H159843   0.983   6.287  15.700  0.1916 -1.3305  0.4933
12784TIP3    H259844   0.896   6.326  15.818  1.5480  1.1860  0.7464
12785TIP3   OH259845   6.175   3.273   3.909  0.1347  0.0393  0.4572
12785TIP3    H159846   6.142   3.248   3.995  1.9951 -0.4048  1.0709
12785TIP3    H259847   6.235   3.203   3.884  0.2605  0.5687 -0.8374
12786TIP3   OH259848   0.866   3.011   1.844 -0.5669 -0.5963  0.3852
12786TIP3    H159849   0.956   2.985   1.865  0.0726 -1.0390 -2.5201
12786TIP3    H259850   0.840   2.952   1.773 -2.3384  0.9558 -0.3294
12787TIP3   OH259851   0.952   6.208   4.898 -0.1596 -0.2815 -0.0802
12787TIP3    H159852   0.981   6.168   4.980 -1.1876 -1.3332 -0.1974
12787TIP3    H259853   0.861   6.180   4.888  0.3102 -1.2759 -2.2114
12788TIP3   OH259854   2.983   4.797   1.387 -0.0083 -0.7553  0.1930
12788TIP3    H159855   3.057   4.843   1.347 -0.9671  0.4159 -0.2658
12788TIP3    H259856   2.999   4.705   1.367  0.8390 -0.4271 -0.7044
12789TIP3   OH259857   5.917   0.061  15.171 -0.0685  0.3491  0.1120
12789TIP3    H159858   5.873   0.123  15.112 -2.8305 -1.0238  0.5571
12789TIP3    H259859   5.855  -0.011  15.180  2.6468 -2.1006  0.3357
12790TIP3   OH259860   6.258   6.277  13.172  0.1577  0.5991 -0.3234
12790TIP3    H159861   6.268   6.183  13.158 -4.2059 -0.0670 -0.2112
12790TIP3    H259862   6.308   6.294  13.253  0.8626 -1.6233 -0.2087
12791TIP3   OH259863   4.524   3.032  12.258 -0.5082  0.4739  0.1641
12791TIP3    H159864   4.534   3.025  12.164  2.1052  4.4008 -0.0693
12791TIP3    H259865   4.436   2.998  12.275  0.0728 -3.3137 -3.1199
12792TIP3   OH259866   4.631   5.433   2.748  0.0473 -0.4276  0.9008
12792TIP3    H159867   4.631   5.519   2.706  1.8354 -1.7454 -2.1895
12792TIP3    H259868   4.712   5.431   2.799 -0.2558 -0.1173  1.4000
12793TIP3   OH259869   3.043   0.828   2.679  0.1214  0.4288 -0.0531
12793TIP3    H159870   3.108   0.870   2.622  1.1735 -0.7018  0.2702
12793TIP3    H259871   3.054   0.734   2.662 -0.0614  0.1191  1.4629
12794TIP3   OH259872   0.096   1.566  12.085 -0.8183 -0.6914  0.1394
12794TIP3    H159873   0.127   1.532  12.001 -0.2422 -0.2449  0.1650
12794TIP3    H259874   0.119   1.498  12.148 -1.4795 -1.1403 -0.0963
12795TIP3   OH259875   5.708   5.063  11.604 -0.1477 -0.6372  0.4334
12795TIP3    H159876   5.675   5.085  11.691  2.0788  2.6044  0.6384
12795TIP3    H259877   5.765   4.988  11.618  2.2815  1.3949  2.4360
12796TIP3   OH259878   4.295   2.139   2.851  0.0724  0.7706  0.1914
12796TIP3    H159879   4.234   2.077   2.811  0.5712 -0.0278  0.6469
12796TIP3    H259880   4.360   2.156   2.783  0.1259  0.5241  0.1799
12797TIP3   OH259881   5.483   0.374   0.871  0.0290 -0.2593 -0.6909
12797TIP3    H159882   5.404   0.339   0.831 -0.9636 -1.9587  2.4364
12797TIP3    H259883   5.553   0.315   0.844 -0.7295 -1.7296  0.4140
12798TIP3   OH259884   6.365   3.763   5.803  0.2944 -0.0880  0.0719
12798TIP3    H159885   6.360   3.853   5.837  3.8956  0.2646  0.0715
12798TIP3    H259886   6.353   3.708   5.881 -0.6261  0.3783  0.2836
12799TIP3   OH259887   2.287   1.430  14.079 -0.9440 -0.2078  0.1962
12799TIP3    H159888   2.334   1.365  14.027  0.6853 -0.8724  2.3527
12799TIP3    H259889   2.298   1.512  14.030  0.7888 -0.7430 -0.3900
12800TIP3   OH259890   1.099   3.028  11.405 -0.3273  0.2847  0.0433
12800TIP3    H159891   1.166   3.013  11.339  0.6498 -0.0627  1.0893
12800TIP3    H259892   1.043   3.096  11.367 -0.6558 -0.9154 -1.7486
12801TIP3   OH259893   2.637   3.954   0.650 -0.0059  0.0280 -0.5127
12801TIP3    H159894   2.548   3.987   0.636  0.5636  1.1969 -1.5611
12801TIP3    H259895   2.630   3.860   0.635 -1.0519  0.1161 -0.6575
12802TIP3   OH259896   1.878   4.614  16.475  0.1502 -0.4519  0.4031
12802TIP3    H159897   1.903   4.541  16.531  0.1193 -0.2634  0.6692
12802TIP3    H259898   1.783   4.610  16.471  0.1831 -0.8231 -0.1322
12803TIP3   OH259899   1.874   3.196   4.312 -0.4671 -0.1183 -0.7430
12803TIP3    H159900   1.888   3.268   4.374  0.0156  2.2394 -3.3425
12803TIP3    H259901   1.780   3.197   4.295 -0.8633 -1.8237  0.9974
12804TIP3   OH259902   1.610   4.330  16.066  0.0293 -0.2082  0.2170
12804TIP3    H159903   1.700   4.304  16.047 -0.2775 -0.9422 -0.2844
12804TIP3    H259904   1.559   4.250  16.053 -1.1181  0.8464 -2.5516
12805TIP3   OH259905   5.957   0.965  14.001 -0.3903  0.3560 -0.1470
12805TIP3    H159906   5.949   0.872  13.979 -0.1703  0.3121 -0.0494
12805TIP3    H259907   5.888   0.979  14.067  0.0210  0.0926  0.3521
12806TIP3   OH259908   2.076   6.713   4.190 -0.0690  0.3943  0.3102
12806TIP3    H159909   1.992   6.681   4.225  0.6011 -2.2227 -0.2729
12806TIP3    H259910   2.092   6.659   4.113  0.9653  2.6131 -1.1435
12807TIP3   OH259911   4.935   4.178   1.271  0.0119  1.2294  0.7997
12807TIP3    H159912   4.857   4.215   1.313 -1.0623 -0.1316  0.0808
12807TIP3    H259913   4.902   4.103   1.222  2.0217 -0.3293  1.7248
12808TIP3   OH259914   0.130   3.535   0.834  0.1788 -0.4090  0.4903
12808TIP3    H159915   0.066   3.502   0.897  0.5109  0.2148  1.1732
12808TIP3    H259916   0.088   3.613   0.796 -0.2484 -1.0972 -0.4778
12809TIP3   OH259917   5.082   0.727  16.445  0.7035 -0.1374  0.7127
12809TIP3    H159918   5.134   0.711  16.366 -1.6720 -1.2498 -0.7452
12809TIP3    H259919   5.050   0.816  16.435 -0.9538 -0.8086 -0.5333
12810TIP3   OH259920   0.994   3.257  16.031  0.1071  0.6514 -0.5118
12810TIP3    H159921   1.001   3.218  16.119 -2.4662  2.3526  0.5630
12810TIP3    H259922   0.957   3.188  15.977 -0.5083  0.2961  0.3431
12811TIP3   OH259923   5.507   5.927   0.303 -0.0410  0.3833 -0.0252
12811TIP3    H159924   5.483   6.019   0.317 -0.3138  0.0148  2.2893
12811TIP3    H259925   5.591   5.931   0.257 -0.1117  1.7889 -0.0800
12812TIP3   OH259926   4.726   0.451  14.519 -0.5669  0.5280  0.0213
12812TIP3    H159927   4.654   0.450  14.457  1.1551  1.1344 -2.1281
12812TIP3    H259928   4.750   0.543  14.527 -0.6937  0.4568  1.5718
12813TIP3   OH259929   4.299   4.116  12.905 -0.5482 -0.1972 -0.0595
12813TIP3    H159930   4.227   4.099  12.965 -0.2207  0.8395  0.6716
12813TIP3    H259931   4.377   4.116  12.960 -0.1050 -0.3016 -0.6695
12814TIP3   OH259932   6.224   6.272   4.482  0.1764 -0.6240  0.4561
12814TIP3    H159933   6.226   6.367   4.475  0.7783 -0.6109  0.7785
12814TIP3    H259934   6.131   6.250   4.493 -0.1894 -0.2163 -1.5204
12815TIP3   OH259935   6.417   4.594  11.506  0.2691  0.0831  0.5348
12815TIP3    H159936   6.483   4.660  11.486  1.4143 -1.3257 -0.5836
12815TIP3    H259937   6.409   4.543  11.425 -0.0249 -1.5948  1.5645
12816TIP3   OH259938   0.232   1.873   0.715  0.5792 -0.0287 -0.3440
12816TIP3    H159939   0.170   1.800   0.717 -1.7189  1.7585 -1.1324
12816TIP3    H259940   0.277   1.870   0.799 -0.6638 -1.3618  0.3076
12817TIP3   OH259941   6.398   2.507  12.367  0.0135 -1.2091  0.0668
12817TIP3    H159942   6.372   2.458  12.288 -1.7302 -2.3026  1.2366
12817TIP3    H259943   6.422   2.439  12.430 -0.0678 -0.4211  0.9646
12818TIP3   OH259944   3.111   1.874  15.643  0.3550 -0.3140  0.2161
12818TIP3    H159945   3.178   1.894  15.577  0.1033 -1.5476 -0.4522
12818TIP3    H259946   3.037   1.840  15.592 -0.3830  0.0397  1.0338
12819TIP3   OH259947   0.161   4.545  15.447  0.1408  0.1380  0.2882
12819TIP3    H159948   0.241   4.514  15.490 -0.4496 -0.5257  0.9189
12819TIP3    H259949   0.113   4.466  15.425 -0.8562  0.5543  0.8915
12820TIP3   OH259950   3.891   3.880  12.240  0.2513 -0.3008 -0.1729
12820TIP3    H159951   3.961   3.932  12.202 -0.2675 -1.4759 -3.0290
12820TIP3    H259952   3.822   3.943  12.261  0.0751  0.3664 -2.5073
12821TIP3   OH259953   3.461   0.942  15.565 -0.0510  0.4012  0.4779
12821TIP3    H159954   3.423   0.967  15.481 -0.9633  0.3860  0.8630
12821TIP3    H259955   3.487   1.025  15.605  0.8273  0.3712 -0.0098
12822TIP3   OH259956   0.652   5.481   1.175 -0.2709  0.2230  0.2713
12822TIP3    H159957   0.583   5.540   1.142 -0.6839 -0.6150 -0.3955
12822TIP3    H259958   0.712   5.471   1.102  1.4458  2.1381  1.2913
12823TIP3   OH259959   4.275   1.583  13.063 -0.1329  0.0162 -0.0248
12823TIP3    H159960   4.333   1.556  13.134  0.6011  0.8089 -0.2950
12823TIP3    H259961   4.188   1.589  13.104 -0.3642 -2.6922  0.0238
12824TIP3   OH259962   0.563   5.496  16.801 -0.0296  0.0486 -0.1062
12824TIP3    H159963   0.615   5.451  16.867 -0.6301 -1.1682 -0.4435
12824TIP3    H259964   0.617   5.572  16.776  3.6649 -3.1357 -3.3379
12825TIP3   OH259965   2.436   5.564  12.604  0.0167  0.0146 -0.5361
12825TIP3    H159966   2.494   5.623  12.651 -0.6076  0.1505  0.0817
12825TIP3    H259967   2.444   5.480  12.648  0.7230 -0.3113 -1.2666
12826TIP3   OH259968   2.701   2.228  16.088  0.3423  0.5549 -0.1150
12826TIP3    H159969   2.685   2.322  16.080  2.2698  1.0003  0.6983
12826TIP3    H259970   2.648   2.201  16.162 -1.2123  0.6989 -1.1202
12827TIP3   OH259971   4.151   5.303  16.373  0.6316 -0.0811 -0.1550
12827TIP3    H159972   4.169   5.367  16.304 -1.9387 -1.3048 -2.1144
12827TIP3    H259973   4.088   5.348  16.430 -1.1899 -0.7401 -1.5421
12828TIP3   OH259974   0.328   0.385  10.712 -0.5859  0.0493 -0.5729
12828TIP3    H159975   0.398   0.436  10.673 -0.8075 -0.4193 -1.6142
12828TIP3    H259976   0.255   0.393  10.650 -0.7420 -1.2109 -0.5804
12829TIP3   OH259977   4.693   4.688  14.062 -0.0385 -0.0710 -0.3256
12829TIP3    H159978   4.770   4.632  14.052 -1.4480 -1.8593 -1.7541
12829TIP3    H259979   4.639   4.643  14.128 -0.0575  0.9865  0.4129
12830TIP3   OH259980   3.488   0.850   0.460  0.5752  0.1094  0.1302
12830TIP3    H159981   3.457   0.779   0.405 -0.1174  0.0468  0.5929
12830TIP3    H259982   3.582   0.833   0.470  0.6014 -0.1802 -0.5741
12831TIP3   OH259983   0.906   3.030   3.665 -0.0411  0.0807 -0.1774
12831TIP3    H159984   0.957   2.953   3.644  0.2435 -0.5936  2.5631
12831TIP3    H259985   0.815   2.999   3.668  0.1150 -0.3135  1.3451
12832TIP3   OH259986   4.272   2.885  11.206 -0.0002  0.1542 -0.4174
12832TIP3    H159987   4.289   2.792  11.214 -1.1348  0.1142  2.6734
12832TIP3    H259988   4.236   2.896  11.118  0.3511 -2.2538 -0.9125
12833TIP3   OH259989   5.594   0.413  16.448  0.2507 -0.0078 -0.0097
12833TIP3    H159990   5.626   0.503  16.455  0.5256 -0.0516 -0.6508
12833TIP3    H259991   5.500   0.420  16.469 -0.0239  0.6521 -1.3656
12834TIP3   OH259992   0.446   5.660   6.023 -0.3248  0.1167  0.1149
12834TIP3    H159993   0.393   5.727   5.979 -0.9304 -0.7878 -0.5444
12834TIP3    H259994   0.405   5.577   6.001 -1.0585 -0.3801  2.8874
12835TIP3   OH259995   0.763   4.069  12.186  0.1767  0.4231  0.1908
12835TIP3    H159996   0.681   4.024  12.165  1.0338 -2.4287  2.3570
12835TIP3    H259997   0.738   4.136  12.249 -0.6105  0.2419  0.0873
12836TIP3   OH259998   4.444   0.879  13.606  0.1943  0.1693  0.8320
12836TIP3    H159999   4.447   0.787  13.632  2.5820  0.0692  0.4773
12836TIP3    H260000   4.529   0.914  13.634 -0.4591  2.1435  0.4944
12837TIP3   OH260001   6.488   1.027  13.909 -0.2099  0.1403 -0.1792
12837TIP3    H160002   6.546   1.100  13.933  1.2820 -0.4297 -1.8286
12837TIP3    H260003   6.533   0.949  13.941  0.0270 -0.3237 -1.5886
12838TIP3   OH260004   3.248   6.789  15.792  0.2998 -1.1891  0.0375
12838TIP3    H160005   3.294   6.777  15.709  2.7435 -3.4255  1.5659
12838TIP3    H260006   3.316   6.815  15.854 -1.6154  1.4779  1.2367
12839TIP3   OH260007   6.233   4.756  13.060  0.5964 -0.0991  0.2244
12839TIP3    H160008   6.248   4.666  13.090 -1.6615 -1.3725 -1.9651
12839TIP3    H260009   6.310   4.777  13.007  0.8653 -1.0348  0.2164
12840TIP3   OH260010   5.466   2.639   3.624  0.5253  0.0859  0.7303
12840TIP3    H160011   5.466   2.556   3.575 -2.3253 -0.3610  1.3180
12840TIP3    H260012   5.424   2.702   3.566  0.6233  0.5535  1.1570
12841TIP3   OH260013   1.813   6.018   4.817 -0.3608  0.3659 -0.3086
12841TIP3    H160014   1.906   6.039   4.816  0.0528 -1.3323 -1.4356
12841TIP3    H260015   1.800   5.966   4.897 -0.7677  2.1456  0.8435
12842TIP3   OH260016   4.353   2.146   4.142  0.8082  0.3244  0.5321
12842TIP3    H160017   4.362   2.241   4.153 -0.4345  0.5886 -0.5335
12842TIP3    H260018   4.416   2.125   4.073  0.0354  0.6285 -0.2790
12843TIP3   OH260019   0.220   4.297  16.659 -0.3002 -0.3167  0.5289
12843TIP3    H160020   0.239   4.212  16.699 -0.3686 -0.3537  0.4832
12843TIP3    H260021   0.185   4.276  16.573  3.0096 -0.1491 -0.9667
12844TIP3   OH260022   0.936   3.078   4.856 -0.6273  0.0617 -0.0163
12844TIP3    H160023   0.908   3.131   4.930  0.5995 -1.1407  1.4044
12844TIP3    H260024   0.981   3.139   4.798 -1.2771  0.9651  0.4077
12845TIP3   OH260025   1.136   0.087   0.708 -0.0108 -0.3847  0.5004
12845TIP3    H160026   1.070   0.025   0.740  0.2411 -0.5472  0.7093
12845TIP3    H260027   1.215   0.067   0.759  0.3193 -0.4614 -0.0339
12846TIP3   OH260028   4.937   1.349  13.418  0.2602 -0.3133  0.0300
12846TIP3    H160029   4.999   1.367  13.489  3.3094  0.7233 -2.6552
12846TIP3    H260030   4.939   1.253  13.409 -0.8614 -0.5515  1.8018
12847TIP3   OH260031   2.334   2.028  15.510 -0.1872 -0.5161  0.6536
12847TIP3    H160032   2.243   2.033  15.539 -0.4494 -1.2034 -0.0314
12847TIP3    H260033   2.384   2.025  15.592 -0.5869  2.2025  1.0983
12848TIP3   OH260034   5.382   6.179  15.987  0.6566  0.1300  0.1282
12848TIP3    H160035   5.446   6.155  15.921 -0.0761 -0.9594 -0.2002
12848TIP3    H260036   5.377   6.103  16.045 -0.4505  0.1325  0.0538
12849TIP3   OH260037   0.637   6.376  12.721  0.1270 -0.2122 -0.0846
12849TIP3    H160038   0.713   6.330  12.686  0.8949  1.2748 -0.4575
12849TIP3    H260039   0.674   6.451  12.767 -1.1285  0.7346 -0.5815
12850TIP3   OH260040   3.667   1.378   5.348 -0.3548 -0.2846  0.2439
12850TIP3    H160041   3.754   1.415   5.332 -0.4467 -0.9365 -2.0562
12850TIP3    H260042   3.626   1.439   5.409  1.3300  0.5902  0.5652
12851TIP3   OH260043   1.049   3.002  13.247 -0.6187  0.1171 -0.3687
12851TIP3    H160044   1.013   3.046  13.324 -0.3678  0.6289 -0.5401
12851TIP3    H260045   1.096   2.927  13.282  0.3231  0.8866  0.0642
12852TIP3   OH260046   5.265   0.370  10.912  0.4542 -0.6729 -0.1739
12852TIP3    H160047   5.331   0.433  10.885 -0.8697  1.9451  2.1686
12852TIP3    H260048   5.183   0.404  10.875 -0.1064 -1.7347  0.0595
12853TIP3   OH260049   5.428   1.080   0.086 -0.6574  0.1575 -0.3803
12853TIP3    H160050   5.413   1.165   0.128 -0.8135  0.4113 -0.9443
12853TIP3    H260051   5.511   1.089   0.040  0.6538 -0.8206  1.6187
12854TIP3   OH260052   2.301   4.927   1.311 -0.3747  0.0159  0.6903
12854TIP3    H160053   2.369   4.970   1.363 -0.0839  0.9771 -0.4440
12854TIP3    H260054   2.229   4.912   1.372 -0.2655  1.6066  1.2374
12855TIP3   OH260055   2.416   4.063   5.151 -0.7820  0.3665  0.2578
12855TIP3    H160056   2.469   4.106   5.218 -0.1696 -1.8682  1.2863
12855TIP3    H260057   2.452   4.096   5.068  0.6856  0.6507  0.9763
12856TIP3   OH260058   3.182   5.520   4.781  0.3150  0.5414  0.6794
12856TIP3    H160059   3.271   5.509   4.746  0.1446  0.8449  0.1388
12856TIP3    H260060   3.130   5.549   4.706 -0.1962  0.5877  1.0451
12857TIP3   OH260061   6.771   4.748   2.023 -0.1835 -0.3391 -0.7565
12857TIP3    H160062   6.860   4.717   2.008 -0.3078 -0.4108 -1.3441
12857TIP3    H260063   6.731   4.751   1.936 -0.9945 -1.0430 -0.4175
12858TIP3   OH260064   1.727   0.232   4.612 -0.2753 -0.0023  0.2380
12858TIP3    H160065   1.742   0.140   4.637 -2.1570 -1.1448 -2.4352
12858TIP3    H260066   1.814   0.264   4.589  0.4195 -1.0936  1.2011
12859TIP3   OH260067   1.741   1.950   5.446  0.7461  0.3074 -0.4638
12859TIP3    H160068   1.700   2.037   5.441  1.3861  0.5818 -1.1646
12859TIP3    H260069   1.723   1.910   5.361 -0.3082 -0.6105  0.1743
12860TIP3   OH260070   1.469   0.543   1.134  0.1416 -0.3733 -0.1050
12860TIP3    H160071   1.538   0.608   1.147  1.6154 -2.0525  0.9085
12860TIP3    H260072   1.394   0.593   1.104  1.2950  1.7535  0.3903
12861TIP3   OH260073   2.796   2.086  12.179  0.3174 -0.0879  0.3558
12861TIP3    H160074   2.742   2.101  12.102  0.9766 -1.0661 -0.3183
12861TIP3    H260075   2.768   2.153  12.241  0.0430  0.9875 -0.8744
12862TIP3   OH260076   3.853   0.400  12.421 -0.0057  0.0923 -0.9202
12862TIP3    H160077   3.818   0.396  12.332 -1.2268 -0.8512 -0.4298
12862TIP3    H260078   3.842   0.312  12.455  0.9182  0.3136  0.0074
12863TIP3   OH260079   4.921   5.421   1.453 -0.3215 -0.0592  0.5201
12863TIP3    H160080   4.961   5.334   1.460 -1.0017 -0.4820 -0.6224
12863TIP3    H260081   4.925   5.456   1.542  3.9005  0.5332  0.2991
12864TIP3   OH260082   4.778   2.626   4.512 -0.2033  0.3009 -0.8321
12864TIP3    H160083   4.760   2.626   4.606 -2.0969 -0.8564 -1.1385
12864TIP3    H260084   4.869   2.655   4.505 -0.0138  0.4191  1.3403
12865TIP3   OH260085   4.640   1.604   2.150 -0.5575 -0.3564 -0.0588
12865TIP3    H160086   4.568   1.646   2.196 -0.5414  0.7488 -1.0091
12865TIP3    H260087   4.598   1.548   2.085 -0.5549 -0.7270  0.2490
12866TIP3   OH260088   6.634   2.912  12.346  0.0425 -0.8344 -0.5729
12866TIP3    H160089   6.574   2.868  12.407  0.0632  1.3879  1.1770
12866TIP3    H260090   6.719   2.870  12.360 -0.1397 -0.9154  0.2984
12867TIP3   OH260091   0.425   1.098   2.346  0.1310  0.1256 -0.3685
12867TIP3    H160092   0.351   1.051   2.383 -1.1984  2.8462  0.6960
12867TIP3    H260093   0.487   1.030   2.321 -2.2228 -2.2002 -0.2530
12868TIP3   OH260094   1.326   0.645  14.243 -0.2194 -0.0609  0.3526
12868TIP3    H160095   1.296   0.565  14.201 -1.7313  0.4945  0.3069
12868TIP3    H260096   1.308   0.632  14.336  0.2692 -0.0801  0.4458
12869TIP3   OH260097   1.278   3.816   1.222  0.0778 -0.0913 -0.4216
12869TIP3    H160098   1.342   3.844   1.156 -0.3934 -1.8843 -1.7111
12869TIP3    H260099   1.325   3.823   1.305  1.0254  1.2505 -1.0473
12870TIP3   OH260100   5.315   5.463  16.114  0.3469  0.0855  0.0096
12870TIP3    H160101   5.221   5.446  16.119  0.2358  0.8182  0.3792
12870TIP3    H260102   5.349   5.436  16.199  0.2273  1.3223  0.4619
12871TIP3   OH260103   4.309   4.977   6.469 -0.3865  0.6771 -0.1417
12871TIP3    H160104   4.285   5.060   6.428 -0.4070  0.2650 -0.9881
12871TIP3    H260105   4.247   4.913   6.433 -0.1755  0.2374  0.2557
12872TIP3   OH260106   0.065   4.615   5.039  0.1050  0.0052  0.5820
12872TIP3    H160107   0.113   4.642   5.118 -0.5283 -0.8692  1.2825
12872TIP3    H260108   0.132   4.612   4.970  0.5397  1.4481  0.9156
12873TIP3   OH260109   5.171   2.434   0.719 -0.0415 -0.2468  0.1901
12873TIP3    H160110   5.258   2.411   0.687  0.3805  2.1429 -0.6512
12873TIP3    H260111   5.188   2.497   0.789 -1.0816 -1.9920  2.1017
12874TIP3   OH260112   5.898   5.969  16.202  0.1927 -0.5144  0.3944
12874TIP3    H160113   5.822   5.960  16.144 -0.4106 -1.1774  1.2670
12874TIP3    H260114   5.955   5.897  16.177  0.5119 -0.0532 -0.2203
12875TIP3   OH260115   0.592   5.483  11.266 -0.2206  0.0184  0.0388
12875TIP3    H160116   0.516   5.542  11.268 -0.8099 -0.5525 -2.3920
12875TIP3    H260117   0.625   5.490  11.177  2.0242 -0.5249  0.7623
12876TIP3   OH260118   2.476   0.094   5.601  0.2413 -0.1281 -0.0704
12876TIP3    H160119   2.401   0.153   5.602  0.4766  0.1784  0.7134
12876TIP3    H260120   2.440   0.010   5.573  0.1575  0.6806 -2.7170
12877TIP3   OH260121   1.775   6.114  15.017 -0.2625 -0.3903 -0.6595
12877TIP3    H160122   1.731   6.041  14.974 -0.8717 -1.2144  1.2870
12877TIP3    H260123   1.705   6.171  15.047  0.1176 -0.1237 -0.2596
12878TIP3   OH260124   0.428   3.259  16.292  0.1801 -0.3519  0.3346
12878TIP3    H160125   0.377   3.289  16.216 -0.1748 -0.4034  0.5508
12878TIP3    H260126   0.367   3.265  16.366 -0.2307 -2.4736  0.2520
12879TIP3   OH260127   1.959   4.157   2.265  0.0509 -0.0515  0.1570
12879TIP3    H160128   1.896   4.213   2.219  0.5885 -0.2184 -0.8243
12879TIP3    H260129   1.908   4.079   2.288 -0.7458  0.8871  1.6905
12880TIP3   OH260130   6.395   3.652   4.931  0.4171 -0.0263  0.0232
12880TIP3    H160131   6.354   3.633   5.016  0.4572 -1.0669 -0.1794
12880TIP3    H260132   6.328   3.700   4.882  0.6022  1.1113  0.8466
12881TIP3   OH260133   5.796   0.086  14.711  0.2217  0.3651 -0.0725
12881TIP3    H160134   5.842   0.004  14.728  0.9938  0.6478 -0.7974
12881TIP3    H260135   5.833   0.148  14.774 -1.1558 -0.0836  1.2728
12882TIP3   OH260136   6.319   3.910  16.690 -0.4357 -0.4124 -0.0368
12882TIP3    H160137   6.270   3.939  16.767 -0.6045 -0.4044 -0.1459
12882TIP3    H260138   6.364   3.831  16.718 -1.5122 -1.1503 -0.2910
12883TIP3   OH260139   3.175   0.760   5.740 -0.1901 -0.2100 -0.0910
12883TIP3    H160140   3.270   0.765   5.750 -0.0862  1.9456 -1.3702
12883TIP3    H260141   3.161   0.696   5.671  0.3354 -0.5996  0.1627
12884TIP3   OH260142   0.421   0.265  16.975 -0.9264  0.2636 -0.1855
12884TIP3    H160143   0.407   0.334  17.040 -0.3754  0.1537  0.0556
12884TIP3    H260144   0.486   0.207  17.015  0.3992  0.8817 -1.3422
12885TIP3   OH260145   5.938   5.565  14.602 -0.1256  0.4585  0.1254
12885TIP3    H160146   5.912   5.473  14.608 -0.3594  0.3148 -2.1606
12885TIP3    H260147   5.856   5.614  14.601  0.0044  0.9638  3.4357
12886TIP3   OH260148   4.574   6.478   5.818  0.6217 -0.3009  0.0920
12886TIP3    H160149   4.605   6.388   5.817 -1.4847 -1.1116  1.2827
12886TIP3    H260150   4.538   6.490   5.906 -1.5320  0.8022 -0.8599
12887TIP3   OH260151   1.831   1.005  10.905  0.3251  0.7040 -0.4076
12887TIP3    H160152   1.745   0.964  10.898  0.3384  0.7121 -0.6144
12887TIP3    H260153   1.825   1.059  10.984 -0.0961  1.2725 -0.8242
12888TIP3   OH260154   4.255   2.270   3.822 -0.3849 -0.4037  0.6434
12888TIP3    H160155   4.185   2.229   3.873 -2.1584  1.4209 -0.1677
12888TIP3    H260156   4.245   2.233   3.734 -0.4568  0.0080  0.4777
12889TIP3   OH260157   6.394   6.378  17.085  0.9151 -0.0007  0.2967
12889TIP3    H160158   6.437   6.464  17.083  0.6723  0.1193  0.1577
12889TIP3    H260159   6.376   6.363  17.178  1.4241 -0.1390  0.3773
12890TIP3   OH260160   4.966   2.306  12.090  0.1721  0.0981  0.4701
12890TIP3    H160161   4.990   2.274  12.004 -0.4108 -0.9046  0.6692
12890TIP3    H260162   4.959   2.228  12.145  2.1615  0.8067  1.8748
12891TIP3   OH260163   1.805   0.584  11.118 -0.3228 -0.5462  0.4625
12891TIP3    H160164   1.894   0.612  11.098 -0.5505 -0.4227 -0.4316
12891TIP3    H260165   1.815   0.499  11.161  0.3083  0.2822  2.0461
12892TIP3   OH260166   1.492   4.284  11.745  0.4059  0.3222 -0.5523
12892TIP3    H160167   1.552   4.229  11.795  0.5281 -0.7810 -1.8585
12892TIP3    H260168   1.525   4.280  11.655 -1.4172 -0.0198 -1.2371
12893TIP3   OH260169   4.737   3.653  15.341  0.3755  0.2427 -0.1394
12893TIP3    H160170   4.805   3.602  15.386  0.1985  0.9199  0.9403
12893TIP3    H260171   4.655   3.614  15.369  0.2833 -0.8959 -1.8401
12894TIP3   OH260172   0.292   0.724  13.130 -0.0505  0.2397 -0.4823
12894TIP3    H160173   0.356   0.681  13.075 -0.3894 -1.0916  0.1219
12894TIP3    H260174   0.219   0.661  13.136 -1.3233  1.6078 -0.9752
12895TIP3   OH260175   5.751   3.170   0.941 -0.6075 -0.0768  0.2272
12895TIP3    H160176   5.832   3.126   0.916  0.2260  1.2403  0.4798
12895TIP3    H260177   5.710   3.113   1.006  0.9101 -0.0262  1.2528
12896TIP3   OH260178   2.645   6.159  11.142 -0.4991 -0.2127 -0.0394
12896TIP3    H160179   2.708   6.192  11.078 -1.0298  1.5951  0.3239
12896TIP3    H260180   2.683   6.077  11.172  0.8839  0.0414 -0.9876
12897TIP3   OH260181   2.147   0.594   3.811 -0.2065 -0.3893  0.1042
12897TIP3    H160182   2.166   0.641   3.730 -1.4547  0.4705  0.2817
12897TIP3    H260183   2.144   0.502   3.785  1.6624 -0.3605 -0.3635
12898TIP3   OH260184   0.418   4.717   0.391  0.0413  0.8414 -0.1239
12898TIP3    H160185   0.334   4.674   0.374  0.3294 -0.2583  1.1036
12898TIP3    H260186   0.458   4.666   0.461  0.4805  3.0204  1.3291
12899TIP3   OH260187   0.265   2.392  14.953 -0.2523 -0.3165  0.2649
12899TIP3    H160188   0.300   2.320  14.902  3.1490  1.5491 -0.3719
12899TIP3    H260189   0.322   2.397  15.030  0.9255  2.7280 -0.6440
12900TIP3   OH260190   6.837   3.353   6.028 -0.2646  0.3694 -0.0819
12900TIP3    H160191   6.903   3.420   6.010 -0.6262  1.4030  2.1320
12900TIP3    H260192   6.755   3.401   6.036 -1.1317 -0.7629 -1.5737
12901TIP3   OH260193   1.315   2.465  16.043  0.3582  0.7919  0.2698
12901TIP3    H160194   1.299   2.383  15.996  1.8735  0.8939 -0.4956
12901TIP3    H260195   1.303   2.442  16.135  0.1507 -0.1422  0.0262
12902TIP3   OH260196   5.425   3.425   3.416 -0.4210 -0.0065  0.0931
12902TIP3    H160197   5.428   3.373   3.496 -2.2853 -0.8022 -0.3106
12902TIP3    H260198   5.516   3.452   3.402  0.5007 -2.4752  0.7507
12903TIP3   OH260199   3.545   5.586  13.759  0.2837  0.7643 -0.4762
12903TIP3    H160200   3.470   5.529  13.774  1.9277 -1.5022 -0.3591
12903TIP3    H260201   3.598   5.576  13.838  0.5287  2.7180 -0.3376
12904TIP3   OH260202   3.986   5.806  14.631 -0.2249  0.0057 -0.3678
12904TIP3    H160203   4.035   5.888  14.645  0.0776 -0.3015  0.4336
12904TIP3    H260204   4.053   5.738  14.629 -0.5951 -0.4245  0.7978
12905TIP3   OH260205   0.844   3.565  16.353 -0.1745 -1.0615  0.2731
12905TIP3    H160206   0.900   3.612  16.291 -0.6270 -2.7724 -1.4923
12905TIP3    H260207   0.763   3.549  16.306  0.0065 -3.7048  0.7085
12906TIP3   OH260208   1.848   2.814   1.911 -0.5964 -0.0636 -0.2366
12906TIP3    H160209   1.893   2.754   1.852 -0.5011 -2.1133  1.7852
12906TIP3    H260210   1.913   2.834   1.979 -1.5994 -0.1571  0.7694
12907TIP3   OH260211   6.211   6.339   1.191 -0.5535  0.1773 -0.7109
12907TIP3    H160212   6.221   6.426   1.229 -0.4716  0.6944 -1.8763
12907TIP3    H260213   6.182   6.355   1.101 -2.0366 -1.0272 -0.4977
12908TIP3   OH260214   2.587   0.988  13.960  0.5206 -0.3696  1.0246
12908TIP3    H160215   2.637   1.068  13.948 -0.4212  0.4791  2.3903
12908TIP3    H260216   2.532   0.981  13.882  0.9337  0.0711  0.6948
12909TIP3   OH260217   0.412   4.466   3.294 -0.3878  0.4455 -0.5100
12909TIP3    H160218   0.454   4.531   3.237  1.0212  0.1907  0.1900
12909TIP3    H260219   0.431   4.497   3.383  0.6365 -1.1218 -0.1610
12910TIP3   OH260220   5.638   1.909   3.817  0.0964  0.4074 -0.3283
12910TIP3    H160221   5.686   1.978   3.863  1.9227 -1.3259  0.4819
12910TIP3    H260222   5.694   1.886   3.743  0.3396 -1.2997  0.3394
12911TIP3   OH260223   3.838   3.379   5.961 -0.3554  0.0972  0.3439
12911TIP3    H160224   3.925   3.404   5.991 -0.3907  0.2610  0.3067
12911TIP3    H260225   3.797   3.338   6.038 -0.9625  1.7785  0.9573
12912TIP3   OH260226   5.851   3.049   0.606 -0.4034 -0.1343 -0.4261
12912TIP3    H160227   5.827   3.090   0.523  1.4941 -2.6075 -2.3751
12912TIP3    H260228   5.928   2.996   0.585 -0.5675 -1.8302  2.6596
12913TIP3   OH260229   5.460   2.621   0.391 -0.2136  0.5547 -0.2264
12913TIP3    H160230   5.521   2.674   0.442  0.4340  0.0567 -0.4617
12913TIP3    H260231   5.373   2.650   0.419  0.0961 -0.2145  1.7114
12914TIP3   OH260232   0.973   1.983  11.586 -0.6556  0.0900  0.2035
12914TIP3    H160233   0.904   1.939  11.536 -0.2245  0.9266 -1.1898
12914TIP3    H260234   1.053   1.965  11.536 -0.0177 -0.0339  1.2521
12915TIP3   OH260235   4.977   2.409   4.361 -0.8015 -0.2418  0.0337
12915TIP3    H160236   4.980   2.314   4.356 -0.1661 -0.2886  1.0470
12915TIP3    H260237   4.991   2.429   4.454  0.5222  0.8852 -0.3698
12916TIP3   OH260238   4.855   3.313  16.933 -0.3496 -0.4100  0.7979
12916TIP3    H160239   4.873   3.278  17.020  0.1973  0.8734  1.2247
12916TIP3    H260240   4.773   3.362  16.943 -1.2183 -1.6633  0.1590
12917TIP3   OH260241   1.700   1.428  12.381 -0.1737  0.2097 -0.2213
12917TIP3    H160242   1.785   1.468  12.361 -0.2727  0.1709 -0.7401
12917TIP3    H260243   1.698   1.348  12.327 -0.7800  0.5143 -0.6637
12918TIP3   OH260244   3.654   5.686   2.501  0.0918  0.3127  0.4207
12918TIP3    H160245   3.689   5.763   2.456 -0.2898  0.2314 -0.0284
12918TIP3    H260246   3.731   5.632   2.520  0.2296  0.1639 -0.5024
12919TIP3   OH260247   4.272   4.624   0.449 -0.0352  0.3904 -0.3816
12919TIP3    H160248   4.225   4.631   0.532 -1.7878  0.4305 -1.3148
12919TIP3    H260249   4.270   4.530   0.428 -1.9108  0.6490 -1.5779
12920TIP3   OH260250   4.299   3.922  14.894  0.0151 -0.0081 -0.1826
12920TIP3    H160251   4.318   3.837  14.856  0.4549 -0.2727  0.6145
12920TIP3    H260252   4.385   3.963  14.906  0.0061 -0.5136  1.8513
12921TIP3   OH260253   0.037   1.206   3.263 -0.4322 -0.1690 -0.0179
12921TIP3    H160254   0.053   1.253   3.344  2.5299 -1.0930  0.0511
12921TIP3    H260255   0.036   1.274   3.195 -2.7181  0.5783  0.6683
12922TIP3   OH260256   1.860   2.428   0.235 -0.2806 -0.2751  0.1353
12922TIP3    H160257   1.769   2.409   0.212  0.1826 -0.7851 -1.3687
12922TIP3    H260258   1.912   2.371   0.179  1.0068  1.0611 -0.1036
12923TIP3   OH260259   4.004   5.847  15.404  0.2006 -0.2875 -0.2455
12923TIP3    H160260   3.958   5.919  15.447  2.3008  1.1869 -0.3698
12923TIP3    H260261   4.013   5.874  15.313  0.4261 -1.0185 -0.4532
12924TIP3   OH260262   0.395   0.737  16.205 -0.1471  0.5767  0.0879
12924TIP3    H160263   0.416   0.806  16.142  0.8356  0.4251  0.2258
12924TIP3    H260264   0.302   0.720  16.193 -0.9972  3.5030  1.5808
12925TIP3   OH260265   1.900   3.540  15.250 -0.4073 -0.1275  0.4656
12925TIP3    H160266   1.851   3.621  15.236 -1.1937 -0.4521  1.1755
12925TIP3    H260267   1.951   3.527  15.170 -0.3421  1.0134  0.3126
12926TIP3   OH260268   0.653   3.265  11.761  0.2933 -0.8551 -0.0137
12926TIP3    H160269   0.589   3.203  11.796 -1.2806  0.3509 -0.6475
12926TIP3    H260270   0.711   3.211  11.706 -0.2189 -1.9576  0.5000
12927TIP3   OH260271   1.579   5.934  16.027  0.3125  0.2869  0.2235
12927TIP3    H160272   1.669   5.920  16.056  0.1444 -1.4208 -0.0270
12927TIP3    H260273   1.579   6.025  15.995  1.6521  0.6835  1.2344
12928TIP3   OH260274   5.705   6.132   4.136 -0.5131 -0.2581 -0.1820
12928TIP3    H160275   5.675   6.155   4.223  0.3056 -1.6933  0.5166
12928TIP3    H260276   5.665   6.197   4.078 -0.7140  0.9783  1.3003
12929TIP3   OH260277   1.675   4.558   6.253 -0.2036  0.1380 -0.4304
12929TIP3    H160278   1.591   4.519   6.230 -0.8984 -0.6301  2.8893
12929TIP3    H260279   1.652   4.644   6.289  0.6755  0.7950 -1.3779
12930TIP3   OH260280   6.240   5.823   0.158 -0.5422  0.3650  0.2776
12930TIP3    H160281   6.261   5.821   0.065 -0.0303 -2.8923  0.3405
12930TIP3    H260282   6.193   5.741   0.174  0.0401  0.4700  3.0086
12931TIP3   OH260283   0.961   5.340  15.191  0.4096 -0.1269  0.1104
12931TIP3    H160284   0.998   5.410  15.138  1.3409  0.3805  1.3584
12931TIP3    H260285   1.016   5.338  15.269 -0.9226 -0.8117  1.0795
12932TIP3   OH260286   0.861   5.705  11.178  0.2420  0.1022 -0.2753
12932TIP3    H160287   0.907   5.730  11.259  0.0631 -2.1066  0.5867
12932TIP3    H260288   0.862   5.784  11.125 -0.1453  1.8431  2.1169
12933TIP3   OH260289   5.352   5.552   4.614  0.8088 -0.2533 -0.3020
12933TIP3    H160290   5.310   5.566   4.529  0.9445  2.2699 -0.0231
12933TIP3    H260291   5.429   5.500   4.595  0.9287  0.4173 -1.7700
12934TIP3   OH260292   5.332   1.824   2.557  0.2166 -0.0997  0.4560
12934TIP3    H160293   5.254   1.840   2.504  0.7460  0.4021 -0.1898
12934TIP3    H260294   5.403   1.866   2.509  0.4005  2.3034  2.6141
12935TIP3   OH260295   0.640   5.619   1.945  0.8138  0.2305 -0.0038
12935TIP3    H160296   0.696   5.619   1.867  0.1085 -1.5213 -0.5593
12935TIP3    H260297   0.560   5.575   1.918  1.0927 -1.7302  2.0357
12936TIP3   OH260298   4.482   3.069   0.799  0.1972  0.5161 -0.1698
12936TIP3    H160299   4.410   3.104   0.852  0.9344  1.9318 -0.0637
12936TIP3    H260300   4.493   2.980   0.831 -1.7794  0.1073 -0.4745
12937TIP3   OH260301   4.482   4.538  17.075  0.2428  0.4295 -0.0725
12937TIP3    H160302   4.397   4.570  17.046 -0.6902  0.4171  2.3695
12937TIP3    H260303   4.541   4.613  17.062  0.1127  0.1910 -2.4941
12938TIP3   OH260304   0.241   4.934   4.229  0.8512 -0.6634 -0.4742
12938TIP3    H160305   0.196   4.973   4.305  1.0593 -0.2675 -0.5518
12938TIP3    H260306   0.312   4.995   4.210  0.5354 -0.5309 -1.2592
12939TIP3   OH260307   0.464   1.630  14.127  0.2396 -0.0363 -0.1485
12939TIP3    H160308   0.454   1.583  14.045 -1.3285 -0.1532  0.0703
12939TIP3    H260309   0.500   1.566  14.188 -0.4771 -0.5443 -0.2427
12940TIP3   OH260310   0.424   3.852   0.660 -0.2182  0.2507 -0.4121
12940TIP3    H160311   0.406   3.813   0.575  1.6645 -0.8237 -0.3686
12940TIP3    H260312   0.512   3.887   0.652 -0.1918  0.5438  0.9538
12941TIP3   OH260313   3.006   6.480  15.119  0.8909 -0.0579 -0.1852
12941TIP3    H160314   3.058   6.420  15.065  0.6343  0.2212 -0.7473
12941TIP3    H260315   3.058   6.560  15.123  1.7356 -0.6615  1.4520
12942TIP3   OH260316   1.326   2.516   1.414 -0.7146 -0.0056  0.4218
12942TIP3    H160317   1.422   2.520   1.418 -0.7160  0.9987 -0.2280
12942TIP3    H260318   1.296   2.577   1.481 -0.9401 -1.6869  1.9118
12943TIP3   OH260319   5.185   0.561   1.318 -0.6289  0.9154 -0.2112
12943TIP3    H160320   5.113   0.498   1.327  1.1457 -1.0461  1.1075
12943TIP3    H260321   5.249   0.517   1.262  1.4107  0.7337  2.1206
12944TIP3   OH260322   3.594   6.063   6.247 -0.2475  0.3303  0.2070
12944TIP3    H160323   3.537   6.088   6.320  0.1533  1.1599  0.2489
12944TIP3    H260324   3.580   5.969   6.237  0.7774 -0.1190  2.3346
12945TIP3   OH260325   5.797   6.325  16.259  0.6468 -0.1235  0.1036
12945TIP3    H160326   5.745   6.337  16.180  0.1263 -2.4317  0.0135
12945TIP3    H260327   5.883   6.359  16.236 -0.3561  2.4706 -0.2200
12946TIP3   OH260328   4.304   2.969   1.477  0.3222  0.1735 -0.7232
12946TIP3    H160329   4.389   2.946   1.439  0.8323 -0.8438  0.8929
12946TIP3    H260330   4.240   2.927   1.420  1.0746 -1.6736 -0.2717
12947TIP3   OH260331   1.116   1.449  16.359  0.0928 -0.0184  0.4204
12947TIP3    H160332   1.028   1.439  16.397 -0.6227  2.2760 -0.4146
12947TIP3    H260333   1.136   1.542  16.371  0.5430  0.4918 -3.1790
12948TIP3   OH260334   5.779   5.471  13.844 -0.1490 -1.0975  0.2317
12948TIP3    H160335   5.832   5.391  13.845  0.1789 -0.8842 -0.0288
12948TIP3    H260336   5.841   5.541  13.861 -0.6257 -0.9965  1.6858
12949TIP3   OH260337   0.249   5.267   0.874  0.7675  0.0814 -0.0603
12949TIP3    H160338   0.231   5.285   0.781 -1.4478 -1.9222 -0.1319
12949TIP3    H260339   0.237   5.351   0.917  1.1532  0.9149 -1.5036
12950TIP3   OH260340   4.049   5.710  15.717 -0.5668 -0.2241  0.2053
12950TIP3    H160341   4.007   5.690  15.633 -1.5152 -0.9895  0.8451
12950TIP3    H260342   3.979   5.706  15.781 -0.2690  2.4630  0.8008
12951TIP3   OH260343   6.709   2.141   2.658 -0.6520 -0.6034  0.4075
12951TIP3    H160344   6.787   2.136   2.603 -0.2502 -1.9460  1.0405
12951TIP3    H260345   6.644   2.186   2.604  0.3034 -0.1959 -0.4374
12952TIP3   OH260346   3.126   3.028  17.147 -0.1759 -0.0647  0.4302
12952TIP3    H160347   3.108   2.964  17.078  0.6787  0.9488 -0.7897
12952TIP3    H260348   3.211   3.002  17.182 -0.6344 -0.6103  1.1608
12953TIP3   OH260349   6.577   0.832  14.162 -0.2094  0.0978  0.0399
12953TIP3    H160350   6.510   0.791  14.106  0.2141 -0.5029 -0.0410
12953TIP3    H260351   6.653   0.775  14.153  0.3673  0.8626  0.0111
12954TIP3   OH260352   2.969   4.004  15.030  0.8587  0.3923 -0.3435
12954TIP3    H160353   2.970   4.099  15.024 -2.2726  0.4533 -1.9863
12954TIP3    H260354   2.942   3.985  15.120  0.0803  1.1270 -0.4118
12955TIP3   OH260355   1.551   2.166   4.861  0.4357  0.3352  0.2545
12955TIP3    H160356   1.488   2.220   4.814  1.0683 -0.1845 -1.2702
12955TIP3    H260357   1.519   2.077   4.850  0.7625  0.1809  0.5426
12956TIP3   OH260358   3.625   3.791  11.643 -0.3640 -0.0783 -0.2593
12956TIP3    H160359   3.552   3.769  11.586 -1.3761  2.1128  0.1016
12956TIP3    H260360   3.697   3.737  11.612 -1.0965  0.4282 -3.0929
12957TIP3   OH260361   6.386   1.835  16.053 -0.0722 -0.0863 -0.1692
12957TIP3    H160362   6.444   1.759  16.041  1.9211  0.6247  3.4805
12957TIP3    H260363   6.439   1.910  16.027  0.7658  0.5538  2.9951
12958TIP3   OH260364   0.508   6.421   5.261 -0.2802  0.3180 -0.1220
12958TIP3    H160365   0.545   6.456   5.342 -0.6259  0.3098  0.0390
12958TIP3    H260366   0.543   6.478   5.192  0.8151 -0.2672 -0.0817
12959TIP3   OH260367   4.228   0.220  12.488 -0.1256 -0.8275  0.5957
12959TIP3    H160368   4.305   0.266  12.520 -0.1152 -1.7946  2.0535
12959TIP3    H260369   4.195   0.275  12.417  0.1937  1.1624  1.8868
12960TIP3   OH260370   4.918   0.407   0.673  0.2382 -0.1486  0.0241
12960TIP3    H160371   4.924   0.376   0.763 -1.2656  0.1372  0.2411
12960TIP3    H260372   4.955   0.496   0.675 -0.5720  0.1813  0.5417
12961TIP3   OH260373   4.912   1.128  14.061 -0.3086  0.0817  0.6063
12961TIP3    H160374   4.898   1.171  13.977 -0.3062  0.9169  1.0271
12961TIP3    H260375   4.976   1.183  14.106  0.0083 -0.5898  0.9904
12962TIP3   OH260376   0.376   2.064   2.317 -0.0439  0.1272  0.0372
12962TIP3    H160377   0.359   2.029   2.404  0.4830  0.5086  0.3006
12962TIP3    H260378   0.396   1.986   2.264  1.2990  0.0222  0.6591
12963TIP3   OH260379   3.435   1.553   4.129 -0.4591  0.6344 -0.0301
12963TIP3    H160380   3.346   1.581   4.152 -0.7556 -0.7199  0.6064
12963TIP3    H260381   3.448   1.586   4.040 -2.1299 -0.2247 -0.6567
12964TIP3   OH260382   0.577   2.447  13.722 -1.0257 -0.1854 -0.1062
12964TIP3    H160383   0.532   2.364  13.708 -2.4149  0.1942  1.7129
12964TIP3    H260384   0.588   2.452  13.817  2.1344  0.1604 -0.3768
12965TIP3   OH260385   5.441   5.890   5.546 -0.3962  0.5745  0.4486
12965TIP3    H160386   5.522   5.870   5.593 -0.2057  0.6264  0.1487
12965TIP3    H260387   5.470   5.940   5.469 -0.5538 -0.6460 -0.4395
12966TIP3   OH260388   0.405   2.291  13.482  0.1901  0.2779 -0.0892
12966TIP3    H160389   0.389   2.272  13.575  1.5626  0.1665  0.1478
12966TIP3    H260390   0.318   2.299  13.444 -0.3999  0.0802  1.1612
12967TIP3   OH260391   6.454   4.120   4.595  0.5099 -0.0505  0.8293
12967TIP3    H160392   6.542   4.159   4.604  0.1155  1.1096 -0.1426
12967TIP3    H260393   6.396   4.185   4.635 -0.2336  0.7185 -1.3926
12968TIP3   OH260394   3.816   6.085   4.787  0.0909 -0.3376  0.3593
12968TIP3    H160395   3.793   6.006   4.835  0.3911  0.6850  2.2631
12968TIP3    H260396   3.905   6.106   4.815  0.0532  0.6252 -0.1722
12969TIP3   OH260397   1.024   5.183   4.364 -0.2865  0.1422  0.1969
12969TIP3    H160398   0.990   5.190   4.453  0.0609  1.2060  0.2636
12969TIP3    H260399   0.999   5.095   4.335 -1.2278  0.1356  0.9961
12970TIP3   OH260400   1.746   4.262   4.845 -0.2628  0.2535  0.4769
12970TIP3    H160401   1.733   4.339   4.791 -2.2035 -1.0543 -1.0993
12970TIP3    H260402   1.829   4.224   4.815 -1.4193 -0.5923 -1.9281
12971TIP3   OH260403   2.765   0.221  13.088  0.0120 -0.1595 -0.1916
12971TIP3    H160404   2.678   0.195  13.118  0.5706 -1.2897  0.4962
12971TIP3    H260405   2.796   0.283  13.154  0.8709 -1.9581  1.1960
12972TIP3   OH260406   6.122   1.383   5.154 -0.3090  0.0581  0.1352
12972TIP3    H160407   6.106   1.475   5.135 -3.1581  0.1071  2.1761
12972TIP3    H260408   6.158   1.382   5.243  2.1760 -0.7600 -0.7738
12973TIP3   OH260409   5.493   0.536   1.978 -0.0763 -0.5700  0.5010
12973TIP3    H160410   5.445   0.511   2.057 -0.5287  0.6568  0.6312
12973TIP3    H260411   5.428   0.533   1.908 -0.6446  1.9433  0.8185
12974TIP3   OH260412   2.844   4.909  12.012  0.1331 -0.0588 -0.4913
12974TIP3    H160413   2.791   4.830  12.006  0.8885 -0.5316 -0.9842
12974TIP3    H260414   2.918   4.894  11.953  0.5111  0.8382 -0.2695
12975TIP3   OH260415   5.218   1.788  13.921  0.6100 -0.5587 -1.0432
12975TIP3    H160416   5.237   1.698  13.894  1.4116 -0.2499 -1.5418
12975TIP3    H260417   5.269   1.843  13.861  0.7721  0.2015 -0.2347
12976TIP3   OH260418   5.430   4.558   4.721  0.0358  0.1545  0.5288
12976TIP3    H160419   5.506   4.506   4.697 -0.2903 -0.9049  1.7080
12976TIP3    H260420   5.457   4.649   4.707  0.8827 -0.2831 -0.7851
12977TIP3   OH260421   3.899   0.564  10.755  0.6221 -0.2433 -0.0083
12977TIP3    H160422   3.986   0.593  10.728 -0.2881  1.2915 -1.5500
12977TIP3    H260423   3.897   0.471  10.733  1.2232  0.1421 -1.9498
12978TIP3   OH260424   3.238   5.024   2.811 -0.1968  0.4479 -0.7282
12978TIP3    H160425   3.144   5.007   2.817  0.0598 -1.1738 -0.8812
12978TIP3    H260426   3.279   4.940   2.831  1.1962  0.7805 -1.9724
12979TIP3   OH260427   4.077   6.152  16.035 -0.6999 -0.0138  0.2111
12979TIP3    H160428   4.134   6.223  16.066 -1.2018  0.3476  0.3211
12979TIP3    H260429   4.119   6.073  16.068 -0.6182  0.2919  0.8610
12980TIP3   OH260430   3.774   5.740  13.764 -0.0835  0.0008 -0.2857
12980TIP3    H160431   3.812   5.654  13.785  0.3886 -0.4258 -2.6368
12980TIP3    H260432   3.685   5.721  13.735 -0.2701  0.4208 -0.0045
12981TIP3   OH260433   6.797   4.581   3.131 -0.4614 -0.9481  1.0620
12981TIP3    H160434   6.781   4.633   3.051  0.0063 -2.7414 -0.2681
12981TIP3    H260435   6.843   4.641   3.189  1.9892 -0.3855 -1.2251
12982TIP3   OH260436   1.593   0.712  12.553 -0.1384 -0.2132 -0.3375
12982TIP3    H160437   1.624   0.718  12.463 -0.3914 -0.5047 -0.4447
12982TIP3    H260438   1.498   0.724  12.547 -0.4840 -2.5474 -0.3834
12983TIP3   OH260439   4.871   3.082  12.506 -0.1757  0.0098  0.2313
12983TIP3    H160440   4.866   3.140  12.430  0.9007 -0.9609 -0.6084
12983TIP3    H260441   4.781   3.053  12.520 -0.2053 -0.9247 -1.6014
12984TIP3   OH260442   3.772   3.673   5.039 -0.0115 -0.2522  0.2479
12984TIP3    H160443   3.857   3.681   5.083 -0.5797 -2.2711  1.8696
12984TIP3    H260444   3.746   3.582   5.055 -1.7762 -0.1164 -1.5616
12985TIP3   OH260445   5.841   4.919   2.948  0.6283  0.0861 -0.2069
12985TIP3    H160446   5.860   4.837   2.992  0.5990  0.9996  1.6194
12985TIP3    H260447   5.927   4.955   2.926  0.8425  1.0439  1.9438
12986TIP3   OH260448   1.858   2.156  12.459 -0.6093  0.3121 -0.3929
12986TIP3    H160449   1.839   2.092  12.528  0.1689 -0.0591 -0.5099
12986TIP3    H260450   1.811   2.235  12.486 -0.7641  0.0019  0.2748
12987TIP3   OH260451   5.563   3.752  14.471  0.1357  0.0448 -0.0855
12987TIP3    H160452   5.586   3.816  14.539  1.4378 -0.1029 -0.3613
12987TIP3    H260453   5.543   3.672  14.520 -1.0827  0.5153  0.2365
12988TIP3   OH260454   2.527   3.768   2.346  0.0840 -0.3842 -0.1253
12988TIP3    H160455   2.563   3.830   2.410 -1.0402  0.9075 -0.6768
12988TIP3    H260456   2.434   3.790   2.342  0.1302 -0.3254 -2.2698
12989TIP3   OH260457   4.267   0.597   5.980  0.1633 -0.1824  0.0483
12989TIP3    H160458   4.203   0.577   5.912 -0.7556 -1.3280  1.1971
12989TIP3    H260459   4.239   0.681   6.015  1.2406  0.9384 -1.6021
12990TIP3   OH260460   6.483   5.019   3.799  0.3646 -0.1587 -0.4407
12990TIP3    H160461   6.414   5.040   3.735  0.5199  2.3692  0.1474
12990TIP3    H260462   6.564   5.019   3.748  0.3356  0.5156 -0.4928
12991TIP3   OH260463   4.180   2.010  10.421  0.5318  0.7330 -0.5933
12991TIP3    H160464   4.149   1.980  10.506  1.1406  0.9072 -0.3095
12991TIP3    H260465   4.193   2.104  10.432  1.2547  0.6434 -0.6806
12992TIP3   OH260466   6.139   2.447  17.054  0.1694 -0.4636 -0.3515
12992TIP3    H160467   6.206   2.479  17.115 -1.9336  1.8925  0.9265
12992TIP3    H260468   6.079   2.521  17.044 -1.2445 -1.8365 -2.9232
12993TIP3   OH260469   6.403   2.723   0.917 -0.1821  0.2319  0.2456
12993TIP3    H160470   6.319   2.726   0.962 -0.4610  1.6612 -0.3002
12993TIP3    H260471   6.383   2.689   0.830 -0.1798  0.4648  0.1532
12994TIP3   OH260472   5.378   1.297  12.195  0.0557 -0.1569 -0.2527
12994TIP3    H160473   5.400   1.322  12.285  0.6586 -3.1567  0.5608
12994TIP3    H260474   5.460   1.303  12.147  0.5301 -1.7829  0.2960
12995TIP3   OH260475   2.422   4.144   4.094 -0.4108 -0.4663 -0.0651
12995TIP3    H160476   2.464   4.184   4.170  0.1151 -0.6263 -0.2671
12995TIP3    H260477   2.492   4.094   4.052 -0.9212 -1.1308 -0.1370
12996TIP3   OH260478   5.404   3.052  12.471  0.2549 -0.2343 -0.1372
12996TIP3    H160479   5.376   3.143  12.485 -0.1435 -0.2965 -0.5137
12996TIP3    H260480   5.465   3.035  12.543 -1.3097 -0.3663  1.2069
12997TIP3   OH260481   3.737   3.582   1.339 -0.1985  0.5794 -0.2634
12997TIP3    H160482   3.802   3.609   1.405 -0.0518 -0.0938 -0.1232
12997TIP3    H260483   3.771   3.499   1.305 -1.9408 -0.8173  1.2048
12998TIP3   OH260484   6.327   5.669  12.491 -0.1906  0.4381  0.1875
12998TIP3    H160485   6.313   5.763  12.486  0.9282  0.6173  0.1190
12998TIP3    H260486   6.367   5.656  12.577  0.8993  0.2170 -0.3292
12999TIP3   OH260487   4.939   3.063   2.980  0.2233  0.5278 -0.7968
12999TIP3    H160488   5.008   3.001   3.005  0.0968  0.2518 -1.1235
12999TIP3    H260489   4.875   3.057   3.051  0.0179 -0.0180 -1.0225
13000TIP3   OH260490   6.737   6.088   3.617 -0.0652  0.1278  0.2949
13000TIP3    H160491   6.771   6.127   3.697 -0.0146 -2.0306  1.4111
13000TIP3    H260492   6.815   6.055   3.571 -0.2791 -1.3447  0.9196
13001TIP3   OH260493   6.602   1.514   3.968 -0.6005 -0.3391 -0.2823
13001TIP3    H160494   6.523   1.556   3.933 -1.2801 -0.1771  1.3404
13001TIP3    H260495   6.646   1.583   4.017  0.2302 -0.5998 -0.6366
13002TIP3   OH260496   3.294   0.923  14.276 -0.4178  0.5490  0.7162
13002TIP3    H160497   3.199   0.910  14.266 -0.4016  0.8806  0.1216
13002TIP3    H260498   3.332   0.856  14.219 -0.3245  2.4062 -1.5341
13003TIP3   OH260499   4.456   2.822  14.173  0.4506 -0.2640  0.2076
13003TIP3    H160500   4.388   2.867  14.222  2.0835  3.0573 -0.2678
13003TIP3    H260501   4.467   2.875  14.094  3.0762 -1.0360 -0.0320
13004TIP3   OH260502   3.066   4.987  16.994 -0.4863  0.4616 -0.2164
13004TIP3    H160503   3.053   4.893  16.982 -0.0818  0.3748  0.0082
13004TIP3    H260504   3.161   4.998  16.992 -0.5612  1.0455 -1.5627
13005TIP3   OH260505   4.636   1.188  13.951 -0.2509  0.2598 -0.2373
13005TIP3    H160506   4.601   1.147  13.872 -0.4199  1.1101 -0.6171
13005TIP3    H260507   4.624   1.122  14.020 -0.4417 -0.3453 -0.8410
13006TIP3   OH260508   0.422   3.422  14.957  0.3198 -0.4821  0.6078
13006TIP3    H160509   0.433   3.360  14.886  2.4875 -0.2751  0.6997
13006TIP3    H260510   0.418   3.368  15.036  0.2155 -0.6037  0.5188
13007TIP3   OH260511   6.147   4.856   6.446 -0.0942  0.4627  0.1468
13007TIP3    H160512   6.053   4.849   6.435 -0.0152 -0.9740  0.2725
13007TIP3    H260513   6.163   4.950   6.454 -0.9050  1.3141 -5.0284
13008TIP3   OH260514   3.092   5.287   5.004  0.5947  0.1259 -0.3169
13008TIP3    H160515   3.177   5.308   5.043  1.1257  1.6023 -2.1660
13008TIP3    H260516   3.030   5.343   5.051  1.2010  1.7487 -1.3731
13009TIP3   OH260517   2.754   1.847  13.878 -0.6238  0.4543 -0.0580
13009TIP3    H160518   2.737   1.767  13.928  1.9873 -0.8893 -1.1143
13009TIP3    H260519   2.842   1.873  13.905 -0.6443  1.8195 -1.2086
13010TIP3   OH260520   3.085   1.290   0.446  0.2048  0.2702  0.1104
13010TIP3    H160521   3.031   1.216   0.419 -0.8362  1.3824 -0.9567
13010TIP3    H260522   3.023   1.355   0.479  1.0532  0.8667  0.5625
13011TIP3   OH260523   6.236   3.919  11.207  0.6725 -0.2552  0.5660
13011TIP3    H160524   6.270   4.005  11.180  1.8148 -0.4188  1.4272
13011TIP3    H260525   6.172   3.939  11.275  0.3643 -0.0539  0.2253
13012TIP3   OH260526   5.519   2.315   3.035  0.0074  0.3181 -0.2304
13012TIP3    H160527   5.503   2.354   2.950 -0.6561  0.6166  0.0260
13012TIP3    H260528   5.447   2.346   3.090 -1.6773 -2.7384 -0.5004
13013TIP3   OH260529   5.121   2.408  14.382  0.0988  0.8400 -0.5557
13013TIP3    H160530   5.036   2.378  14.350 -1.1585  2.6456  0.8808
13013TIP3    H260531   5.106   2.427  14.474  3.1839 -2.7577  0.9417
13014TIP3   OH260532   1.838   4.411  11.287  0.2678 -0.4970  0.7078
13014TIP3    H160533   1.875   4.499  11.284 -1.0696  0.1363  1.5277
13014TIP3    H260534   1.913   4.352  11.279  1.2297  0.7145  0.6069
13015TIP3   OH260535   2.065   6.305  14.902 -0.2693  0.2812  0.6751
13015TIP3    H160536   2.123   6.380  14.894  0.9048 -0.7819 -2.0095
13015TIP3    H260537   1.994   6.335  14.959  1.8721  2.2594  2.5134
13016TIP3   OH260538   0.948   4.650   3.851  0.0676  0.3703 -0.3134
13016TIP3    H160539   0.936   4.722   3.788 -2.5520  3.1991  2.9899
13016TIP3    H260540   1.036   4.664   3.887  0.5598  0.3100 -1.4496
13017TIP3   OH260541   4.720   3.225   0.421  0.3625 -0.3568  0.1365
13017TIP3    H160542   4.715   3.134   0.448 -0.9243 -0.1114  0.8041
13017TIP3    H260543   4.803   3.256   0.457 -0.2702 -0.6533  1.9759
13018TIP3   OH260544   6.476   6.188  15.192 -0.0252  0.2760  0.4308
13018TIP3    H160545   6.458   6.277  15.223 -0.4644  0.2795  0.1698
13018TIP3    H260546   6.466   6.133  15.270  0.4651  0.4772  0.6422
13019TIP3   OH260547   5.465   1.548  13.948  0.4885 -0.0223  0.2809
13019TIP3    H160548   5.512   1.595  14.017  1.5338  0.3082 -0.6317
13019TIP3    H260549   5.524   1.550  13.873 -0.5921 -0.4466 -0.6067
13020TIP3   OH260550   6.492   6.121  16.351 -0.1239 -0.3494  0.1282
13020TIP3    H160551   6.474   6.052  16.288 -0.0884 -0.2872  0.0493
13020TIP3    H260552   6.471   6.202  16.304 -0.2159 -0.3103  0.2373
13021TIP3   OH260553   0.403   1.153   2.683 -0.3352 -0.0539  0.2065
13021TIP3    H160554   0.333   1.192   2.736  0.4511 -0.0790  1.2989
13021TIP3    H260555   0.361   1.133   2.600 -1.3691  0.8963  0.4655
13022TIP3   OH260556   3.075   0.513  10.561  0.1119  0.0942  0.4016
13022TIP3    H160557   3.102   0.596  10.523 -0.7042  0.0471 -0.3169
13022TIP3    H260558   3.143   0.492  10.625  0.7989  0.8538 -0.0664
13023TIP3   OH260559   0.036   4.331   5.000  0.0128  0.4657 -0.0564
13023TIP3    H160560   0.088   4.328   4.920  0.3180  0.4377  0.1426
13023TIP3    H260561   0.034   4.424   5.024  2.5956  0.1930  1.6338
13024TIP3   OH260562   0.538   6.095  17.099  0.5374  0.1222 -0.2406
13024TIP3    H160563   0.553   6.035  17.026  0.1628  0.2787 -0.4579
13024TIP3    H260564   0.600   6.069  17.166  0.5709 -0.3221 -0.4416
13025TIP3   OH260565   5.762   0.036   4.516 -0.5792  0.2707 -0.4041
13025TIP3    H160566   5.708  -0.043   4.527 -0.3631  0.3517  1.7385
13025TIP3    H260567   5.771   0.046   4.421 -3.1486 -0.5498 -0.8171
13026TIP3   OH260568   4.941   2.453  12.530 -0.8964  0.1227  0.2864
13026TIP3    H160569   4.900   2.505  12.600  2.5636  2.3767  0.8740
13026TIP3    H260570   4.922   2.502  12.450 -0.6688  0.2763  0.3276
13027TIP3   OH260571   3.475   1.010  16.106  0.2060 -0.2210 -0.4454
13027TIP3    H160572   3.394   1.011  16.155  0.0021  1.9721 -0.7358
13027TIP3    H260573   3.467   1.082  16.044  1.8173 -0.8215 -1.4376
13028TIP3   OH260574   5.087   2.122   3.530  0.8031 -0.1256  0.6162
13028TIP3    H160575   5.024   2.112   3.602 -1.6780  2.2398 -1.0518
13028TIP3    H260576   5.036   2.106   3.451  2.4914  1.0568 -0.7834
13029TIP3   OH260577   4.224   5.483  15.247 -0.8737 -0.6980  0.4491
13029TIP3    H160578   4.134   5.493  15.217 -1.2635 -1.6709  1.2301
13029TIP3    H260579   4.228   5.531  15.330 -0.6027 -0.4529  0.2958
13030TIP3   OH260580   3.441   3.188   0.535 -0.7725  0.6079  0.0294
13030TIP3    H160581   3.466   3.097   0.515  2.0514  0.9659  1.3385
13030TIP3    H260582   3.351   3.182   0.566 -0.3597 -1.9321  1.0373
13031TIP3   OH260583   1.511   3.485  11.491  0.4015 -0.8422 -0.1246
13031TIP3    H160584   1.539   3.461  11.403  0.4953  1.8077 -0.8952
13031TIP3    H260585   1.424   3.446  11.500 -0.4635  0.4733 -2.1885
13032TIP3   OH260586   3.876   2.111  14.434  0.5526  0.5287 -0.5363
13032TIP3    H160587   3.941   2.093  14.366  0.4856  0.2451 -0.5236
13032TIP3    H260588   3.921   2.169  14.495  0.2053  1.8892 -1.5156
13033TIP3   OH260589   5.639   2.383   1.970 -0.0569  0.0169  0.2359
13033TIP3    H160590   5.655   2.435   1.891 -0.9924  0.0874  0.0722
13033TIP3    H260591   5.545   2.392   1.985 -0.4578 -2.3980 -0.3832
13034TIP3   OH260592   5.832   2.613  13.756  0.0644  0.0245 -0.4892
13034TIP3    H160593   5.844   2.707  13.770 -0.6946  0.0467  0.0815
13034TIP3    H260594   5.738   2.599  13.766  0.3366 -1.0213  0.9598
13035TIP3   OH260595   4.134   1.914   2.226 -0.2931 -0.1046  0.2933
13035TIP3    H160596   4.166   2.004   2.230 -2.2754  0.7415 -0.9280
13035TIP3    H260597   4.186   1.873   2.157 -2.1422  1.4748 -2.2251
13036TIP3   OH260598   2.719   2.726   3.651  0.6081 -0.2124  0.2099
13036TIP3    H160599   2.740   2.646   3.699 -0.4341  0.2276  1.4686
13036TIP3    H260600   2.630   2.748   3.679 -0.2165 -0.1268 -2.2772
13037TIP3   OH260601   4.093   6.091   1.660 -0.8877 -0.7037 -0.5347
13037TIP3    H160602   4.012   6.054   1.694 -0.5302 -1.3595 -0.3826
13037TIP3    H260603   4.157   6.078   1.730 -0.8714  0.6861 -0.2642
13038TIP3   OH260604   0.260   5.849   5.985  0.1189  0.4509  0.1309
13038TIP3    H160605   0.173   5.824   6.018  1.2441 -1.8015  1.6474
13038TIP3    H260606   0.266   5.943   6.002 -1.2207  0.2614  1.9841
13039TIP3   OH260607   1.186   2.582   0.733  0.6631 -0.0825  0.1443
13039TIP3    H160608   1.141   2.590   0.650  2.0772  0.8119 -0.5781
13039TIP3    H260609   1.279   2.579   0.710  1.1321  0.8568  1.7030
13040TIP3   OH260610   5.217   2.275  12.882 -0.4079 -0.4706 -0.4134
13040TIP3    H160611   5.122   2.287  12.886 -0.5003 -1.2658  0.3839
13040TIP3    H260612   5.236   2.217  12.957  0.6887 -0.3980 -0.6222
13041TIP3   OH260613   5.303   2.131  16.975 -0.6997 -0.2615 -0.6154
13041TIP3    H160614   5.215   2.111  17.007 -0.3933 -1.1179 -0.2732
13041TIP3    H260615   5.309   2.085  16.891  0.3180 -2.4993  0.5843
13042TIP3   OH260616   0.996   1.578   1.824 -0.1764  0.0946 -0.6332
13042TIP3    H160617   1.019   1.485   1.832 -1.4520 -0.1697  0.2717
13042TIP3    H260618   0.911   1.585   1.866  0.0342  1.7524 -0.4240
13043TIP3   OH260619   0.081   4.042   3.786 -0.5615  0.2421 -0.1873
13043TIP3    H160620   0.070   3.980   3.714  2.5164  0.6669 -1.1667
13043TIP3    H260621   0.084   3.988   3.865 -2.1521 -0.3898 -0.5209
13044TIP3   OH260622   0.300   4.909   1.865 -0.0418  0.1094  0.2273
13044TIP3    H160623   0.241   4.955   1.925  0.7414  2.1636 -0.4892
13044TIP3    H260624   0.343   4.843   1.920 -1.0838  0.3211  1.3481
13045TIP3   OH260625   6.501   3.192   3.549  0.0066  0.6060 -0.3836
13045TIP3    H160626   6.468   3.139   3.621  1.3210  1.4835  0.9317
13045TIP3    H260627   6.474   3.146   3.470 -0.1205 -1.2428  0.6939
13046TIP3   OH260628   2.201   5.999  11.699 -0.0550 -0.3565  0.1228
13046TIP3    H160629   2.110   5.971  11.691 -0.0541 -0.3776  0.1875
13046TIP3    H260630   2.238   5.985  11.612  0.2959 -1.7793  0.4772
13047TIP3   OH260631   3.170   4.894  15.876 -0.1921 -0.6027 -0.1035
13047TIP3    H160632   3.163   4.800  15.895 -1.1530 -0.7265 -0.9358
13047TIP3    H260633   3.081   4.928  15.891  0.4284  0.4424  1.4210
13048TIP3   OH260634   4.450   1.740  12.584 -0.7618 -0.2176 -0.7838
13048TIP3    H160635   4.441   1.798  12.660 -1.2391  0.9000 -1.6636
13048TIP3    H260636   4.361   1.707  12.569 -0.5881 -0.7729 -0.6144
13049TIP3   OH260637   6.806   1.702  11.274  0.2524  0.2626 -0.5127
13049TIP3    H160638   6.822   1.782  11.324 -1.9982  0.3838  0.1427
13049TIP3    H260639   6.796   1.731  11.184  2.8131  0.2362 -0.8703
13050TIP3   OH260640   2.480   6.730  12.727  0.6952 -0.0859  0.0152
13050TIP3    H160641   2.520   6.657  12.679 -2.0630 -0.3448 -2.1769
13050TIP3    H260642   2.525   6.808  12.694  0.7279 -0.5031 -0.9734
13051TIP3   OH260643   2.992   3.681   5.020 -0.7439 -0.4214  0.0544
13051TIP3    H160644   2.945   3.676   5.103 -1.4703  1.9595 -0.1314
13051TIP3    H260645   3.072   3.729   5.041 -0.2737 -0.9981 -0.3869
13052TIP3   OH260646   1.701   6.457  10.324  0.6989  0.4867  0.1059
13052TIP3    H160647   1.675   6.547  10.341  0.2360  0.9565 -2.6030
13052TIP3    H260648   1.786   6.464  10.282 -0.0009 -0.1790 -1.4995
13053TIP3   OH260649   4.727   6.448   1.172 -0.4602 -0.0530  0.4522
13053TIP3    H160650   4.821   6.432   1.171 -0.1912  1.3427 -0.5404
13053TIP3    H260651   4.719   6.542   1.189 -1.5898  0.1648 -1.0535
13054TIP3   OH260652   0.476   4.008   6.451 -0.5970  0.3165 -0.5286
13054TIP3    H160653   0.444   4.095   6.474 -2.4398 -0.3884 -0.2722
13054TIP3    H260654   0.397   3.957   6.434  0.0525 -2.4300  3.3044
13055TIP3   OH260655   0.261   3.872   0.876 -0.1414 -0.5446 -0.2670
13055TIP3    H160656   0.314   3.899   0.801 -0.1197  1.0404  0.2931
13055TIP3    H260657   0.175   3.850   0.838 -0.5999  1.6788 -0.6198
13056TIP3   OH260658   6.729   6.710   4.616 -0.7158  0.3116  0.4934
13056TIP3    H160659   6.794   6.712   4.686 -1.0319  0.1056  0.7990
13056TIP3    H260660   6.689   6.798   4.618  0.0454  0.6818 -0.1746
13057TIP3   OH260661   6.718   4.407  14.492 -0.2071 -0.1734  0.2436
13057TIP3    H160662   6.747   4.420  14.582  1.0768  1.0515 -0.3094
13057TIP3    H260663   6.688   4.493  14.463  2.1717  0.2110 -1.3933
13058TIP3   OH260664   3.202   0.361  14.238  0.7645  0.2128  0.0636
13058TIP3    H160665   3.116   0.354  14.279  0.5612 -0.7161 -0.5022
13058TIP3    H260666   3.263   0.356  14.312  0.3396  2.3212  0.6283
13059TIP3   OH260667   3.844   6.211  16.207  0.2071 -0.2407  0.3144
13059TIP3    H160668   3.889   6.201  16.291  1.1393  0.2661 -0.1173
13059TIP3    H260669   3.906   6.180  16.142 -0.9963 -1.8684 -0.1147
13060TIP3   OH260670   4.027   1.282  10.870 -0.0901 -0.0880  0.6541
13060TIP3    H160671   3.955   1.327  10.825  1.3967  1.9752  0.1808
13060TIP3    H260672   4.081   1.246  10.799  1.6206  2.1559  0.6903
13061TIP3   OH260673   0.470   1.806   5.287  0.5055 -0.1968  0.2549
13061TIP3    H160674   0.563   1.796   5.306  0.7226  2.0613  0.7029
13061TIP3    H260675   0.462   1.894   5.252 -1.2551 -0.9512 -1.4211
13062TIP3   OH260676   0.058   2.098   2.170  0.3794  0.3055 -0.3812
13062TIP3    H160677   0.131   2.160   2.173  0.4858  0.1570  2.0183
13062TIP3    H260678   0.082   2.037   2.100  1.4109  1.5882 -1.1985
13063TIP3   OH260679   2.485   6.000  16.377  0.5233  0.1656  0.2013
13063TIP3    H160680   2.549   5.929  16.386  0.2189 -0.0318  0.8480
13063TIP3    H260681   2.440   6.003  16.461 -0.4756  0.1495 -0.3147
13064TIP3   OH260682   4.945   6.138  14.538 -0.7345  0.3097  0.5461
13064TIP3    H160683   4.989   6.109  14.618 -1.4986  2.6608  1.9132
13064TIP3    H260684   5.016   6.149  14.474  0.0475 -0.3768  1.2764
13065TIP3   OH260685   3.944   2.143   2.961 -0.8274 -0.0600  0.3391
13065TIP3    H160686   3.900   2.058   2.960 -1.9471  0.4994 -0.3807
13065TIP3    H260687   4.000   2.141   3.039 -1.7160 -1.0089  0.9680
13066TIP3   OH260688   6.180   2.887  16.206 -0.1121 -0.4787 -0.5365
13066TIP3    H160689   6.218   2.889  16.118  0.6659  3.3687 -0.2894
13066TIP3    H260690   6.145   2.975  16.220  1.3719 -0.2883  3.6177
13067TIP3   OH260691   2.032   5.568   6.106 -0.4054  0.3043 -0.6166
13067TIP3    H160692   2.050   5.659   6.081  0.8491  0.2827  0.1452
13067TIP3    H260693   2.046   5.566   6.200  0.2872 -0.8449 -0.7315
13068TIP3   OH260694   0.065   3.532  15.364 -0.4627 -0.5696  0.1641
13068TIP3    H160695   0.048   3.538  15.270  0.3900 -1.0528 -0.0360
13068TIP3    H260696   0.112   3.613  15.385  0.5572 -1.0708 -0.1176
13069TIP3   OH260697   3.768   3.940  14.782  0.0665  0.4978 -0.1860
13069TIP3    H160698   3.759   3.900  14.869 -1.8694 -0.7342 -0.8754
13069TIP3    H260699   3.788   3.866  14.724 -2.6018  0.5442 -1.3375
13070TIP3   OH260700   4.574   3.622   4.514 -0.0247 -0.2756  0.6126
13070TIP3    H160701   4.653   3.584   4.551 -0.5190 -0.8834  1.0643
13070TIP3    H260702   4.520   3.547   4.488 -0.3191  0.1304  0.0097
13071TIP3   OH260703   1.029   2.279  12.215 -0.0081  0.2805  0.1481
13071TIP3    H160704   1.040   2.198  12.165 -0.4640  0.7472 -0.7295
13071TIP3    H260705   1.008   2.249  12.304  0.5308 -0.5589  0.0093
13072TIP3   OH260706   3.542   2.751   4.775 -0.0629  0.1523 -0.2030
13072TIP3    H160707   3.550   2.765   4.869 -1.8238 -1.8501  0.3371
13072TIP3    H260708   3.456   2.787   4.752 -0.6721 -1.4077 -0.5251
13073TIP3   OH260709   0.049   2.481   0.141  0.0451 -0.0477 -0.0517
13073TIP3    H160710   0.000   2.537   0.081  0.5979 -0.4985 -0.9521
13073TIP3    H260711   0.140   2.510   0.132  0.2268 -0.5792  0.0487
13074TIP3   OH260712   0.685   1.611   5.270  0.0629  0.3029  0.0670
13074TIP3    H160713   0.604   1.575   5.234  0.5081 -0.8272  0.1516
13074TIP3    H260714   0.663   1.636   5.360  0.1679 -1.4004  0.5915
13075TIP3   OH260715   4.747   0.189  13.562  0.4499 -0.4481 -0.8596
13075TIP3    H160716   4.804   0.265  13.550  1.4989 -0.9895  0.4094
13075TIP3    H260717   4.661   0.218  13.531  0.7383  1.3733 -0.0733
13076TIP3   OH260718   1.791   1.791  14.000 -0.2034  0.1716  0.4284
13076TIP3    H160719   1.719   1.808  14.061 -1.0948 -0.0812 -0.5206
13076TIP3    H260720   1.757   1.818  13.915  0.2769 -1.3238 -0.2743
13077TIP3   OH260721   0.704   3.542  11.577  0.5102  0.0818 -0.6440
13077TIP3    H160722   0.781   3.571  11.627 -0.0354  1.3317 -0.4968
13077TIP3    H260723   0.643   3.510  11.643  0.2415  0.6736 -0.5979
13078TIP3   OH260724   6.060   5.868  13.113 -0.4367  0.4175  0.6202
13078TIP3    H160725   6.041   5.961  13.105 -0.1609  0.4514  0.3295
13078TIP3    H260726   6.150   5.864  13.146  0.1700  0.2646 -0.9587
13079TIP3   OH260727   2.671   4.750   5.799 -0.1503 -0.1734 -0.4369
13079TIP3    H160728   2.684   4.746   5.893  1.1938 -0.7601 -0.6203
13079TIP3    H260729   2.679   4.659   5.769 -2.0741 -0.2085 -0.9610
13080TIP3   OH260730   1.159   2.342   2.723 -0.6638  0.4752  0.3223
13080TIP3    H160731   1.161   2.246   2.727 -2.5610  0.4423  2.8485
13080TIP3    H260732   1.201   2.371   2.804 -2.3342  1.6729  0.8155
13081TIP3   OH260733   5.819   6.315  12.581  0.0166  0.3966  0.2331
13081TIP3    H160734   5.811   6.293  12.488  0.5730 -0.4371  0.3748
13081TIP3    H260735   5.730   6.310  12.615 -0.3265  1.6333 -0.4516
13082TIP3   OH260736   4.616   4.800   4.117  0.0809 -0.5956  0.2559
13082TIP3    H160737   4.673   4.724   4.130 -1.1717 -1.2105  2.8729
13082TIP3    H260738   4.586   4.822   4.205 -1.6094  1.3834 -0.7335
13083TIP3   OH260739   3.113   5.799   3.906 -0.3196 -0.1794  0.1212
13083TIP3    H160740   3.196   5.768   3.943  0.0526 -1.2965 -1.5464
13083TIP3    H260741   3.130   5.891   3.883 -0.1816  0.1684  1.5574
13084TIP3   OH260742   2.216   6.405  10.483 -0.2005  0.0728  0.8449
13084TIP3    H160743   2.274   6.480  10.467  1.0159 -0.8015  1.0480
13084TIP3    H260744   2.153   6.438  10.547 -0.1906  1.1614  0.3334
13085TIP3   OH260745   4.692   6.567   4.077 -1.0354  0.2578 -0.0142
13085TIP3    H160746   4.604   6.531   4.062 -0.6199 -0.0735 -1.8779
13085TIP3    H260747   4.705   6.630   4.006 -0.1812  1.1537  0.8949
13086TIP3   OH260748   5.380   4.958   2.906  0.0452  0.4860  0.3796
13086TIP3    H160749   5.415   5.040   2.942  1.0749  0.0412  0.4263
13086TIP3    H260750   5.334   4.918   2.980  2.5737 -0.6663  1.4445
13087TIP3   OH260751   6.308   4.335  13.907 -0.3967 -0.3638  0.2822
13087TIP3    H160752   6.358   4.285  13.842 -0.5032  1.5957 -1.4323
13087TIP3    H260753   6.374   4.382  13.957 -0.3825 -0.2492  0.1582
13088TIP3   OH260754   4.912   5.048  16.937 -0.4316 -0.2545  0.4344
13088TIP3    H160755   4.857   5.125  16.943 -0.2900 -0.1681  0.6330
13088TIP3    H260756   4.941   5.046  16.846  0.6492  0.6850  0.7297
13089TIP3   OH260757   1.864   5.791  14.355 -0.6850 -0.0845 -0.1842
13089TIP3    H160758   1.834   5.789  14.446 -0.6498  1.3861 -0.1112
13089TIP3    H260759   1.850   5.702  14.323 -1.0860 -0.5207  1.1332
13090TIP3   OH260760   1.867   4.858  15.075 -0.4636 -0.3039  0.3037
13090TIP3    H160761   1.786   4.906  15.092  1.0723  2.7276 -0.1696
13090TIP3    H260762   1.889   4.879  14.984 -0.0898 -2.6581 -0.2013
13091TIP3   OH260763   4.694   0.231  16.937  0.1836  0.9842 -0.0311
13091TIP3    H160764   4.741   0.196  16.861 -0.9306  0.4625 -0.4924
13091TIP3    H260765   4.701   0.326  16.929  1.8058  0.9294  0.3265
13092TIP3   OH260766   2.248   1.315   3.415  0.6041  0.2220  0.4364
13092TIP3    H160767   2.318   1.317   3.350 -0.2380 -2.9844 -0.7676
13092TIP3    H260768   2.292   1.300   3.498  1.5109  1.4816  0.2068
13093TIP3   OH260769   6.767   5.564  13.607  0.3916  0.6091 -0.4417
13093TIP3    H160770   6.745   5.593  13.519 -0.3697  0.1733 -0.3981
13093TIP3    H260771   6.769   5.645  13.659 -0.2237  0.7520 -0.6364
13094TIP3   OH260772   2.289   0.666   6.149 -0.0759  0.4869 -0.7419
13094TIP3    H160773   2.291   0.746   6.202  0.8129 -1.4496  2.3898
13094TIP3    H260774   2.200   0.632   6.161  0.1667 -0.0249 -0.3630
13095TIP3   OH260775   4.866   3.978   6.572 -0.3701 -0.5761 -0.7010
13095TIP3    H160776   4.907   4.024   6.645  0.0004 -1.0027 -0.6365
13095TIP3    H260777   4.856   3.888   6.603 -2.2924 -0.2653 -0.3375
13096TIP3   OH260778   2.812   4.816  12.267 -0.1060 -0.3086  0.4977
13096TIP3    H160779   2.763   4.804  12.186  0.2381 -1.0345  0.3911
13096TIP3    H260780   2.863   4.736  12.276 -0.7681 -0.6108  1.8658
13097TIP3   OH260781   3.421   0.099   2.847 -0.3556 -0.9803  1.1484
13097TIP3    H160782   3.516   0.087   2.849  0.2583  2.0964 -1.2073
13097TIP3    H260783   3.387   0.021   2.804  1.6326 -0.5603 -1.4753
13098TIP3   OH260784   3.131   1.825  12.794 -0.5975 -0.1201 -0.7653
13098TIP3    H160785   3.066   1.869  12.849 -1.0062 -1.1248 -0.4343
13098TIP3    H260786   3.148   1.742  12.838 -1.2241 -1.1244 -2.3334
13099TIP3   OH260787   3.637   2.917  13.808 -0.1303 -0.2986  0.6037
13099TIP3    H160788   3.699   2.989  13.824 -0.5720 -0.0430  1.2173
13099TIP3    H260789   3.679   2.840  13.847  1.7636 -1.1014 -2.6530
13100TIP3   OH260790   0.376   5.415   6.643 -0.7283 -0.9533 -0.1476
13100TIP3    H160791   0.406   5.343   6.699  1.2649  0.0097  0.1249
13100TIP3    H260792   0.439   5.416   6.571 -0.9103  0.3195 -0.3041
13101TIP3   OH260793   5.732   4.317   4.299 -0.1182 -0.0715  0.1897
13101TIP3    H160794   5.721   4.336   4.205  0.2490  1.4560  0.4203
13101TIP3    H260795   5.802   4.377   4.327  0.4274 -1.1747  1.2495
13102TIP3   OH260796   1.720   4.919  12.917  0.4897 -0.4742  0.2230
13102TIP3    H160797   1.740   5.003  12.875 -0.1219  0.5196  1.8494
13102TIP3    H260798   1.656   4.940  12.985 -1.1782 -2.5512 -0.5671
13103TIP3   OH260799   0.142   3.562   3.153 -0.5495  0.0111  0.2503
13103TIP3    H160800   0.195   3.640   3.138  1.3088 -0.7003  2.4543
13103TIP3    H260801   0.053   3.587   3.128  0.2561  2.3281 -0.4682
13104TIP3   OH260802   1.183   6.200  13.922 -0.2964  0.9119 -0.0722
13104TIP3    H160803   1.181   6.113  13.962 -0.8008  2.1953  2.9766
13104TIP3    H260804   1.254   6.245  13.966 -1.6107  2.8004  0.2266
13105TIP3   OH260805   0.597   0.673  14.383  0.4638  0.7350  0.6109
13105TIP3    H160806   0.515   0.676  14.334 -0.5596 -2.4216  1.8910
13105TIP3    H260807   0.662   0.709  14.323 -1.5317  1.6551 -1.1193
13106TIP3   OH260808   5.279   2.496  17.112  0.7638  0.0645 -0.0632
13106TIP3    H160809   5.222   2.432  17.155  0.8517  0.1553  0.1946
13106TIP3    H260810   5.229   2.578  17.116  0.3551 -0.1263 -1.0092
13107TIP3   OH260811   0.143   3.411   0.067 -0.1051 -0.0884  0.0036
13107TIP3    H160812   0.061   3.431   0.021 -1.0354 -3.2407 -0.0080
13107TIP3    H260813   0.193   3.358   0.005  0.4705 -0.9422  1.1522
13108TIP3   OH260814   2.056   2.712   3.712  0.4876  0.4069 -0.1914
13108TIP3    H160815   1.989   2.775   3.739  2.3378  1.5803  2.0285
13108TIP3    H260816   2.099   2.754   3.638  0.2406  0.6993 -0.1732
13109TIP3   OH260817   0.755   6.823   2.001 -0.2119  0.1171 -0.0511
13109TIP3    H160818   0.816   6.790   2.066 -0.4563  0.8172  0.5420
13109TIP3    H260819   0.678   6.851   2.052 -0.5513  0.3316 -0.6698
13110TIP3   OH260820   0.586   0.948   2.761 -0.2001  0.1235  0.4429
13110TIP3    H160821   0.541   1.020   2.716 -0.6979 -0.4166  0.0621
13110TIP3    H260822   0.522   0.913   2.822  1.0650  2.1168  3.1203
13111TIP3   OH260823   5.220   3.574   1.934  0.6556 -0.1089  0.0396
13111TIP3    H160824   5.245   3.494   1.979 -0.1530 -1.4064 -1.7062
13111TIP3    H260825   5.302   3.623   1.923  1.5533 -1.7123 -0.7399
13112TIP3   OH260826   4.751   3.009   6.690  0.0147  0.5872  0.4650
13112TIP3    H160827   4.682   3.074   6.699  0.8038  1.3716  0.9655
13112TIP3    H260828   4.764   3.000   6.595 -1.0227  0.1337  0.3452
13113TIP3   OH260829   3.775   5.522   1.092  0.8484 -0.2290 -0.6778
13113TIP3    H160830   3.764   5.597   1.150 -0.9674 -0.4996 -0.6079
13113TIP3    H260831   3.701   5.528   1.031  0.6366 -1.9636 -0.6402
13114TIP3   OH260832   5.739   4.997  15.911 -0.5787  0.1953 -0.2696
13114TIP3    H160833   5.654   5.040  15.899  0.8231  3.1863 -0.5301
13114TIP3    H260834   5.748   4.986  16.006 -0.3092  2.1335 -0.0340
13115TIP3   OH260835   4.606   3.201   5.006  0.5368  0.3217  0.0592
13115TIP3    H160836   4.637   3.283   5.046  0.4109  0.1020  0.6261
13115TIP3    H260837   4.541   3.168   5.068  0.0823  0.1428 -0.5109
13116TIP3   OH260838   4.793   3.814  11.435  0.2510 -0.0146  0.2521
13116TIP3    H160839   4.801   3.861  11.518  2.2260  0.0961  0.0322
13116TIP3    H260840   4.739   3.871  11.380  1.0136  1.0910  0.6317
13117TIP3   OH260841   2.446   4.516  16.236 -0.4435 -0.0204  0.2821
13117TIP3    H160842   2.512   4.585  16.234 -1.3289  0.8500  0.0743
13117TIP3    H260843   2.487   4.441  16.195 -0.1964  1.0713 -1.5567
13118TIP3   OH260844   1.177   2.561  13.993 -0.1509  0.1467  0.4487
13118TIP3    H160845   1.178   2.584  14.085  1.0092 -0.5732  0.6329
13118TIP3    H260846   1.251   2.501  13.982  0.7988  1.5345 -1.2836
13119TIP3   OH260847   1.032   4.466   5.360  0.4616 -0.1483 -0.3361
13119TIP3    H160848   1.094   4.537   5.376  1.3097 -0.8706 -0.3478
13119TIP3    H260849   0.997   4.484   5.273  1.4350 -0.2806 -0.7734
13120TIP3   OH260850   2.313   1.086  14.777  0.3421  0.2540 -0.0774
13120TIP3    H160851   2.291   1.045  14.694  0.0825 -0.4123  0.3108
13120TIP3    H260852   2.327   1.179  14.756 -0.0227  0.1457 -0.8061
13121TIP3   OH260853   1.653   4.218  10.898 -0.1652  0.8062  0.0331
13121TIP3    H160854   1.565   4.236  10.933 -0.3475 -0.5277  0.3497
13121TIP3    H260855   1.695   4.165  10.966 -0.0597 -0.7717 -1.1974
13122TIP3   OH260856   2.050   5.338  16.090 -0.1708  0.1289  0.9674
13122TIP3    H160857   1.991   5.385  16.149 -1.3565  0.4608 -0.4441
13122TIP3    H260858   2.017   5.357  16.002  1.0439 -1.0482  0.2196
13123TIP3   OH260859   1.815   3.085   0.986  0.3804  0.8939 -0.4094
13123TIP3    H160860   1.755   3.090   0.911 -0.0584  1.1434 -0.0447
13123TIP3    H260861   1.771   3.134   1.055  0.8475  0.7785 -0.0282
13124TIP3   OH260862   0.059   5.753   6.576  0.2337  0.1603 -0.4126
13124TIP3    H160863   0.122   5.730   6.645  0.9767  0.0875 -1.1081
13124TIP3    H260864   0.011   5.671   6.560  0.3693  0.0594 -0.3099
13125TIP3   OH260865   4.834   3.049   3.880  0.0845 -0.0814  0.4559
13125TIP3    H160866   4.819   3.026   3.788  1.6469  1.2211 -0.1775
13125TIP3    H260867   4.929   3.049   3.889 -0.0501 -0.8168  2.2774
13126TIP3   OH260868   1.840   6.618   5.914  0.4183 -0.4764  0.0194
13126TIP3    H160869   1.817   6.546   5.855 -1.7159 -0.4944  0.7822
13126TIP3    H260870   1.782   6.689   5.889 -0.2188 -0.3365  1.7546
13127TIP3   OH260871   5.590   1.621  11.456  0.1136 -0.2071  0.0789
13127TIP3    H160872   5.529   1.549  11.474  1.1165 -0.8657  0.9500
13127TIP3    H260873   5.631   1.598  11.373  0.8187 -0.9457  0.6115
13128TIP3   OH260874   2.677   5.392  15.594 -0.3740 -0.1385 -0.4558
13128TIP3    H160875   2.614   5.453  15.556 -0.7704 -0.8261 -0.9223
13128TIP3    H260876   2.713   5.344  15.519  1.7886  1.2173 -0.3626
13129TIP3   OH260877   5.936   5.043   5.059 -0.1418 -0.3351 -0.0903
13129TIP3    H160878   5.988   4.963   5.073 -0.2281 -0.5343 -0.8743
13129TIP3    H260879   5.962   5.101   5.132  0.3104 -0.8732  0.1880
13130TIP3   OH260880   2.463   3.134   5.234 -0.3426 -0.5534  0.3478
13130TIP3    H160881   2.481   3.040   5.231 -0.4617 -0.5792  0.4497
13130TIP3    H260882   2.395   3.147   5.168  0.0972 -0.4438 -0.0925
13131TIP3   OH260883   2.234   4.152   1.105  0.2662 -0.5545 -0.7063
13131TIP3    H160884   2.325   4.173   1.083  0.0650 -0.2935 -1.2930
13131TIP3    H260885   2.234   4.057   1.117  0.5447 -0.5958 -1.0271
13132TIP3   OH260886   4.266   2.149   0.992 -0.1911  0.0579  0.1994
13132TIP3    H160887   4.294   2.197   1.069 -1.5327  1.2440 -0.0079
13132TIP3    H260888   4.175   2.127   1.009 -0.2405 -0.4590 -0.6698
13133TIP3   OH260889   1.111   2.321  14.213 -0.4957  0.1961 -0.4309
13133TIP3    H160890   1.184   2.369  14.173  0.2997 -1.6477 -1.2901
13133TIP3    H260891   1.095   2.368  14.295  2.3609  0.0894  0.3184
13134TIP3   OH260892   3.063   4.089   1.540 -0.8408  0.4993  0.3437
13134TIP3    H160893   3.012   4.112   1.618 -0.5962  0.4867  0.5080
13134TIP3    H260894   2.997   4.077   1.472 -1.1299 -0.4614  0.7802
13135TIP3   OH260895   5.117   1.458   4.725  0.0276  0.0010 -0.2659
13135TIP3    H160896   5.211   1.460   4.709  0.4257 -1.2883  1.5463
13135TIP3    H260897   5.109   1.445   4.819 -1.9320 -1.4893 -0.5698
13136TIP3   OH260898   5.521   1.066   5.667  0.5592 -0.6463  0.3822
13136TIP3    H160899   5.559   1.144   5.626 -2.6922  0.8327 -0.1702
13136TIP3    H260900   5.486   1.016   5.593 -0.0977 -1.0498  0.9600
13137TIP3   OH260901   1.563   3.087   5.673  0.7351  0.1549  0.0886
13137TIP3    H160902   1.638   3.040   5.710  2.1760  1.5937 -0.8510
13137TIP3    H260903   1.569   3.175   5.711 -0.7706  0.1777  0.3467
13138TIP3   OH260904   0.720   1.320  13.483  0.2233  0.1904  0.0735
13138TIP3    H160905   0.711   1.226  13.467  2.9853  0.0019 -0.8861
13138TIP3    H260906   0.648   1.341  13.543 -0.7180 -2.4174 -0.0025
13139TIP3   OH260907   1.649   0.175  12.441 -0.4966 -0.1200 -0.1549
13139TIP3    H160908   1.647   0.246  12.506  1.5874  1.5629 -1.7912
13139TIP3    H260909   1.665   0.096  12.493 -0.4673  0.9205  1.5124
13140TIP3   OH260910   2.107   2.761  17.116  0.3302  0.2907 -0.6149
13140TIP3    H160911   2.181   2.703  17.129  0.1343 -0.4028 -2.3397
13140TIP3    H260912   2.102   2.812  17.197  3.2204  1.0017 -0.7764
13141TIP3   OH260913   5.897   0.406  11.886 -0.2491  0.2733 -1.0885
13141TIP3    H160914   5.911   0.324  11.837  0.8162 -1.1302  1.3632
13141TIP3    H260915   5.802   0.412  11.895 -0.3536 -0.6244 -1.4498
13142TIP3   OH260916   3.018   5.582  11.765  0.0849 -0.4217  0.3599
13142TIP3    H160917   3.007   5.621  11.677 -0.6014  3.1536  1.8351
13142TIP3    H260918   3.111   5.592  11.784  0.1408 -0.7095  0.2374
13143TIP3   OH260919   4.745   1.874  16.594 -0.0713  0.4100 -0.2034
13143TIP3    H160920   4.678   1.895  16.529  0.3594  0.4877 -0.6306
13143TIP3    H260921   4.724   1.930  16.669 -0.4174  0.5145 -0.3762
13144TIP3   OH260922   6.299   4.969   5.638 -0.1798  0.4551  0.1965
13144TIP3    H160923   6.244   4.910   5.586  0.9752  0.1705 -0.7535
13144TIP3    H260924   6.275   5.057   5.608 -2.1438  0.5426  1.8538
13145TIP3   OH260925   1.368   6.196  16.736  0.8060  0.2339 -0.0467
13145TIP3    H160926   1.448   6.241  16.763  0.3871  1.1329 -0.2726
13145TIP3    H260927   1.325   6.173  16.818  0.9911  0.2995  0.0695
13146TIP3   OH260928   4.826   6.669  15.530  0.5253  0.3472 -0.2023
13146TIP3    H160929   4.751   6.625  15.488 -0.3636  2.6068 -1.1121
13146TIP3    H260930   4.901   6.616  15.504 -0.5888 -1.2316 -0.3776
13147TIP3   OH260931   3.644   5.809  16.448 -0.4372  0.2568 -0.0468
13147TIP3    H160932   3.710   5.845  16.507  0.1954 -0.2445 -0.4404
13147TIP3    H260933   3.561   5.820  16.496 -0.3548  2.6378 -0.3511
13148TIP3   OH260934   3.313   6.125  12.168  0.3385 -0.3582  0.3791
13148TIP3    H160935   3.388   6.082  12.127  0.3629 -1.0146  1.0844
13148TIP3    H260936   3.237   6.091  12.120  0.4336 -0.3416  0.2155
13149TIP3   OH260937   2.721   6.791   1.470  0.1317 -0.1191 -0.6420
13149TIP3    H160938   2.648   6.843   1.439 -0.2147 -0.9046 -1.1823
13149TIP3    H260939   2.775   6.852   1.521 -0.7507  0.5264 -0.4695
13150TIP3   OH260940   5.161   0.721   5.442 -0.0508 -0.0886 -0.4604
13150TIP3    H160941   5.234   0.661   5.455 -0.4841 -0.3993  0.6648
13150TIP3    H260942   5.194   0.805   5.473 -0.6611 -0.5642  1.6392
13151TIP3   OH260943   4.551   3.200  16.148 -0.0266 -0.3147 -0.0872
13151TIP3    H160944   4.570   3.125  16.205  1.5899  2.4880  3.4667
13151TIP3    H260945   4.462   3.226  16.172  1.0688  1.6113  2.4581
13152TIP3   OH260946   1.089   3.567  12.464 -0.1007 -0.3245  0.3775
13152TIP3    H160947   1.170   3.536  12.505 -0.0955 -2.0766 -0.8590
13152TIP3    H260948   1.089   3.661  12.478  3.4297  0.1357 -1.7222
13153TIP3   OH260949   3.970   6.206  10.278 -0.2342 -0.1034  0.4608
13153TIP3    H160950   3.936   6.140  10.339 -0.4648  0.1603  0.6242
13153TIP3    H260951   3.992   6.280  10.334 -0.9508  0.3380  0.1622
13154TIP3   OH260952   2.980   4.928   2.842 -0.7582  0.4575  0.1449
13154TIP3    H160953   2.961   4.834   2.852 -0.0408  0.3414  0.5086
13154TIP3    H260954   2.909   4.972   2.889 -1.1619  0.0982 -0.1274
13155TIP3   OH260955   5.246   6.751   1.623  0.1171 -0.3435  0.4174
13155TIP3    H160956   5.262   6.805   1.546 -1.1465  1.5039  1.3825
13155TIP3    H260957   5.323   6.766   1.678  0.5074 -0.8061  0.0113
13156TIP3   OH260958   0.234   0.891  15.608 -0.7244  0.2404  0.5210
13156TIP3    H160959   0.328   0.899  15.624 -0.8697  1.1908  0.9816
13156TIP3    H260960   0.220   0.797  15.595  0.0504 -0.1082  1.9576
13157TIP3   OH260961   0.695   0.260   3.640 -0.2401  0.5861  0.0862
13157TIP3    H160962   0.638   0.317   3.589 -0.0111  0.7230 -0.0192
13157TIP3    H260963   0.644   0.237   3.717 -0.5808  0.4039 -0.1885
13158TIP3   OH260964   4.164   1.634   3.211 -0.3621 -0.2981  0.3403
13158TIP3    H160965   4.206   1.713   3.245  0.7900 -0.9301  0.4332
13158TIP3    H260966   4.225   1.563   3.232 -0.0851 -0.8780 -2.1359
13159TIP3   OH260967   1.581   2.077   2.823  0.2270  0.4435  0.5493
13159TIP3    H160968   1.561   1.988   2.852  1.1294 -0.0034 -0.1358
13159TIP3    H260969   1.665   2.096   2.865  0.1313  0.9023  0.5310
13160TIP3   OH260970   1.444   0.073  16.343  0.0652  0.2428  0.1094
13160TIP3    H160971   1.365   0.089  16.290  0.1044 -1.5908 -0.6148
13160TIP3    H260972   1.413   0.077  16.433 -0.6031  0.7167 -0.1268
13161TIP3   OH260973   6.393   5.377  12.514  0.3857 -0.0218 -0.0118
13161TIP3    H160974   6.392   5.471  12.494  1.1821  0.5496  2.3322
13161TIP3    H260975   6.485   5.357  12.529 -0.0537 -0.1793  3.3457
13162TIP3   OH260976   2.821   1.112  13.471 -0.0898  0.9266 -0.0155
13162TIP3    H160977   2.742   1.167  13.462 -0.1381  0.9974  0.8232
13162TIP3    H260978   2.840   1.084  13.381 -1.2031  0.7213 -0.2041
13163TIP3   OH260979   0.830   3.527   3.898 -0.4780 -0.5857 -0.1271
13163TIP3    H160980   0.889   3.557   3.830 -0.1311 -3.0327 -0.9859
13163TIP3    H260981   0.858   3.437   3.917 -2.3671 -0.9604  1.1839
13164TIP3   OH260982   1.704   0.722  13.521  0.1524  0.7686 -0.7583
13164TIP3    H160983   1.661   0.754  13.441  0.3951 -0.9762 -1.6462
13164TIP3    H260984   1.784   0.681  13.490  0.7419  0.9197  0.5137
13165TIP3   OH260985   6.591   2.026   1.911  0.0390  0.4943  0.2706
13165TIP3    H160986   6.674   2.016   1.865  1.1376  0.1596  2.2157
13165TIP3    H260987   6.525   2.015   1.843  1.5617  1.6281 -1.4905
13166TIP3   OH260988   5.109   2.214  15.263  0.1493  0.6569  0.2477
13166TIP3    H160989   5.028   2.223  15.314  0.1329  3.9711 -0.0940
13166TIP3    H260990   5.080   2.176  15.180 -0.7265  0.0298  0.8195
13167TIP3   OH260991   3.082   0.521  13.930  0.5321  0.3615 -0.5261
13167TIP3    H160992   3.060   0.614  13.927  0.4523  0.3447 -0.4398
13167TIP3    H260993   3.130   0.510  14.012  2.1540  0.6841 -1.3854
13168TIP3   OH260994   5.927   3.444  11.558 -0.3027 -0.1411  0.7638
13168TIP3    H160995   5.846   3.396  11.543 -0.4987  0.0623  1.1525
13168TIP3    H260996   5.912   3.529  11.516  0.5497 -0.8613 -1.1240
13169TIP3   OH260997   0.750   2.784   3.192  0.0165 -0.0258 -0.2095
13169TIP3    H160998   0.728   2.809   3.102 -0.1026  1.2743  0.1571
13169TIP3    H260999   0.714   2.696   3.202 -0.2614 -0.0507 -1.3337
13170TIP3   OH261000   6.450   2.937   0.717  0.1931  0.0526 -0.0625
13170TIP3    H161001   6.433   2.888   0.797  0.7386  1.0428  0.6826
13170TIP3    H261002   6.460   2.870   0.650  2.2276 -0.9645  1.1636
13171TIP3   OH261003   6.429   3.089  15.795 -0.0190  0.0268 -0.4937
13171TIP3    H161004   6.489   3.156  15.763 -0.1691 -0.5281 -2.0128
13171TIP3    H261005   6.479   3.007  15.792 -0.0724 -0.0691  0.6348
13172TIP3   OH261006   0.413   3.587   2.773 -0.0131  0.1704 -0.4764
13172TIP3    H161007   0.466   3.666   2.777 -0.0548  0.2771 -1.6420
13172TIP3    H261008   0.323   3.619   2.771 -0.2317 -0.0307  2.3644
13173TIP3   OH261009   3.108   6.099  13.703 -0.3145  0.1265  0.5932
13173TIP3    H161010   3.119   6.053  13.786  0.8207 -3.6566 -1.4112
13173TIP3    H261011   3.128   6.191  13.724 -1.7179 -0.3002  4.7249
13174TIP3   OH261012   6.157   3.864   3.356  0.1034  0.1750  0.1350
13174TIP3    H161013   6.092   3.814   3.306  1.1704 -0.1078 -1.0074
13174TIP3    H261014   6.112   3.887   3.438 -2.3166  2.1316 -1.5913
13175TIP3   OH261015   5.471   4.694  13.980 -0.1589  0.0069 -0.1370
13175TIP3    H161016   5.504   4.758  14.044 -0.9049 -0.5385  0.8100
13175TIP3    H261017   5.457   4.614  14.031  0.6619 -0.9067 -1.2881
13176TIP3   OH261018   4.484   3.892  15.243 -0.7768 -0.4409  0.2288
13176TIP3    H161019   4.532   3.819  15.203  2.5946  1.7557 -0.1376
13176TIP3    H261020   4.504   3.886  15.336 -0.4402  0.0235  0.1902
13177TIP3   OH261021   4.693   1.553   2.492 -0.2448 -0.0204 -0.8459
13177TIP3    H161022   4.639   1.503   2.432  0.7395 -1.0529 -0.9041
13177TIP3    H261023   4.776   1.506   2.495  0.0663  0.5562  0.5676
13178TIP3   OH261024   5.174   0.571  11.805 -0.0775  0.8197  0.2467
13178TIP3    H161025   5.178   0.646  11.865 -0.1701  1.1212 -0.1209
13178TIP3    H261026   5.128   0.503  11.855  0.5992  0.7703  0.8295
13179TIP3   OH261027   2.137   5.335   4.793  0.2928  0.4973  0.2031
13179TIP3    H161028   2.230   5.351   4.807  0.1942  0.8793  0.4208
13179TIP3    H261029   2.132   5.241   4.773  0.6824  0.4007  0.5427
13180TIP3   OH261030   6.531   4.058   0.870  0.4875 -0.6787  0.1662
13180TIP3    H161031   6.478   3.995   0.821  0.8587 -0.7833 -0.1079
13180TIP3    H261032   6.469   4.126   0.896  0.7751  1.1832 -3.3769
13181TIP3   OH261033   6.772   5.364   0.026  0.2310  0.1201  0.1731
13181TIP3    H161034   6.865   5.386   0.027 -0.0129  1.1660  1.3435
13181TIP3    H261035   6.740   5.395  -0.059  0.5586  1.4817  0.5404
13182TIP3   OH261036   3.301   2.647  14.214 -0.0769 -0.7617 -0.9393
13182TIP3    H161037   3.378   2.694  14.247 -1.3020  0.3032  0.4958
13182TIP3    H261038   3.317   2.639  14.119  2.4055 -1.7711 -0.5331
13183TIP3   OH261039   4.100   1.569  15.894  0.2769 -0.1717  0.3919
13183TIP3    H161040   4.020   1.588  15.944  0.4549  0.4666  0.4504
13183TIP3    H261041   4.157   1.524  15.957  0.4046  0.4070  0.6994
13184TIP3   OH261042   3.083   5.816  12.273 -1.3948 -0.6325 -0.2985
13184TIP3    H161043   3.103   5.857  12.189  0.2913 -0.4785  0.1476
13184TIP3    H261044   3.014   5.871  12.310 -1.0396  0.2318 -0.8877
13185TIP3   OH261045   6.632   4.321   4.884  0.1174  0.4503  0.2596
13185TIP3    H161046   6.695   4.350   4.950  0.8285 -0.6834  0.1080
13185TIP3    H261047   6.554   4.375   4.899  0.9276  1.4881  0.8066
13186TIP3   OH261048   0.451   6.756  11.136  0.2643 -0.1528  0.0679
13186TIP3    H161049   0.434   6.780  11.045 -0.4979 -1.0139 -0.0314
13186TIP3    H261050   0.449   6.840  11.183  1.3248  0.3720 -0.7870
13187TIP3   OH261051   0.936   6.621  10.821 -0.6774  0.6838 -0.4091
13187TIP3    H161052   1.028   6.626  10.795 -0.2952 -1.7077  0.2846
13187TIP3    H261053   0.896   6.564  10.756 -1.6104  1.3803 -0.4645
13188TIP3   OH261054   6.835   2.333  12.515 -0.0223 -0.4146 -0.6701
13188TIP3    H161055   6.886   2.287  12.581  1.3852  1.1924 -0.5668
13188TIP3    H261056   6.749   2.346  12.555  0.3062 -0.8793  0.1916
13189TIP3   OH261057   3.029   5.160   0.556 -0.0320 -0.4351 -0.4036
13189TIP3    H161058   3.034   5.148   0.651 -1.7772  0.0391 -0.2044
13189TIP3    H261059   3.087   5.233   0.537 -1.1593  0.7758  0.6258
13190TIP3   OH261060   2.437   5.950   0.016 -0.4137  0.7305  0.3501
13190TIP3    H161061   2.451   5.994  -0.068  0.7464  2.2122  1.2620
13190TIP3    H261062   2.466   5.860   0.000 -0.6892  0.8457 -0.9608
13191TIP3   OH261063   4.982   5.709  11.181 -0.1954 -0.2686  0.3973
13191TIP3    H161064   5.044   5.652  11.136 -0.0739 -0.2313  0.5159
13191TIP3    H261065   4.981   5.790  11.130  1.8282  0.7319  1.8242
13192TIP3   OH261066   2.135   1.290  14.270 -0.1401  0.4024  0.4113
13192TIP3    H161067   2.057   1.287  14.215 -0.9469  0.7177  1.5052
13192TIP3    H261068   2.202   1.330  14.214 -1.0751  1.2066 -0.1676
13193TIP3   OH261069   6.661   5.614  13.353  0.0090  0.3404  0.1515
13193TIP3    H161070   6.622   5.590  13.269 -1.0594 -1.1526  1.0086
13193TIP3    H261071   6.604   5.683  13.386  0.4101  0.9049 -0.3167
13194TIP3   OH261072   2.357   6.646  11.089 -0.9244 -0.3761  1.3228
13194TIP3    H161073   2.290   6.705  11.125 -0.3783 -0.3506  2.3581
13194TIP3    H261074   2.425   6.644  11.157  0.7574  0.6373 -0.2373
13195TIP3   OH261075   0.268   5.609  15.476 -0.0349 -0.1491  0.5593
13195TIP3    H161076   0.332   5.544  15.446 -0.6311 -0.8840  0.8521
13195TIP3    H261077   0.202   5.611  15.407  0.5564  1.0101 -0.0057
13196TIP3   OH261078   6.694   1.623   1.900  0.3302 -0.7565  0.5190
13196TIP3    H161079   6.679   1.542   1.852  1.5583 -0.7855  0.1587
13196TIP3    H261080   6.773   1.606   1.951  2.2718  1.0755 -1.6554
13197TIP3   OH261081   3.147   6.109   4.138  0.1683  0.2662 -0.0584
13197TIP3    H161082   3.110   6.195   4.159  0.6998  0.7658 -1.1238
13197TIP3    H261083   3.236   6.112   4.174  0.9493  0.9846 -1.9429
13198TIP3   OH261084   5.266   2.722   4.368 -0.2573  0.4852 -0.0071
13198TIP3    H161085   5.319   2.653   4.406  0.5948  1.1640  0.0716
13198TIP3    H261086   5.316   2.802   4.384 -1.6048  1.2351  0.6444
13199TIP3   OH261087   0.941   2.434  15.140  0.3627 -0.1621  0.3362
13199TIP3    H161088   0.989   2.452  15.221  2.9382  1.6475 -1.4336
13199TIP3    H261089   1.009   2.419  15.074 -1.5965 -0.2794 -1.7912
13200TIP3   OH261090   5.977   5.436  14.187  0.0236 -0.3991 -0.5838
13200TIP3    H161091   6.031   5.415  14.263 -0.0427 -1.3770 -0.7896
13200TIP3    H261092   6.026   5.400  14.112  1.5808  3.0794 -1.4459
13201TIP3   OH261093   6.528   0.382  16.425 -0.6014 -0.5193 -0.2161
13201TIP3    H161094   6.621   0.360  16.424 -0.7366 -1.1189 -0.1815
13201TIP3    H261095   6.525   0.477  16.413 -0.0063 -0.5564 -0.7041
13202TIP3   OH261096   2.247   1.993   5.826 -0.0552  0.0618  0.2501
13202TIP3    H161097   2.269   2.037   5.744 -0.3851 -0.1038  0.0720
13202TIP3    H261098   2.312   2.025   5.888  1.3746 -1.1997 -0.5231
13203TIP3   OH261099   4.084   0.894   4.105  0.2990  0.1541 -0.0408
13203TIP3    H161100   4.098   0.818   4.047  1.6164  0.1628  0.2482
13203TIP3    H261101   3.990   0.893   4.122 -0.1457  0.1623 -2.1904
13204TIP3   OH261102   2.743   1.746   0.620 -0.6429 -0.1712  0.0405
13204TIP3    H161103   2.800   1.673   0.643 -0.8289 -0.4178 -0.2698
13204TIP3    H261104   2.659   1.726   0.662 -1.9536 -2.1647 -3.1899
13205TIP3   OH261105   0.244   1.414  17.021  0.3978  0.0839  0.1641
13205TIP3    H161106   0.227   1.356  17.095 -0.3073 -0.4646 -0.4044
13205TIP3    H261107   0.277   1.357  16.952 -0.2498  0.3519 -0.3848
13206TIP3   OH261108   2.373   5.177   1.773  0.3685  0.1212  0.6272
13206TIP3    H161109   2.295   5.227   1.800 -0.5626 -1.4199  0.8870
13206TIP3    H261110   2.393   5.209   1.685 -0.2725  0.8683  0.7407
13207TIP3   OH261111   5.889   4.635  14.414 -0.6374  0.6779 -0.6003
13207TIP3    H161112   5.823   4.568  14.395  0.5102 -0.3354 -1.1058
13207TIP3    H261113   5.867   4.666  14.502 -1.2996 -0.2184 -0.4362
13208TIP3   OH261114   0.044   2.653   1.969 -0.0793  0.1579  0.1943
13208TIP3    H161115   0.015   2.587   1.905 -0.7751 -0.0389  0.6998
13208TIP3    H261116  -0.009   2.636   2.047  0.1607  0.9365  0.5382
13209TIP3   OH261117   3.128   1.519  16.468 -0.6483  0.1485 -0.3130
13209TIP3    H161118   3.158   1.599  16.424 -0.1473 -0.0895 -0.4112
13209TIP3    H261119   3.188   1.508  16.541 -1.0659  0.1686  0.0395
13210TIP3   OH261120   1.029   2.059   1.254  0.4933 -0.2185 -0.1518
13210TIP3    H161121   1.077   2.141   1.245 -0.7175  0.7060  1.3736
13210TIP3    H261122   1.077   2.009   1.319  2.4599 -1.7450 -2.5898
13211TIP3   OH261123   5.690   5.842  14.300  0.4053  0.5224 -0.4520
13211TIP3    H161124   5.749   5.770  14.323 -0.1026  0.2768  0.1065
13211TIP3    H261125   5.680   5.836  14.205 -0.7811 -1.0718 -0.2678
13212TIP3   OH261126   2.917   1.749   0.924  0.1909 -0.1601  0.2601
13212TIP3    H161127   2.896   1.801   0.846 -0.0217 -1.5127 -0.6117
13212TIP3    H261128   3.009   1.769   0.942  0.0774  0.6196  0.0387
13213TIP3   OH261129   1.452   5.804  11.418  0.2556 -0.4497  0.4621
13213TIP3    H161130   1.408   5.880  11.378  1.0134 -0.7435 -1.0077
13213TIP3    H261131   1.528   5.841  11.463 -0.3716 -0.1610  1.3191
13214TIP3   OH261132   6.446   2.287   2.597  0.0500  0.1417 -0.2723
13214TIP3    H161133   6.457   2.352   2.667  2.4146 -0.8706  0.4307
13214TIP3    H261134   6.425   2.206   2.644  1.7320 -0.5650 -0.6495
13215TIP3   OH261135   1.452   3.759  15.793  0.8623 -0.0267  0.2547
13215TIP3    H161136   1.429   3.705  15.716 -0.6271  0.1364  0.5608
13215TIP3    H261137   1.459   3.848  15.758  0.4338  0.0103  0.2566
13216TIP3   OH261138   4.097   5.986  12.758 -0.2276 -0.3658  0.2009
13216TIP3    H161139   4.009   5.985  12.796 -0.7665  0.0610 -0.9912
13216TIP3    H261140   4.096   6.059  12.695  1.9352  1.7293  2.3461
13217TIP3   OH261141   0.751   3.174  15.651  0.2366 -0.0577  0.7011
13217TIP3    H161142   0.736   3.166  15.745  0.8575 -0.4759  0.7689
13217TIP3    H261143   0.740   3.267  15.632 -0.1363 -0.0103  1.1429
13218TIP3   OH261144   5.416   0.195   3.314  0.2373  0.3067 -0.1243
13218TIP3    H161145   5.490   0.201   3.374  1.6454  0.2451 -1.8059
13218TIP3    H261146   5.355   0.262   3.344  2.0845  2.1128 -0.1947
13219TIP3   OH261147   0.464   2.446   1.723  0.2644 -0.6074  0.5027
13219TIP3    H161148   0.525   2.377   1.696 -0.1806 -0.6562 -0.4045
13219TIP3    H261149   0.397   2.400   1.773  1.4628 -0.4222  2.3822
13220TIP3   OH261150   6.043   4.580  12.688  0.2737 -0.2598 -0.2332
13220TIP3    H161151   5.989   4.525  12.744  0.2016  1.5231  1.5485
13220TIP3    H261152   6.108   4.618  12.747  0.7224  1.0545 -1.5157
13221TIP3   OH261153   4.368   4.362  15.529 -0.2180 -0.3716  0.5114
13221TIP3    H161154   4.287   4.400  15.495  0.0027 -1.1164 -0.9098
13221TIP3    H261155   4.437   4.399  15.473  0.2663 -0.8355  0.7923
13222TIP3   OH261156   6.347   0.062   5.958  0.7898 -0.6908 -0.3663
13222TIP3    H161157   6.335  -0.001   5.886  0.9781 -2.2330  0.8938
13222TIP3    H261158   6.417   0.120   5.927  2.1164 -2.4102 -0.7588
13223TIP3   OH261159   0.730   2.760  13.144 -0.3220 -0.0370 -0.6902
13223TIP3    H161160   0.799   2.719  13.091 -0.6265 -2.8346  0.8959
13223TIP3    H261161   0.775   2.787  13.225 -0.9252 -1.4125  0.1404
13224TIP3   OH261162   3.278   4.823   4.116  0.7552 -0.0570  0.4174
13224TIP3    H161163   3.352   4.877   4.144  1.8082 -1.8418  1.2148
13224TIP3    H261164   3.308   4.783   4.035 -0.6056  1.6568 -1.0039
13225TIP3   OH261165   4.893   1.779  12.492  0.8633  0.0606  0.4674
13225TIP3    H161166   4.837   1.774  12.570  0.2826  1.9502  0.2239
13225TIP3    H261167   4.958   1.845  12.514 -0.0836  1.5725 -1.0791
13226TIP3   OH261168   1.390   1.311   5.041 -0.6020  0.1661  0.0913
13226TIP3    H161169   1.303   1.350   5.029 -1.1940 -0.8182  1.0674
13226TIP3    H261170   1.448   1.386   5.053 -0.7600  1.0526 -3.3791
13227TIP3   OH261171   6.821   2.342  10.936 -0.3597 -0.2089  0.2673
13227TIP3    H161172   6.863   2.392  10.866 -0.4865  0.2566  0.5159
13227TIP3    H261173   6.814   2.405  11.008  0.4494 -0.8973  0.9580
13228TIP3   OH261174   1.755   2.738   4.432 -0.1038  0.4665 -0.5107
13228TIP3    H161175   1.676   2.786   4.456 -0.1689  0.2230 -0.2359
13228TIP3    H261176   1.752   2.735   4.336 -1.9700 -2.0349 -0.5000
13229TIP3   OH261177   1.510   5.272  17.079 -0.4342  0.6281  0.4662
13229TIP3    H161178   1.463   5.334  17.135 -2.1868  0.3900 -0.6488
13229TIP3    H261179   1.545   5.206  17.139 -1.9401  0.5686  1.3297
13230TIP3   OH261180   3.562   2.192  14.694 -0.2023 -0.3356  0.0332
13230TIP3    H161181   3.643   2.239  14.672 -0.5559 -0.4518 -1.6651
13230TIP3    H261182   3.508   2.258  14.738  0.6733 -0.1674  0.8935
13231TIP3   OH261183   6.295   5.671  12.212  0.2012  0.3567  0.0530
13231TIP3    H161184   6.344   5.609  12.158  0.3451  0.5316 -0.0176
13231TIP3    H261185   6.322   5.652  12.302 -0.4544 -0.3103  0.1263
13232TIP3   OH261186   0.650   0.643  11.590 -0.7973  0.6007  0.5383
13232TIP3    H161187   0.657   0.654  11.495 -1.7152 -0.2307  0.3514
13232TIP3    H261188   0.583   0.705  11.617 -2.2261 -0.7372  0.2590
13233TIP3   OH261189   6.736   5.267  13.430  0.4891 -0.7096  0.4738
13233TIP3    H161190   6.716   5.266  13.336 -0.1965  0.0951  0.6008
13233TIP3    H261191   6.794   5.342  13.441  0.0862 -0.4419  0.7850
13234TIP3   OH261192   1.052   5.848  14.136 -0.2292 -0.0474 -0.1256
13234TIP3    H161193   1.012   5.848  14.223  0.2513 -1.7584  0.1339
13234TIP3    H261194   1.065   5.755  14.115  1.2262  0.3753 -1.3004
13235TIP3   OH261195   3.888   1.515   3.115  0.0539 -0.0348 -0.1085
13235TIP3    H161196   3.971   1.514   3.164  0.3453 -2.4193 -0.5320
13235TIP3    H261197   3.824   1.478   3.176 -0.5514  0.9537 -0.1054
13236TIP3   OH261198   6.056   3.728   0.197  0.2761  0.5193 -0.1953
13236TIP3    H161199   6.063   3.642   0.155 -0.3350  0.0246  0.6875
13236TIP3    H261200   6.136   3.736   0.250 -0.7806 -0.5943  1.6542
13237TIP3   OH261201   5.032   4.448  12.231 -0.6809  0.6822 -0.2146
13237TIP3    H161202   5.014   4.436  12.137  1.0569 -0.7583 -0.4176
13237TIP3    H261203   4.973   4.387  12.274 -0.1210 -0.0879 -0.5165
13238TIP3   OH261204   4.520   2.604   4.889  0.5931 -0.3598  0.1702
13238TIP3    H161205   4.597   2.612   4.832 -0.5842 -1.8589 -1.7816
13238TIP3    H261206   4.447   2.591   4.828 -0.6385 -2.8610  1.9983
13239TIP3   OH261207   5.517   6.834  12.396 -0.0173  0.5945 -0.2644
13239TIP3    H161208   5.440   6.889  12.409 -0.4462  0.0089 -0.2865
13239TIP3    H261209   5.578   6.861  12.465  0.8686  2.9327 -1.8516
13240TIP3   OH261210   4.804   4.126  13.194  0.1587 -0.3458 -0.2253
13240TIP3    H161211   4.879   4.139  13.136  1.8319 -0.9714  1.6668
13240TIP3    H261212   4.788   4.032  13.194  0.2781 -0.3747  0.4171
13241TIP3   OH261213   5.832   3.110   3.165 -0.4479 -0.2183  0.1143
13241TIP3    H161214   5.927   3.107   3.160 -0.3878  1.8024 -1.1743
13241TIP3    H261215   5.814   3.163   3.243 -0.4469  0.6771 -0.4761
13242TIP3   OH261216   2.407   0.051  11.321  0.7557  0.5595 -1.0643
13242TIP3    H161217   2.436  -0.035  11.350  1.8691  0.9092 -1.0938
13242TIP3    H261218   2.316   0.058  11.352  0.2555 -1.0700 -2.0647
13243TIP3   OH261219   4.280   2.269   5.989 -0.2919  0.3002  0.4050
13243TIP3    H161220   4.345   2.222   5.938 -1.0505 -1.2271  0.7785
13243TIP3    H261221   4.305   2.361   5.982  0.4414 -0.0092 -1.5171
13244TIP3   OH261222   0.656   2.117   0.020 -0.2931  0.1511  0.1562
13244TIP3    H161223   0.723   2.136  -0.045 -0.5412 -0.9232 -0.4445
13244TIP3    H261224   0.575   2.107  -0.030 -0.1660 -2.5069  0.3311
13245TIP3   OH261225   2.816   5.324  13.792 -0.3308  0.2255  0.3120
13245TIP3    H161226   2.900   5.294  13.758  0.0135  1.2495  0.2049
13245TIP3    H261227   2.751   5.287  13.732  0.2567  2.0361 -1.5931
13246TIP3   OH261228   4.038   6.089  14.914  0.0309 -0.0219  0.8661
13246TIP3    H161229   4.068   6.050  14.832  1.1322  0.7148  0.9079
13246TIP3    H261230   4.108   6.148  14.940 -1.3180  1.5028  1.1477
13247TIP3   OH261231   5.837   4.745   2.682  0.1484 -0.3901 -0.0062
13247TIP3    H161232   5.823   4.749   2.777  4.0064 -1.5531  0.8076
13247TIP3    H261233   5.866   4.655   2.666 -0.4620 -0.2265 -2.3364
13248TIP3   OH261234   4.800   1.493  16.319  0.3469  0.3055 -0.1052
13248TIP3    H161235   4.804   1.579  16.362 -1.5075  0.2225  0.3205
13248TIP3    H261236   4.890   1.460  16.324  0.5817  1.0854  2.0988
13249TIP3   OH261237   2.947   3.983  16.867 -0.1741 -0.4801 -0.0515
13249TIP3    H161238   2.972   4.075  16.880  1.6168 -0.9835  0.3991
13249TIP3    H261239   2.920   3.953  16.954 -0.0844 -0.5554 -0.0482
13250TIP3   OH261240   4.911   1.372   2.421 -0.8076 -0.5946 -0.1665
13250TIP3    H161241   4.927   1.299   2.361 -0.9994 -0.1949 -0.7181
13250TIP3    H261242   4.917   1.450   2.365  0.2640 -0.1241  0.5741
13251TIP3   OH261243   1.839   6.185   2.454 -0.2455  0.4817  0.3117
13251TIP3    H161244   1.853   6.203   2.547 -0.4877 -0.8186  0.6293
13251TIP3    H261245   1.865   6.093   2.445 -1.6096  0.1746 -0.6121
13252TIP3   OH261246   5.450   3.788  13.282 -0.3574  0.7584 -0.5452
13252TIP3    H161247   5.540   3.756  13.276 -0.8808 -0.8501 -0.2267
13252TIP3    H261248   5.430   3.787  13.375 -1.1953 -0.3656 -0.7203
13253TIP3   OH261249   0.736   3.819   0.954 -0.4649  0.3721 -0.1162
13253TIP3    H161250   0.702   3.854   1.037 -1.4259  0.1955 -0.4222
13253TIP3    H261251   0.698   3.732   0.947  1.2316 -0.4431  0.2213
13254TIP3   OH261252   5.845   5.844   4.930  0.3998 -0.2731  0.1276
13254TIP3    H161253   5.791   5.801   4.996 -1.0299  1.3712  0.1125
13254TIP3    H261254   5.799   5.829   4.848  1.3733 -1.0397 -0.2968
13255TIP3   OH261255   4.681   0.682  16.890 -0.5345  0.3782 -0.1251
13255TIP3    H161256   4.715   0.593  16.902  2.1521  1.4518  1.1230
13255TIP3    H261257   4.739   0.736  16.943 -1.9790  2.9182 -1.0036
13256TIP3   OH261258   5.031   2.293   1.416 -0.1299  0.7795  0.2443
13256TIP3    H161259   4.947   2.300   1.370 -0.1728  1.7124  0.4476
13256TIP3    H261260   5.092   2.258   1.351 -0.6612  0.1292  0.0818
13257TIP3   OH261261   4.832   0.698  14.625  0.3760  0.3250 -0.2933
13257TIP3    H161262   4.778   0.774  14.647 -2.1423 -0.8028 -2.1029
13257TIP3    H261263   4.896   0.731  14.563 -0.1085  1.1502 -0.3701
13258TIP3   OH261264   4.997   4.462  12.524  0.0841 -0.7388 -0.0108
13258TIP3    H161265   4.935   4.392  12.503  1.8571 -2.8140  1.1860
13258TIP3    H261266   5.059   4.463  12.451  0.1738 -0.5476  0.0668
13259TIP3   OH261267   2.450   4.035  14.078 -0.1758  0.2746  0.1038
13259TIP3    H161268   2.366   4.006  14.112 -0.7391  1.1403 -0.5116
13259TIP3    H261269   2.513   3.973  14.113 -1.1295 -0.6688  0.1863
13260TIP3   OH261270   3.184   1.397  11.889  0.6120  0.1499  0.2981
13260TIP3    H161271   3.097   1.416  11.922  0.6195 -0.6245  0.7750
13260TIP3    H261272   3.243   1.424  11.959  0.6647 -0.8579  0.6508
13261TIP3   OH261273   3.864   1.889   0.510 -0.3196 -0.1450  0.4150
13261TIP3    H161274   3.786   1.836   0.528 -0.7236  0.4509  0.4342
13261TIP3    H261275   3.934   1.846   0.559 -0.6059 -0.7558  0.3040
13262TIP3   OH261276   2.515   0.456  14.193 -0.7550  0.4966  0.4729
13262TIP3    H161277   2.599   0.410  14.188 -1.2479 -0.5256  1.2491
13262TIP3    H261278   2.525   0.516  14.267 -0.4224  0.9993  0.0270
13263TIP3   OH261279   6.121   2.263   0.679  0.3999  0.4676  0.6363
13263TIP3    H161280   6.106   2.351   0.715 -0.5170 -0.0405  1.5361
13263TIP3    H261281   6.105   2.204   0.752 -1.1951 -0.5830 -0.5003
13264TIP3   OH261282   4.145   4.136   4.473 -0.5437 -0.6683 -0.6581
13264TIP3    H161283   4.218   4.196   4.467 -1.5056  0.7053  0.7703
13264TIP3    H261284   4.125   4.129   4.566 -2.0495 -1.2251 -0.9794
13265TIP3   OH261285   0.598   4.009  11.501  0.1027 -0.8023  0.7432
13265TIP3    H161286   0.564   3.927  11.539  0.7628 -1.7856 -0.7077
13265TIP3    H261287   0.664   3.981  11.438 -1.3203  0.7062 -1.5427
13266TIP3   OH261288   2.466   0.112   5.877 -0.1850  0.3477 -0.0145
13266TIP3    H161289   2.475   0.084   5.786  2.8607 -0.9334  0.5570
13266TIP3    H261290   2.376   0.091   5.900 -0.4133 -1.2949 -2.1185
13267TIP3   OH261291   2.630   1.271   5.322  0.0587  0.0076 -0.2324
13267TIP3    H161292   2.678   1.322   5.388 -0.5901  0.3964 -0.0538
13267TIP3    H261293   2.621   1.184   5.361 -1.0583  0.4630  0.5765
13268TIP3   OH261294   2.604   1.540   5.476  0.3684 -0.5059 -0.4186
13268TIP3    H161295   2.556   1.623   5.477 -0.8936 -1.2189  0.2308
13268TIP3    H261296   2.682   1.558   5.424 -0.0047  1.0217 -0.4834
13269TIP3   OH261297   2.512   6.781  13.723  0.2801  0.0448 -0.8871
13269TIP3    H161298   2.514   6.778  13.818 -1.1854  0.5384 -0.8118
13269TIP3    H261299   2.604   6.789  13.697  0.6215  1.2446  0.5420
13270TIP3   OH261300   2.840   6.628  12.970  0.6230 -0.2700  0.8670
13270TIP3    H161301   2.830   6.535  12.989 -2.7202  0.0701  1.3465
13270TIP3    H261302   2.821   6.672  13.053 -1.1639  0.8770 -0.0767
13271TIP3   OH261303   5.191   2.848  12.379 -0.7940  0.4965 -0.2167
13271TIP3    H161304   5.104   2.853  12.419 -0.4028  2.4736  0.5042
13271TIP3    H261305   5.239   2.921  12.418  0.8262  0.1579 -1.4910
13272TIP3   OH261306   2.810   2.409  17.071 -0.5839 -0.1495  0.4659
13272TIP3    H161307   2.794   2.479  17.135  0.9826 -0.8419  1.6998
13272TIP3    H261308   2.795   2.450  16.986 -0.6164  1.4305  1.1977
13273TIP3   OH261309   6.300   5.976   3.589 -1.1026 -0.0875 -0.3412
13273TIP3    H161310   6.251   6.058   3.578 -0.2202  0.7144  1.3871
13273TIP3    H261311   6.389   6.004   3.609 -0.9969 -1.4547  1.2509
13274TIP3   OH261312   3.106   3.493  14.363 -0.6093  0.3373 -0.6359
13274TIP3    H161313   3.142   3.548  14.293  1.0495 -0.3040 -0.3292
13274TIP3    H261314   3.069   3.556  14.425  3.4526  1.4531  0.9651
13275TIP3   OH261315   4.267   2.531  11.879  0.1127  0.1039  0.1322
13275TIP3    H161316   4.189   2.581  11.852 -0.8050 -0.3781  1.7661
13275TIP3    H261317   4.280   2.468  11.808 -1.2144 -0.0412 -0.0140
13276TIP3   OH261318   5.231   4.051  16.643  0.1115  0.0402  0.1312
13276TIP3    H161319   5.273   3.964  16.640  1.3600  0.6343 -1.7184
13276TIP3    H261320   5.145   4.037  16.602  0.1999 -0.3880  0.0837
13277TIP3   OH261321   0.237   1.507  16.693 -0.2222 -0.6593 -0.2444
13277TIP3    H161322   0.176   1.580  16.706 -0.6737 -0.8991 -0.9424
13277TIP3    H261323   0.196   1.453  16.625 -0.9110 -2.6502  1.6385
13278TIP3   OH261324   5.542   5.400  14.604 -0.3419 -0.6480 -0.3467
13278TIP3    H161325   5.595   5.353  14.669  1.5710  1.4646 -0.2296
13278TIP3    H261326   5.561   5.357  14.521  0.4236 -0.8485 -0.0759
13279TIP3   OH261327   4.579   1.727   5.074 -0.1422 -0.2209 -0.3529
13279TIP3    H161328   4.540   1.690   5.153 -1.9228  1.2678 -0.4737
13279TIP3    H261329   4.505   1.744   5.016  0.9137  0.7423 -1.4724
13280TIP3   OH261330   3.337   5.265  13.618  0.0780 -0.0512 -0.3466
13280TIP3    H161331   3.430   5.242  13.627  0.6061  1.2785 -2.0242
13280TIP3    H261332   3.301   5.198  13.559 -0.0917 -0.6248  0.3816
13281TIP3   OH261333   5.648   2.878  14.028  0.4295  0.1449  0.5386
13281TIP3    H161334   5.648   2.925  13.944 -1.1745  0.3927  0.6401
13281TIP3    H261335   5.555   2.868  14.049  0.8043 -0.4615  1.9913
13282TIP3   OH261336   4.202   0.620   6.400  0.1030  0.1427  0.7308
13282TIP3    H161337   4.157   0.550   6.447  0.7401 -0.4840  0.4279
13282TIP3    H261338   4.134   0.663   6.348  0.1776 -2.2731 -1.5751
13283TIP3   OH261339   1.268   3.756  12.290  0.3840 -0.3516 -0.0573
13283TIP3    H161340   1.183   3.752  12.246  0.9796  0.7679 -1.4097
13283TIP3    H261341   1.250   3.801  12.373 -0.0552  1.8439 -1.2538
13284TIP3   OH261342   4.941   2.666   4.239  0.1341 -0.6242 -0.0830
13284TIP3    H161343   4.876   2.609   4.197 -0.4614 -1.9932  2.4685
13284TIP3    H261344   4.975   2.613   4.312 -0.6681  2.3418  2.6466
13285TIP3   OH261345   0.859   3.949  11.945  0.6357 -0.2513  0.0988
13285TIP3    H161346   0.783   3.891  11.951 -0.3595  0.9738 -0.2275
13285TIP3    H261347   0.860   3.996  12.029  0.2504  0.6296 -0.3654
13286TIP3   OH261348   4.827   4.757   0.751 -0.0550  0.3494 -0.1281
13286TIP3    H161349   4.871   4.840   0.772 -0.6278  0.4975  0.5497
13286TIP3    H261350   4.736   4.782   0.736 -0.2365 -0.1606  0.1193
13287TIP3   OH261351   4.964   6.150  13.059  0.3987 -0.0571  0.1291
13287TIP3    H161352   4.888   6.135  13.002  1.3975 -0.3821 -1.1618
13287TIP3    H261353   4.945   6.233  13.102 -0.8503 -0.3029  0.1034
13288TIP3   OH261354   1.968   3.666   3.596 -0.4082 -0.1991  0.0761
13288TIP3    H161355   1.987   3.760   3.592 -2.4636  0.2432 -0.6147
13288TIP3    H261356   2.034   3.626   3.539  0.3691  0.8334  0.2240
13289TIP3   OH261357   2.015   0.981  12.432  0.0145  0.4716  0.9034
13289TIP3    H161358   1.947   1.036  12.472 -0.1779  0.6564  0.3439
13289TIP3    H261359   2.097   1.017  12.464 -0.1522  0.0013  1.9023
13290TIP3   OH261360   6.560   0.381   1.325  0.1533 -0.3092 -0.1111
13290TIP3    H161361   6.544   0.291   1.354  1.1908 -0.8508 -1.1336
13290TIP3    H261362   6.649   0.401   1.356 -0.0880  0.3809  0.1520
13291TIP3   OH261363   1.606   5.742  15.575 -0.1342  0.0854  0.3188
13291TIP3    H161364   1.556   5.661  15.589 -0.6529  0.3771  0.1572
13291TIP3    H261365   1.562   5.807  15.630  0.2759  0.2672  0.4386
13292TIP3   OH261366   2.392   0.555  16.279  0.4044 -0.4032 -0.3183
13292TIP3    H161367   2.380   0.648  16.261 -1.6673 -1.0311 -2.8478
13292TIP3    H261368   2.379   0.546  16.373  3.2456  2.1171  0.4779
13293TIP3   OH261369   1.371   4.809  14.468  0.5007  0.5592 -0.4207
13293TIP3    H161370   1.292   4.819  14.522  1.6635 -0.5556  1.6270
13293TIP3    H261371   1.376   4.715  14.450 -0.6972  1.0424 -3.9750
13294TIP3   OH261372   2.151   0.406  14.347 -0.6189  0.6514 -0.3779
13294TIP3    H161373   2.234   0.368  14.377 -0.6374  0.8046 -0.1321
13294TIP3    H261374   2.151   0.494  14.383 -0.3608  1.0567 -1.3250
13295TIP3   OH261375   3.533   2.210  13.011 -0.1086 -0.3850  0.6589
13295TIP3    H161376   3.524   2.255  13.095  0.6072 -1.0959  1.1332
13295TIP3    H261377   3.590   2.136  13.030  2.0957  0.7804 -0.9335
13296TIP3   OH261378   6.837   2.448   0.644 -0.3554  0.1338  0.2723
13296TIP3    H161379   6.851   2.375   0.704  0.7092 -0.1722 -0.3186
13296TIP3    H261380   6.814   2.521   0.701  1.0409 -0.0408  1.1209
13297TIP3   OH261381   3.014   0.617  11.116  0.3666 -0.3000 -0.2312
13297TIP3    H161382   3.051   0.544  11.066  0.1903  0.1549 -1.0482
13297TIP3    H261383   3.022   0.590  11.208  0.8969 -1.0609 -0.4898
13298TIP3   OH261384   4.341   3.291  13.101  0.0531 -0.1149  0.0204
13298TIP3    H161385   4.344   3.217  13.041 -0.7953 -0.1253 -0.0181
13298TIP3    H261386   4.283   3.262  13.171 -0.3546  0.5484 -0.0384
13299TIP3   OH261387   3.972   6.626   2.637  0.3068  0.2155  0.1910
13299TIP3    H161388   4.005   6.686   2.570 -0.6105  0.8776  0.3156
13299TIP3    H261389   3.960   6.543   2.591 -0.6348  0.7540 -0.5538
13300TIP3   OH261390   3.280   5.976   5.215  0.3402  0.0593  0.8523
13300TIP3    H161391   3.302   6.043   5.280  0.9161 -0.2207  0.9491
13300TIP3    H261392   3.290   5.893   5.262 -1.8747 -0.0682  1.1980
13301TIP3   OH261393   5.669   5.077   3.089  0.3820 -0.2168 -0.3716
13301TIP3    H161394   5.708   5.005   3.040 -1.9605 -1.6759 -0.2226
13301TIP3    H261395   5.723   5.084   3.168  0.4291 -2.0921 -0.2063
13302TIP3   OH261396   0.413   4.517  11.135 -0.3180  0.1086 -0.3278
13302TIP3    H161397   0.386   4.457  11.204  1.5847  0.1265  0.5164
13302TIP3    H261398   0.396   4.604  11.170 -2.8782  0.1469 -1.4662
13303TIP3   OH261399   0.526   4.117   0.929  0.0421  0.2069 -0.5063
13303TIP3    H161400   0.532   4.022   0.938 -3.0493  0.0025  0.8215
13303TIP3    H261401   0.477   4.131   0.848 -2.0419  0.4549  0.7324
13304TIP3   OH261402   0.460   3.387  17.191  0.5024  0.2838 -0.2749
13304TIP3    H161403   0.550   3.356  17.202  0.5415  0.4479 -0.1315
13304TIP3    H261404   0.410   3.308  17.172  0.8546  0.3261 -1.4400
13305TIP3   OH261405   4.886   6.026   2.666  0.5152  0.5372 -0.3900
13305TIP3    H161406   4.980   6.031   2.684  0.4591  0.5945 -0.1101
13305TIP3    H261407   4.879   6.046   2.573  0.7622  0.7170 -0.3731
13306TIP3   OH261408   5.741   5.221   3.704  0.4281  0.2083 -0.4857
13306TIP3    H161409   5.827   5.216   3.662  1.1004  1.6634  0.6265
13306TIP3    H261410   5.750   5.167   3.782  0.5782  0.9108 -0.0061
13307TIP3   OH261411   4.997   1.713  10.778 -0.0963 -0.2726  0.4053
13307TIP3    H161412   4.905   1.698  10.799  0.2537 -1.0262  1.4310
13307TIP3    H261413   4.995   1.768  10.699 -1.4201  0.1996  0.7529
13308TIP3   OH261414   2.070   6.509   1.940 -0.1881 -0.1063  0.0326
13308TIP3    H161415   2.125   6.488   2.016 -0.4233  0.8260  0.4890
13308TIP3    H261416   2.124   6.568   1.887 -0.8006  1.0071  0.6042
13309TIP3   OH261417   6.485   3.227  13.618 -0.5624 -0.4936  0.0474
13309TIP3    H161418   6.520   3.207  13.532  0.8589 -1.7336  0.8555
13309TIP3    H261419   6.493   3.145  13.667  1.4603  0.8436  2.2170
13310TIP3   OH261420   6.212   5.932  14.442  0.0972 -0.0391  0.0517
13310TIP3    H161421   6.155   5.982  14.500 -1.6564 -0.5458 -1.1292
13310TIP3    H261422   6.217   5.845  14.482  0.3883  0.1135  0.3572
13311TIP3   OH261423   5.190   4.918  12.513 -0.1888  0.3165  0.3719
13311TIP3    H161424   5.165   4.944  12.602 -0.3052  0.0652  0.4131
13311TIP3    H261425   5.213   4.825  12.521 -0.0748  0.3262  0.1637
13312TIP3   OH261426   2.123   4.146  12.000  0.2208  0.0942  0.2245
13312TIP3    H161427   2.151   4.161  12.091 -2.8825  1.4319  1.0947
13312TIP3    H261428   2.048   4.088  12.007  1.6086 -2.1588 -1.8430
13313TIP3   OH261429   5.909   2.014  13.313  0.1771 -0.3751  0.0474
13313TIP3    H161430   5.951   1.929  13.298 -2.3409 -1.8777  0.8378
13313TIP3    H261431   5.847   1.998  13.385  0.6327  2.5407  1.2440
13314TIP3   OH261432   0.580   0.535   4.953  0.1685  0.1969 -0.2730
13314TIP3    H161433   0.489   0.548   4.982 -0.3188 -1.8104 -0.7270
13314TIP3    H261434   0.629   0.522   5.034  0.5774  3.5285  0.1744
13315TIP3   OH261435   3.997   4.811  11.232  0.6698  0.2587 -0.4101
13315TIP3    H161436   3.996   4.906  11.242 -0.0317  0.2939 -0.8209
13315TIP3    H261437   4.090   4.787  11.241  0.7460  0.8750  0.6105
13316TIP3   OH261438   5.645   6.629   5.693 -0.1126 -0.0550 -0.0150
13316TIP3    H161439   5.665   6.699   5.756  0.9172 -0.7622  0.4798
13316TIP3    H261440   5.579   6.667   5.635  1.3112  1.8020 -0.5618
13317TIP3   OH261441   1.178   6.176   2.934 -0.1292  0.4504 -0.6665
13317TIP3    H161442   1.232   6.179   2.855 -2.4611  1.1910 -2.3504
13317TIP3    H261443   1.164   6.083   2.950  1.4666  0.2495 -0.2742
13318TIP3   OH261444   4.026   2.398   4.050  0.0984 -0.0526  0.1256
13318TIP3    H161445   3.959   2.439   4.105  0.7650  1.4359 -0.1240
13318TIP3    H261446   4.109   2.430   4.085  0.7029 -1.6015  0.2106
13319TIP3   OH261447   4.487   5.301  16.790 -0.2071 -0.2387  0.1728
13319TIP3    H161448   4.419   5.281  16.726  0.2624  0.4388 -0.5524
13319TIP3    H261449   4.464   5.387  16.824  0.9212  0.5709 -0.9826
13320TIP3   OH261450   3.213   3.444  15.704 -0.4017 -0.0251 -0.0126
13320TIP3    H161451   3.225   3.402  15.789 -1.2248  0.8499  0.5460
13320TIP3    H261452   3.296   3.488  15.687  0.0222 -0.8007 -0.0212
13321TIP3   OH261453   0.781   1.688   6.208 -0.8711 -0.3229 -0.1123
13321TIP3    H161454   0.713   1.748   6.238  0.8614  2.1443 -0.8182
13321TIP3    H261455   0.824   1.658   6.288  0.9276  2.8045  0.2539
13322TIP3   OH261456   5.108   5.057   3.449 -0.0256  0.0095 -0.2417
13322TIP3    H161457   5.018   5.076   3.424  0.3415  0.9734 -0.8790
13322TIP3    H261458   5.110   4.962   3.460 -1.3142  0.0507  0.5858
13323TIP3   OH261459   3.101   1.804  16.098  0.0371  1.0443  0.2262
13323TIP3    H161460   3.051   1.855  16.162 -1.4344 -0.7259  0.5914
13323TIP3    H261461   3.044   1.730  16.077  2.3054 -0.8289  0.2719
13324TIP3   OH261462   5.162   3.127   4.303  0.3177 -0.0508  0.6736
13324TIP3    H161463   5.098   3.188   4.341 -1.2073  0.2642 -2.1494
13324TIP3    H261464   5.236   3.182   4.279  0.9268 -0.1228  2.2149
13325TIP3   OH261465   2.773   4.658   2.846  0.0727  0.3897 -0.0452
13325TIP3    H161466   2.708   4.606   2.799  0.3063  0.8010 -0.8426
13325TIP3    H261467   2.755   4.748   2.819 -0.6341  0.8201  1.6781
13326TIP3   OH261468   1.445   3.387   1.319 -0.5196  0.2293 -0.1285
13326TIP3    H161469   1.435   3.362   1.228  0.3210 -0.6546  0.0064
13326TIP3    H261470   1.397   3.321   1.368 -0.5086  0.3855  0.0948
13327TIP3   OH261471   5.435   5.919   3.932  0.1316 -0.1665 -0.2276
13327TIP3    H161472   5.523   5.955   3.919 -1.1818  2.6047 -2.2980
13327TIP3    H261473   5.381   5.994   3.957 -1.6415 -1.8925  1.5284
13328TIP3   OH261474   3.575   6.191  15.642  0.5849  0.1138 -0.3259
13328TIP3    H161475   3.517   6.255  15.601 -0.4540 -0.0204  0.8641
13328TIP3    H261476   3.518   6.117  15.665  1.6210 -0.9391 -0.9989
13329TIP3   OH261477   5.695   6.825   3.495  0.1253  0.6789  0.1804
13329TIP3    H161478   5.689   6.889   3.424 -1.5112  0.2325 -0.1304
13329TIP3    H261479   5.737   6.873   3.567  0.7674  1.4751 -0.7019
13330TIP3   OH261480   6.635   2.903  14.871 -0.2967 -0.5061 -0.8686
13330TIP3    H161481   6.689   2.870  14.942 -0.3624 -0.5571 -0.8414
13330TIP3    H261482   6.639   2.835  14.803 -1.2814 -1.0678 -0.3888
13331TIP3   OH261483   1.324   0.744  13.919  0.1563  0.1665  0.0867
13331TIP3    H161484   1.339   0.688  13.843 -0.4449  0.8212 -0.5268
13331TIP3    H261485   1.394   0.719  13.980 -0.1854 -1.3619 -0.0868
13332TIP3   OH261486   2.283   4.146  15.006  0.0148  0.5891  0.5150
13332TIP3    H161487   2.289   4.164  14.913 -2.6521 -0.6256  0.0097
13332TIP3    H261488   2.306   4.053  15.014 -0.5643  0.4727  0.9150
13333TIP3   OH261489   0.988   1.992  14.342  0.0831 -0.0789 -0.1979
13333TIP3    H161490   1.004   1.921  14.279 -0.9246 -0.8375  0.3799
13333TIP3    H261491   0.899   2.021  14.324  0.4634  1.0273 -0.3858
13334TIP3   OH261492   2.780   1.507  15.442  0.1473 -0.5955  0.2587
13334TIP3    H161493   2.824   1.422  15.437 -0.3357 -0.8606  0.4063
13334TIP3    H261494   2.697   1.494  15.395  0.0617 -0.2163  0.3018
13335TIP3   OH261495   4.656   0.611   2.419  0.6133  0.2736  0.0351
13335TIP3    H161496   4.672   0.676   2.488  1.3084 -0.5608  0.6876
13335TIP3    H261497   4.736   0.558   2.417  0.1142 -0.4756 -0.5719
13336TIP3   OH261498   0.338   6.634   5.737 -0.0051  0.5191  0.1494
13336TIP3    H161499   0.327   6.541   5.721 -2.0114  0.4489  1.6080
13336TIP3    H261500   0.431   6.650   5.721  0.1410 -1.4693 -1.2844
13337TIP3   OH261501   5.824   0.544  13.519  0.1703 -0.7307 -0.6155
13337TIP3    H161502   5.879   0.522  13.593 -0.5651  0.5158  0.3518
13337TIP3    H261503   5.884   0.580  13.453  0.4700  1.8675  0.9180
13338TIP3   OH261504   3.908   6.823  15.648 -0.2448 -0.0456  0.4956
13338TIP3    H161505   3.878   6.833  15.738 -0.7525  0.1527  0.3098
13338TIP3    H261506   3.972   6.894  15.636 -0.0919 -0.1417  0.7304
13339TIP3   OH261507   0.571   6.837   2.409 -0.2041 -0.5230  0.2076
13339TIP3    H161508   0.625   6.911   2.434  0.1341 -0.8312  0.4006
13339TIP3    H261509   0.633   6.772   2.375 -0.6086 -0.2522 -1.1041
13340TIP3   OH261510   4.233   0.291  10.887 -0.8231 -0.1103 -0.8232
13340TIP3    H161511   4.184   0.353  10.833 -0.6024  0.0139 -0.8843
13340TIP3    H261512   4.226   0.207  10.840  0.0620  0.1730 -1.4943
13341TIP3   OH261513   3.788   6.670  14.101  0.0333 -0.2738 -0.6202
13341TIP3    H161514   3.698   6.656  14.073  0.4034 -3.5677 -0.4652
13341TIP3    H261515   3.842   6.642  14.026  0.9445 -0.0943 -0.0521
13342TIP3   OH261516   2.276   4.237   3.594  0.1112  0.9049 -0.4049
13342TIP3    H161517   2.190   4.246   3.636  0.2979  0.1997  0.1584
13342TIP3    H261518   2.324   4.178   3.652  1.0089  1.3640 -0.6719
13343TIP3   OH261519   2.058   3.874  15.060  0.2564  0.4365 -0.3887
13343TIP3    H161520   2.089   3.816  14.991 -2.2987 -0.1215 -1.1460
13343TIP3    H261521   2.054   3.960  15.019 -1.5231  0.0588 -1.0997
13344TIP3   OH261522   3.778   6.769  12.749 -0.2786  0.5142  0.3966
13344TIP3    H161523   3.834   6.704  12.707 -0.1671  0.2506  0.9334
13344TIP3    H261524   3.764   6.735  12.838 -0.6917  0.9377  0.5036
13345TIP3   OH261525   4.102   5.622  13.538  0.1579  0.9167 -0.0355
13345TIP3    H161526   4.191   5.589  13.549 -0.2495  0.3185  1.7528
13345TIP3    H261527   4.083   5.670  13.619 -1.9093 -0.8785  0.6476
13346TIP3   OH261528   6.107   3.442  12.005 -0.0258 -0.0264 -0.5284
13346TIP3    H161529   6.052   3.387  11.948  1.2439 -1.6262 -0.2836
13346TIP3    H261530   6.196   3.417  11.983  0.5626  1.1238  0.4532
13347TIP3   OH261531   2.705   5.157  16.177 -0.0388  0.2144  0.1226
13347TIP3    H161532   2.764   5.102  16.228  1.8614  2.2192  0.2238
13347TIP3    H261533   2.662   5.213  16.242 -1.2875 -0.5104 -0.0588
13348TIP3   OH261534   6.388   0.194  14.272 -0.4944  0.3528 -0.6774
13348TIP3    H161535   6.299   0.192  14.308 -0.2348  0.5965 -0.0115
13348TIP3    H261536   6.434   0.258  14.325  0.1321  0.1005 -0.9115
13349TIP3   OH261537   3.348   4.271   2.016  0.5505 -0.2903 -0.0689
13349TIP3    H161538   3.386   4.295   2.101  1.0267 -0.5379 -0.2067
13349TIP3    H261539   3.333   4.355   1.972 -0.0310 -0.1451  0.3965
13350TIP3   OH261540   3.677   1.160  11.827  0.4488  0.5692  0.3596
13350TIP3    H161541   3.614   1.117  11.884 -0.4460 -0.3830 -1.2883
13350TIP3    H261542   3.646   1.143  11.738  0.9120  3.3116 -0.4319
13351TIP3   OH261543   5.095   4.621  13.375  0.0555 -0.3798  0.3488
13351TIP3    H161544   5.150   4.548  13.345  0.0522 -0.3132  0.1812
13351TIP3    H261545   5.155   4.677  13.425  0.2747 -0.0157 -0.3045
13352TIP3   OH261546   6.396   2.462   6.003 -0.6440 -0.2487  0.3244
13352TIP3    H161547   6.461   2.393   6.020  2.3184  2.4433  0.8955
13352TIP3    H261548   6.387   2.508   6.086 -1.5182  0.8875 -0.3702
13353TIP3   OH261549   5.552   0.564   0.664  0.4761 -0.0204  0.1254
13353TIP3    H161550   5.502   0.532   0.739 -0.3654 -0.5058 -0.6296
13353TIP3    H261551   5.596   0.485   0.630  1.7451  0.3842  0.7441
13354TIP3   OH261552   3.553   4.253  11.338  0.6024 -0.1081 -1.4255
13354TIP3    H161553   3.638   4.218  11.364 -0.6678 -1.7356  0.9669
13354TIP3    H261554   3.532   4.208  11.257  0.3712 -2.8196  0.0126
13355TIP3   OH261555   2.025   4.370  13.859  0.2694 -0.5530  0.1171
13355TIP3    H161556   2.050   4.362  13.951  1.3000  1.7827  0.1088
13355TIP3    H261557   1.929   4.361  13.860  0.1257  0.6401  1.6292
13356TIP3   OH261558   2.616   3.681  15.911 -0.0814  0.0814  0.7450
13356TIP3    H161559   2.698   3.704  15.868 -0.5710 -0.8685 -0.7546
13356TIP3    H261560   2.640   3.610  15.971  0.2187 -0.0972  0.4149
13357TIP3   OH261561   1.021   3.553   0.685 -0.1589  0.1533  0.3717
13357TIP3    H161562   0.946   3.592   0.729  1.7095  2.1594  1.9365
13357TIP3    H261563   1.092   3.559   0.748  1.8599  0.2537 -1.7884
13358TIP3   OH261564   6.412   4.095  16.142  0.2146 -0.2294  0.1625
13358TIP3    H161565   6.346   4.030  16.118 -0.4112 -1.6914  4.8149
13358TIP3    H261566   6.368   4.151  16.206  2.6117  0.6538  1.1465
13359TIP3   OH261567   3.093   6.175   3.492  0.1820 -0.5353  0.0936
13359TIP3    H161568   3.164   6.149   3.551  0.4305 -1.6849 -0.6713
13359TIP3    H261569   3.096   6.270   3.491  2.4250 -0.5671 -0.7498
13360TIP3   OH261570   5.245   6.011   5.678  0.0162  0.8116  0.0730
13360TIP3    H161571   5.318   5.983   5.623 -0.1351  0.0838  0.2263
13360TIP3    H261572   5.286   6.033   5.762  0.2149  1.6761 -0.2394
13361TIP3   OH261573   6.343   1.173   3.364  0.2512 -0.2444  0.3449
13361TIP3    H161574   6.353   1.248   3.423 -0.4254 -0.1209  0.3169
13361TIP3    H261575   6.357   1.097   3.421  0.1981 -0.1134  0.5371
13362TIP3   OH261576   0.554   1.414   4.043  0.7085 -0.3004  0.5982
13362TIP3    H161577   0.591   1.462   4.117 -0.6554  0.5154  0.7895
13362TIP3    H261578   0.622   1.416   3.976  0.4932  2.5362  0.3403
13363TIP3   OH261579   0.696   0.101   0.722 -0.8298 -0.3637 -0.3304
13363TIP3    H161580   0.704   0.007   0.736 -2.0783 -0.5054 -0.4369
13363TIP3    H261581   0.664   0.110   0.633 -1.7277  0.0932  0.0186
13364TIP3   OH261582   4.872   0.259   1.598 -0.9649  0.4019  0.0019
13364TIP3    H161583   4.941   0.232   1.658 -0.6380  0.9500 -0.1209
13364TIP3    H261584   4.795   0.274   1.653 -0.5332  1.3791  0.3503
13365TIP3   OH261585   4.700   1.162   1.617 -0.1894  0.0238  0.9899
13365TIP3    H161586   4.655   1.197   1.541 -0.7225 -1.4718  0.5958
13365TIP3    H261587   4.729   1.075   1.591  1.6437  0.3445  1.7377
13366TIP3   OH261588   2.574   3.569  15.070 -0.8887  0.0304  0.1018
13366TIP3    H161589   2.581   3.588  15.163 -1.3005 -1.0037  0.3594
13366TIP3    H261590   2.650   3.513  15.052 -0.9166  0.0712 -0.1431
13367TIP3   OH261591   1.215   3.507   1.703  0.1758 -0.3010 -0.5907
13367TIP3    H161592   1.168   3.506   1.619  1.4985 -2.2729 -1.3961
13367TIP3    H261593   1.239   3.415   1.718  1.9595  0.3311  0.7899
13368TIP3   OH261594   6.443   4.553  16.491 -0.3484  0.1384 -0.1887
13368TIP3    H161595   6.474   4.463  16.501 -0.8518  0.0847  1.0160
13368TIP3    H261596   6.499   4.604  16.549 -0.3726  0.5374 -0.5118
13369TIP3   OH261597   4.448   0.658   5.682 -0.0375  0.5838  0.3491
13369TIP3    H161598   4.493   0.729   5.727  0.2206  0.8616 -0.3355
13369TIP3    H261599   4.482   0.578   5.723  0.8396  0.7996  0.0531
13370TIP3   OH261600   0.535   4.897  16.107  0.1118  0.1466 -0.3246
13370TIP3    H161601   0.515   4.984  16.072  1.2989 -0.6113 -3.1827
13370TIP3    H261602   0.628   4.902  16.129  0.2146 -0.4167 -0.6218
13371TIP3   OH261603   4.099   4.437  14.064  0.3106  0.4371  0.3638
13371TIP3    H161604   4.057   4.486  14.135  2.4898  2.8893  0.0901
13371TIP3    H261605   4.136   4.360  14.107 -1.8230 -0.2546  1.1005
13372TIP3   OH261606   0.629   4.978   5.001  0.0336 -0.1274  0.5418
13372TIP3    H161607   0.674   4.894   5.000  1.3605  0.5459  1.2644
13372TIP3    H261608   0.696   5.042   4.976 -1.1787  0.6467 -0.9216
13373TIP3   OH261609   1.323   5.699  12.515  0.4723 -0.0424 -0.5627
13373TIP3    H161610   1.354   5.624  12.566  1.7880  2.3446  2.4872
13373TIP3    H261611   1.237   5.673  12.484 -0.2620 -1.9586  2.5882
13374TIP3   OH261612   0.151   2.921   2.812  0.0738  0.7639 -0.2696
13374TIP3    H161613   0.106   2.859   2.755  1.5390 -1.7626  1.1308
13374TIP3    H261614   0.094   2.931   2.888  0.1330  0.5694 -0.1982
13375TIP3   OH261615   2.114   2.807   0.175  0.1576  0.2346 -0.0401
13375TIP3    H161616   2.079   2.876   0.232 -1.2638 -0.4011 -0.1011
13375TIP3    H261617   2.103   2.726   0.226  1.3714 -0.0231 -0.1610
13376TIP3   OH261618   4.986   0.833   0.406 -0.5574  0.2459 -0.3344
13376TIP3    H161619   4.978   0.738   0.421 -0.5406  0.2896 -0.0535
13376TIP3    H261620   4.938   0.848   0.324 -0.4555 -0.0249 -0.4449
13377TIP3   OH261621   2.517   6.502   5.435  0.2691  0.7244  0.1127
13377TIP3    H161622   2.518   6.450   5.515  3.1501  0.2747 -0.1009
13377TIP3    H261623   2.521   6.437   5.364  1.8692  1.1222 -0.2123
13378TIP3   OH261624   5.665   6.545  12.794 -0.3302  0.0540  0.3331
13378TIP3    H161625   5.598   6.613  12.805 -1.0887 -1.1129  4.5411
13378TIP3    H261626   5.615   6.464  12.784  0.5681 -0.3927 -0.7520
13379TIP3   OH261627   0.709   0.695  14.954  0.2345 -0.5692  0.0678
13379TIP3    H161628   0.628   0.653  14.925  0.0134 -0.0920 -0.0144
13379TIP3    H261629   0.689   0.789  14.955  1.7282 -0.0418 -3.2636
13380TIP3   OH261630   0.048   1.049   0.706  0.2096  0.3074  0.4494
13380TIP3    H161631  -0.005   1.095   0.641 -0.3302  1.6520  1.8098
13380TIP3    H261632   0.137   1.050   0.669  0.1218  2.0266  0.2171
13381TIP3   OH261633   2.743   5.793  11.673 -0.0320  0.5571 -0.0641
13381TIP3    H161634   2.729   5.730  11.603 -0.3395 -1.0643  1.3790
13381TIP3    H261635   2.786   5.867  11.631  0.7217 -0.7838 -1.7537
13382TIP3   OH261636   4.053   0.684  13.412 -0.0413 -0.2169 -0.1916
13382TIP3    H161637   4.036   0.776  13.431 -0.9631  0.0644 -2.1062
13382TIP3    H261638   4.078   0.646  13.496  0.5706  1.8126  0.6065
13383TIP3   OH261639   1.019   2.855   5.016 -0.0697 -0.2565 -0.2063
13383TIP3    H161640   0.970   2.918   4.962 -1.0202 -0.2899  0.5864
13383TIP3    H261641   1.024   2.897   5.102  1.9669  0.0740 -0.4463
13384TIP3   OH261642   1.107   4.154  17.018 -0.0467 -0.3568 -0.5018
13384TIP3    H161643   1.158   4.235  17.015 -1.8137  0.7843 -1.1359
13384TIP3    H261644   1.110   4.128  17.110  0.3823  0.5357 -0.2498
13385TIP3   OH261645   5.256   1.139  16.438  0.4634 -0.0124  0.1806
13385TIP3    H161646   5.225   1.217  16.394  0.1107  0.2457  0.8661
13385TIP3    H261647   5.329   1.170  16.492  0.9772 -0.3470 -0.3091
13386TIP3   OH261648   5.464   5.307  12.216 -0.0320  0.3103 -0.1505
13386TIP3    H161649   5.393   5.277  12.158 -1.2619 -0.1920  1.5445
13386TIP3    H261650   5.427   5.384  12.259 -0.2952 -1.0078  2.1072
13387TIP3   OH261651   5.145   1.417  13.579  0.3871 -0.4866  0.0141
13387TIP3    H161652   5.138   1.376  13.665  0.2967 -2.0754 -0.7105
13387TIP3    H261653   5.237   1.405  13.554  0.6975  1.0071  0.3559
13388TIP3   OH261654   2.636   1.063  12.590  0.6020 -0.4411 -0.4927
13388TIP3    H161655   2.632   1.055  12.685  0.4644  1.5242 -0.2888
13388TIP3    H261656   2.564   1.008  12.558 -0.1333 -0.1505  0.6164
13389TIP3   OH261657   5.569   3.894   3.507 -0.0179  0.2029 -0.4522
13389TIP3    H161658   5.483   3.853   3.514 -0.9477  1.9479 -1.1889
13389TIP3    H261659   5.579   3.916   3.415  0.0448  2.3819  0.0226
13390TIP3   OH261660   5.077   0.721  13.097  0.1466 -0.4644 -0.2019
13390TIP3    H161661   5.101   0.809  13.125  0.3857 -0.7547  0.5376
13390TIP3    H261662   5.134   0.663  13.149 -0.6470 -1.0844  0.0042
13391TIP3   OH261663   1.711   6.645  10.669  0.1290  0.2020  0.3500
13391TIP3    H161664   1.685   6.657  10.577  2.0433 -0.9110 -0.4019
13391TIP3    H261665   1.791   6.697  10.678  1.8026 -2.1872  0.3862
13392TIP3   OH261666   3.107   6.242  14.002 -0.1821  0.3526 -0.7076
13392TIP3    H161667   3.034   6.300  13.983 -0.5852 -0.2741 -1.1222
13392TIP3    H261668   3.185   6.296  13.989 -0.5475  0.7994 -1.0715
13393TIP3   OH261669   5.415   2.124  14.653  0.0915 -0.2957 -0.0167
13393TIP3    H161670   5.457   2.057  14.599 -0.3113  1.4554 -2.6533
13393TIP3    H261671   5.461   2.205  14.632 -1.4055  0.7969  0.7562
13394TIP3   OH261672   3.798   1.464  15.307  0.1162 -0.1207  0.2593
13394TIP3    H161673   3.819   1.415  15.227  0.2646  1.0753 -0.4648
13394TIP3    H261674   3.709   1.496  15.292 -0.1514 -0.5447  0.9228
13395TIP3   OH261675   0.826   0.779   4.348 -0.8184 -0.2593 -0.0711
13395TIP3    H161676   0.753   0.789   4.410 -0.1954  0.1481  0.6119
13395TIP3    H261677   0.827   0.861   4.299 -1.0510 -0.4163 -0.3421
13396TIP3   OH261678   5.490   1.615  16.795 -0.0362  0.0234  0.2538
13396TIP3    H161679   5.449   1.682  16.849 -1.2668 -0.9288  0.5431
13396TIP3    H261680   5.572   1.655  16.765  0.4942  0.7235  2.4624
13397TIP3   OH261681   2.346   5.058  14.761  0.8500  0.2545  0.0829
13397TIP3    H161682   2.322   5.043  14.853  1.0167  0.9741  0.2542
13397TIP3    H261683   2.320   4.978  14.716 -1.6636  0.8576  0.3091
13398TIP3   OH261684   4.587   5.796  15.680 -0.7672 -0.6142  0.2365
13398TIP3    H161685   4.505   5.754  15.704 -0.5867  0.1222  2.3434
13398TIP3    H261686   4.561   5.869  15.623 -1.5317 -0.6548  0.5288
13399TIP3   OH261687   0.974   6.760   2.188 -0.3812 -0.1328  0.0716
13399TIP3    H161688   0.976   6.666   2.202 -0.1648  0.1464  2.3225
13399TIP3    H261689   1.060   6.790   2.217  0.0067  0.6410 -1.7968
13400TIP3   OH261690   2.598   5.885  11.915 -0.0439  0.3730 -0.5215
13400TIP3    H161691   2.643   5.842  11.842  3.0733  1.9594  0.2845
13400TIP3    H261692   2.555   5.961  11.875 -2.0568 -1.0737 -1.2794
13401TIP3   OH261693   2.888   5.172  12.734 -0.3233 -0.7019 -0.2504
13401TIP3    H161694   2.909   5.083  12.759  0.5651 -0.3192  0.4119
13401TIP3    H261695   2.826   5.203  12.801 -1.2821 -1.0785 -0.9391
13402TIP3   OH261696   4.049   0.439   4.067 -0.3053 -0.4449 -1.1027
13402TIP3    H161697   4.012   0.405   4.148  1.8362  1.0204  0.6033
13402TIP3    H261698   4.084   0.525   4.091 -0.0316  0.2610 -3.7214
13403TIP3   OH261699   6.806   0.673   2.854 -0.5502  0.0556 -0.0609
13403TIP3    H161700   6.773   0.584   2.842 -0.8284  0.0419  0.7929
13403TIP3    H261701   6.739   0.729   2.814 -0.8441 -0.0595  0.2732
13404TIP3   OH261702   2.192   6.135   4.133  0.3305  0.0310 -0.2559
13404TIP3    H161703   2.224   6.194   4.065  1.5632 -0.7370 -0.3887
13404TIP3    H261704   2.201   6.048   4.094  2.8688 -0.5967  1.5079
13405TIP3   OH261705   4.381   6.294  12.639  0.1558 -0.5098  0.2240
13405TIP3    H161706   4.423   6.225  12.589 -0.0688 -2.7584  2.9200
13405TIP3    H261707   4.452   6.336  12.687 -0.0643 -1.1027  1.0940
13406TIP3   OH261708   0.311   4.957  16.662 -0.5228  0.5372 -0.0223
13406TIP3    H161709   0.390   4.910  16.689 -0.3130  0.8999  0.0084
13406TIP3    H261710   0.247   4.936  16.730 -1.2848 -1.8467 -1.3755
13407TIP3   OH261711   6.693   4.609  11.523 -0.0822 -0.4037  0.3055
13407TIP3    H161712   6.788   4.612  11.532 -0.0986 -1.0305  0.7372
13407TIP3    H261713   6.665   4.701  11.531  0.3505 -0.3684  1.6813
13408TIP3   OH261714   0.869   2.403  15.977 -0.3305 -0.2286  0.1914
13408TIP3    H161715   0.886   2.309  15.975 -0.9102 -0.3673 -2.6166
13408TIP3    H261716   0.786   2.412  16.023  0.8548 -0.7855  2.5881
13409TIP3   OH261717   3.885   6.440   5.195 -0.1821 -0.3580  0.1531
13409TIP3    H161718   3.840   6.360   5.167 -2.7469  0.9333  0.2251
13409TIP3    H261719   3.814   6.503   5.208  1.5232  1.2413  2.4524
13410TIP3   OH261720   1.723   3.847  11.805  0.2366 -0.0332  0.6687
13410TIP3    H161721   1.817   3.839  11.817  0.3555 -0.1422 -0.2730
13410TIP3    H261722   1.686   3.837  11.893  1.0594 -0.5728  0.9602
13411TIP3   OH261723   3.410   0.432   3.613 -0.6453 -0.7628  0.0037
13411TIP3    H161724   3.321   0.404   3.633 -0.2704 -0.9919  1.4783
13411TIP3    H261725   3.450   0.357   3.570 -1.0540 -0.7996 -0.3090
13412TIP3   OH261726   3.765   0.035   0.628 -0.5932  0.2001  0.5631
13412TIP3    H161727   3.824  -0.026   0.672 -0.4198  0.9824  1.4705
13412TIP3    H261728   3.743   0.099   0.696 -1.1276  0.8816 -0.2307
13413TIP3   OH261729   0.519   4.734  11.614 -0.2076  0.2300 -0.7355
13413TIP3    H161730   0.495   4.643  11.594 -0.4360  0.4242 -1.3864
13413TIP3    H261731   0.533   4.774  11.528  0.8517  0.5563 -0.4213
13414TIP3   OH261732   3.218   4.643   0.717  0.0145  0.1935  0.3752
13414TIP3    H161733   3.214   4.653   0.812 -0.5420  0.4344  0.3354
13414TIP3    H261734   3.141   4.691   0.685 -2.5771 -3.7244  0.1030
13415TIP3   OH261735   3.502   1.673   3.864  0.3149  0.3098 -0.5240
13415TIP3    H161736   3.439   1.604   3.844  0.0903  0.6910 -1.1550
13415TIP3    H261737   3.537   1.699   3.779  0.1194  1.2417 -0.3299
13416TIP3   OH261738   6.779   5.960   6.437 -0.0447 -0.0165 -0.1007
13416TIP3    H161739   6.821   5.888   6.483  0.9123  0.1465 -0.7042
13416TIP3    H261740   6.846   5.995   6.378 -0.5968  1.1356 -0.0872
13417TIP3   OH261741   3.876   4.834  14.453 -0.3986  0.1550  0.1047
13417TIP3    H161742   3.938   4.876  14.513 -1.8612  1.2371  0.9168
13417TIP3    H261743   3.922   4.831  14.369  0.3513  1.9604  0.4047
13418TIP3   OH261744   5.707   2.488   5.254  0.1415 -0.7691 -0.4637
13418TIP3    H161745   5.619   2.470   5.221  0.3300 -0.5357 -1.1101
13418TIP3    H261746   5.722   2.580   5.232  0.3465 -0.6646  0.1089
13419TIP3   OH261747   0.326   2.992   0.980 -0.0727  0.4787  0.3522
13419TIP3    H161748   0.351   3.004   1.071  1.5162  1.0072 -0.1262
13419TIP3    H261749   0.263   3.062   0.962  0.3488  0.9653  0.7714
13420TIP3   OH261750   5.379   5.720   4.161 -0.5209  0.7160  0.6540
13420TIP3    H161751   5.331   5.802   4.149  0.9635  1.5913  0.4969
13420TIP3    H261752   5.405   5.694   4.073 -0.2386  0.5453  0.7847
13421TIP3   OH261753   2.921   2.421  11.644 -0.7715  0.4607  0.1420
13421TIP3    H161754   2.900   2.416  11.551 -1.1098 -1.4374  0.2817
13421TIP3    H261755   2.836   2.434  11.687 -0.5197  2.2393  0.1618
13422TIP3   OH261756   3.379   2.764  10.608 -0.0082 -0.3239  0.8181
13422TIP3    H161757   3.322   2.689  10.597 -2.0471  1.2112  0.2123
13422TIP3    H261758   3.468   2.728  10.611 -0.5970 -2.4955 -2.7948
13423TIP3   OH261759   5.066   3.151   1.207 -0.2533  0.6590  0.0641
13423TIP3    H161760   4.971   3.149   1.199 -0.2461  0.6792 -0.0240
13423TIP3    H261761   5.097   3.186   1.124 -0.1135 -0.3534 -0.3214
13424TIP3   OH261762   6.647   4.215   1.112  0.2980 -0.0360 -0.3438
13424TIP3    H161763   6.606   4.286   1.063  0.6710  0.8893  0.6533
13424TIP3    H261764   6.736   4.210   1.077  1.1669  1.8644  1.4342
13425TIP3   OH261765   6.659   0.386  12.465 -0.0487  0.4905  0.0668
13425TIP3    H161766   6.722   0.318  12.441  1.1615  1.3881  0.6280
13425TIP3    H261767   6.696   0.467  12.430 -1.3514  0.9183 -0.3755
13426TIP3   OH261768   1.857   1.364   0.748 -0.2776  0.5491  0.4013
13426TIP3    H161769   1.786   1.321   0.700  0.1836 -1.3989  1.3452
13426TIP3    H261770   1.814   1.400   0.826 -0.4238  0.4585  0.3641
13427TIP3   OH261771   0.192   1.246  15.463  0.4724 -0.4294  0.2407
13427TIP3    H161772   0.148   1.294  15.392  0.2489  1.0341  1.3248
13427TIP3    H261773   0.130   1.178  15.488  1.4957 -2.5664 -2.5034
13428TIP3   OH261774   1.656   5.083  14.625  0.6034  0.2150  0.1583
13428TIP3    H161775   1.747   5.110  14.615  1.4843 -1.8874  1.7796
13428TIP3    H261776   1.636   5.035  14.545  1.4172 -0.5464  0.3993
13429TIP3   OH261777   0.456   2.578   0.786 -0.4997 -0.1677 -0.0143
13429TIP3    H161778   0.482   2.627   0.708  0.3059 -0.7991 -0.1625
13429TIP3    H261779   0.440   2.489   0.754 -2.5332  0.0881  0.1397
13430TIP3   OH261780   6.074   6.283   1.452  0.2642  0.5403 -0.0847
13430TIP3    H161781   6.052   6.201   1.409 -0.0793  0.2865  0.5623
13430TIP3    H261782   6.098   6.342   1.381  2.2635 -0.6312 -0.4358
13431TIP3   OH261783   1.039   2.405   3.852 -0.3691 -0.4802  0.0351
13431TIP3    H161784   1.022   2.321   3.894  1.5055 -0.6353  0.5465
13431TIP3    H261785   1.085   2.457   3.918  1.8086 -0.3982 -1.4506
13432TIP3   OH261786   1.358   1.786   1.737 -0.4783  0.3030  0.2573
13432TIP3    H161787   1.291   1.833   1.687 -0.3031 -0.4889 -0.7275
13432TIP3    H261788   1.418   1.855   1.766 -1.2616  0.9173  0.4633
13433TIP3   OH261789   0.365   0.245   4.954 -0.1413  0.4996  0.6635
13433TIP3    H161790   0.448   0.199   4.939 -0.3118  0.3942 -0.0020
13433TIP3    H261791   0.390   0.325   5.001  0.1205 -0.3960  2.0887
13434TIP3   OH261792   3.879   4.474   4.856 -0.0141 -0.5008  0.2631
13434TIP3    H161793   3.960   4.466   4.907 -0.7916 -0.8486  1.4775
13434TIP3    H261794   3.810   4.448   4.917 -1.0117 -0.5634 -0.8698
13435TIP3   OH261795   2.283   3.139   5.491  0.3388 -0.5223  0.3348
13435TIP3    H161796   2.302   3.130   5.398  2.4682 -0.7538  0.7413
13435TIP3    H261797   2.369   3.140   5.533 -0.5674 -0.2646  2.2900
13436TIP3   OH261798   6.704   2.018  15.273 -0.0988 -0.1437  0.6417
13436TIP3    H161799   6.769   1.950  15.291 -1.7245 -1.8144  0.5207
13436TIP3    H261800   6.626   1.990  15.322 -0.9832  1.3628  0.1526
13437TIP3   OH261801   2.832   1.933   4.197 -0.0247  0.2385  0.0439
13437TIP3    H161802   2.844   2.019   4.156 -1.0267  0.9709  1.2107
13437TIP3    H261803   2.840   1.871   4.125  0.1224  1.3537 -0.9326
13438TIP3   OH261804   6.195   1.245   2.146 -0.1339 -0.7951 -0.0834
13438TIP3    H161805   6.184   1.338   2.127  0.2979 -0.5489  0.8052
13438TIP3    H261806   6.128   1.201   2.093 -0.5376  0.0449 -0.2804
13439TIP3   OH261807   2.097   2.796  13.540 -0.0166 -0.3337 -0.4220
13439TIP3    H161808   2.164   2.865  13.543  0.9032 -1.2310  1.1382
13439TIP3    H261809   2.021   2.838  13.500  0.6423  1.4804  0.1308
13440TIP3   OH261810   3.771   5.256   1.196  0.5315 -0.2173  0.2714
13440TIP3    H161811   3.834   5.209   1.142 -0.5081  1.2970 -2.4496
13440TIP3    H261812   3.763   5.342   1.154 -2.3381  0.1040  1.2610
13441TIP3   OH261813   2.671   5.778  16.398 -0.3983 -0.9187 -0.1261
13441TIP3    H161814   2.660   5.746  16.488  1.9634 -0.6421  0.3143
13441TIP3    H261815   2.649   5.702  16.344  1.2463 -2.1303  0.8022
13442TIP3   OH261816   6.166   0.255   3.621 -0.7145 -0.4455 -0.1054
13442TIP3    H161817   6.218   0.181   3.653  0.2722 -0.1582 -0.9681
13442TIP3    H261818   6.192   0.329   3.675  0.0407 -0.2295 -0.7483
13443TIP3   OH261819   4.401   0.681  13.106 -0.1647  0.1960 -0.2513
13443TIP3    H161820   4.339   0.754  13.109 -0.3224  0.0541 -0.0722
13443TIP3    H261821   4.487   0.723  13.111 -0.2788  0.2997  1.2228
13444TIP3   OH261822   4.312   5.458  13.365 -0.1138 -0.1028 -0.1343
13444TIP3    H161823   4.301   5.388  13.429  0.1259  1.1012  1.2620
13444TIP3    H261824   4.383   5.511  13.400 -2.2055  2.5219  0.4230
13445TIP3   OH261825   1.063   0.741  12.440 -0.1844 -0.4256  0.0331
13445TIP3    H161826   1.031   0.713  12.526 -2.2909 -1.2184 -0.9434
13445TIP3    H261827   0.983   0.752  12.388  1.0540 -0.0151 -1.8433
13446TIP3   OH261828   4.950   1.831  15.996 -0.6072  0.5311 -0.1768
13446TIP3    H161829   4.952   1.752  16.050 -2.0687  1.4790  1.3566
13446TIP3    H261830   4.880   1.816  15.933 -0.2386  0.2312 -0.5214
13447TIP3   OH261831   2.489   0.282  13.446  0.0650  0.3473 -0.6895
13447TIP3    H161832   2.560   0.341  13.469 -1.0209  1.4947 -0.1206
13447TIP3    H261833   2.470   0.235  13.527  0.2320 -0.0208 -0.8633
13448TIP3   OH261834   6.548   1.884   2.438 -0.3464  0.8003 -0.4890
13448TIP3    H161835   6.532   1.867   2.345 -0.8587  0.7400 -0.3925
13448TIP3    H261836   6.475   1.841   2.483  1.1868 -1.3647  0.1235
13449TIP3   OH261837   1.303   5.260   0.660  0.3811  0.5404 -0.0863
13449TIP3    H161838   1.298   5.310   0.742 -1.4796 -1.7794  1.3479
13449TIP3    H261839   1.376   5.198   0.674 -0.5227 -0.4762  0.2401
13450TIP3   OH261840   5.113   3.462   2.251 -0.1489 -0.1574 -0.0928
13450TIP3    H161841   5.159   3.432   2.172 -1.0189  2.6425 -1.8360
13450TIP3    H261842   5.026   3.486   2.220  0.1894  3.2055  1.1345
13451TIP3   OH261843   3.274   0.922   2.869 -0.1652  0.5855  0.0343
13451TIP3    H161844   3.361   0.946   2.836 -0.0723  0.1822 -0.0173
13451TIP3    H261845   3.238   0.863   2.803  0.8388 -1.8800  1.5375
13452TIP3   OH261846   3.718   4.767  11.970  1.0047  0.0794  0.1502
13452TIP3    H161847   3.722   4.849  12.020  0.1082  0.0934  0.2160
13452TIP3    H261848   3.788   4.714  12.006  0.4920  0.1577  1.3218
13453TIP3   OH261849   4.201   3.860  13.863 -0.1025  0.5250  0.2230
13453TIP3    H161850   4.262   3.868  13.936 -0.3875 -0.5835  0.6005
13453TIP3    H261851   4.121   3.824  13.902 -0.6538  0.9948 -0.4428
13454TIP3   OH261852   2.644   3.662   0.662  0.2917 -0.5719  0.2396
13454TIP3    H161853   2.625   3.625   0.576  0.6509  0.7722 -0.4259
13454TIP3    H261854   2.731   3.627   0.684  0.8366  0.2176 -0.5947
13455TIP3   OH261855   4.048   3.046  16.224 -0.0711 -0.6565 -0.1462
13455TIP3    H161856   3.991   2.970  16.213 -0.8461  0.0544 -1.2577
13455TIP3    H261857   4.005   3.099  16.291 -0.4944 -0.3548 -0.6425
13456TIP3   OH261858   4.147   2.919  10.968  1.3288 -0.4602  0.0373
13456TIP3    H161859   4.081   2.949  10.905  1.5926 -1.0466 -0.5346
13456TIP3    H261860   4.222   2.893  10.914  1.7172 -0.5748  0.6234
13457TIP3   OH261861   1.021   5.003   3.456  0.1107  0.0880  0.2379
13457TIP3    H161862   1.022   4.978   3.363 -0.4212 -0.9266  0.4926
13457TIP3    H261863   1.066   5.088   3.458  1.5095 -0.5894 -0.7275
13458TIP3   OH261864   2.238   0.800  11.958  0.0285  0.1103 -0.1748
13458TIP3    H161865   2.229   0.870  11.893  0.6542 -0.4715 -0.9101
13458TIP3    H261866   2.204   0.837  12.039  0.6658  1.3763 -0.4694
13459TIP3   OH261867   6.711   0.717   3.679  0.1227 -0.0133 -0.1547
13459TIP3    H161868   6.802   0.688   3.669  0.1137 -0.1069  0.0131
13459TIP3    H261869   6.712   0.768   3.760  0.2270  0.8325 -0.6820
13460TIP3   OH261870   0.560   2.191   6.581  0.2511  0.2491  0.3180
13460TIP3    H161871   0.556   2.263   6.517 -1.8686  1.0191  1.2314
13460TIP3    H261872   0.637   2.211   6.634  1.1864  0.3969 -1.0354
13461TIP3   OH261873   4.145   1.127  13.448  0.0762  0.4714  0.3632
13461TIP3    H161874   4.165   1.074  13.371  0.6816 -1.7176  1.9150
13461TIP3    H261875   4.229   1.163  13.475 -0.0035  0.6221  0.4104
13462TIP3   OH261876   4.664   2.582  12.109  0.3823  0.0514  0.0459
13462TIP3    H161877   4.694   2.505  12.157 -4.4727 -1.5913  1.0483
13462TIP3    H261878   4.674   2.558  12.017 -0.9117 -1.8809  0.3427
13463TIP3   OH261879   1.289   5.356  10.865 -0.5556  0.7307  0.0181
13463TIP3    H161880   1.302   5.276  10.813 -0.9915  0.6577  0.0164
13463TIP3    H261881   1.196   5.375  10.856 -0.9601 -0.1181  1.9687
13464TIP3   OH261882   2.726   5.796  16.797 -0.0832 -0.1178  0.6610
13464TIP3    H161883   2.751   5.888  16.806 -1.0453  0.1099  1.1318
13464TIP3    H261884   2.766   5.754  16.873 -0.8797  0.1975  1.2701
13465TIP3   OH261885   4.149   2.738  12.878  0.2103  0.3412  0.0463
13465TIP3    H161886   4.081   2.784  12.830  0.5346  2.2102  1.2915
13465TIP3    H261887   4.102   2.685  12.942 -0.1225  0.2571 -0.2691
13466TIP3   OH261888   5.720   1.998   0.235  0.2605  0.1186  0.6423
13466TIP3    H161889   5.726   1.906   0.211 -0.9861  0.4373 -1.1039
13466TIP3    H261890   5.719   2.044   0.151 -1.6978  1.5391  1.3727
13467TIP3   OH261891   2.866   5.450   4.390 -0.4121 -0.1899 -0.5785
13467TIP3    H161892   2.956   5.445   4.421 -0.9303 -0.1731  1.0250
13467TIP3    H261893   2.837   5.538   4.414 -0.7806 -0.0844 -1.3541
13468TIP3   OH261894   1.402   3.614   5.358  0.5401 -0.0401  0.4616
13468TIP3    H161895   1.460   3.685   5.332  0.4180  0.6883  2.0601
13468TIP3    H261896   1.358   3.646   5.437 -0.3158 -1.4802  0.6159
13469TIP3   OH261897   4.917   4.325  14.841  0.7288  0.2080 -0.0603
13469TIP3    H161898   4.991   4.314  14.782  1.3499  1.8001  0.3674
13469TIP3    H261899   4.891   4.236  14.865  1.4792 -0.4033 -1.4618
13470TIP3   OH261900   2.469   4.008   6.156 -0.3310 -0.4115  0.2960
13470TIP3    H161901   2.528   4.083   6.146 -0.6095  0.0477  1.8855
13470TIP3    H261902   2.502   3.944   6.093  0.9291  0.4074  0.0767
13471TIP3   OH261903   6.350   1.003   5.513  0.4079 -0.5261 -0.0860
13471TIP3    H161904   6.311   0.971   5.432 -2.2223  0.8514  0.5066
13471TIP3    H261905   6.346   1.099   5.505  1.5005 -0.3583  1.0622
13472TIP3   OH261906   5.708   3.950   1.413 -0.3508 -0.2251  0.1006
13472TIP3    H161907   5.724   3.992   1.328 -1.3844 -0.5945 -0.2989
13472TIP3    H261908   5.783   3.891   1.425  0.9127  1.3968  0.4810
13473TIP3   OH261909   0.876   0.237  11.347  0.0485 -0.8172 -0.0729
13473TIP3    H161910   0.971   0.249  11.345 -0.0815  0.7555  1.6814
13473TIP3    H261911   0.853   0.234  11.439 -1.9551  2.0715 -0.3511
13474TIP3   OH261912   5.319   6.746   2.368 -0.6235 -0.8793  0.2728
13474TIP3    H161913   5.341   6.680   2.302 -2.2725 -0.9151 -0.2709
13474TIP3    H261914   5.266   6.700   2.432 -1.5397 -0.1755  0.0474
13475TIP3   OH261915   0.971   6.571  16.253 -0.4574 -0.1010  0.1635
13475TIP3    H161916   0.908   6.510  16.214 -0.8948 -0.7175  1.7508
13475TIP3    H261917   0.918   6.645  16.283 -0.3843 -0.3978  1.0628
13476TIP3   OH261918   6.069   5.231  16.369  0.4018  0.7152 -0.2019
13476TIP3    H161919   5.996   5.283  16.336  0.5988  1.6449  0.7821
13476TIP3    H261920   6.051   5.223  16.463  0.9029 -0.1511 -0.1675
13477TIP3   OH261921   1.164   2.563   1.195 -0.2923 -0.1576  0.2575
13477TIP3    H161922   1.132   2.649   1.168  2.0694  0.7116 -0.0344
13477TIP3    H261923   1.243   2.583   1.246  0.1374 -2.1515  0.4291
13478TIP3   OH261924   5.794   2.712   5.754  0.6145  0.3485  0.0687
13478TIP3    H161925   5.795   2.724   5.659 -0.3669 -2.2074 -0.3527
13478TIP3    H261926   5.709   2.746   5.781 -0.1023 -1.0019 -0.3714
13479TIP3   OH261927   4.362   2.084  14.940 -0.5247  0.1384 -0.3628
13479TIP3    H161928   4.439   2.140  14.936  0.0774 -0.5553  0.9268
13479TIP3    H261929   4.379   2.015  14.876 -0.6300  0.6404 -0.9395
13480TIP3   OH261930   5.591   4.593   3.765  0.3722 -0.0159 -0.4674
13480TIP3    H161931   5.614   4.594   3.672 -1.6620  0.0306 -1.0196
13480TIP3    H261932   5.622   4.678   3.798 -1.0204  1.0333 -1.7080
13481TIP3   OH261933   6.758   0.734  16.110 -0.1745  0.1552 -0.8127
13481TIP3    H161934   6.726   0.728  16.020 -0.6053  3.6257 -0.9904
13481TIP3    H261935   6.769   0.827  16.126  2.2027 -0.4638  1.9790
13482TIP3   OH261936   4.690   3.156  10.831 -0.0122 -0.5379 -0.2057
13482TIP3    H161937   4.754   3.089  10.854 -1.4990 -1.3166  1.9784
13482TIP3    H261938   4.613   3.107  10.804  0.3126  0.3852 -3.1766
13483TIP3   OH261939   6.570   4.942  14.586 -0.4990  0.1410 -0.0012
13483TIP3    H161940   6.541   4.873  14.526  1.0742 -1.4066  0.9168
13483TIP3    H261941   6.495   5.002  14.591 -1.8515 -1.3550 -1.0252
13484TIP3   OH261942   3.233   3.314  16.569 -0.1626 -0.7194  0.0993
13484TIP3    H161943   3.244   3.321  16.664  0.4738 -1.5509  0.0997
13484TIP3    H261944   3.203   3.224  16.555 -1.1115 -0.3375 -0.4271
13485TIP3   OH261945   6.293   4.284   2.255  0.2147  0.1412  0.7141
13485TIP3    H161946   6.326   4.362   2.300 -1.5053  0.9528  0.6222
13485TIP3    H261947   6.345   4.279   2.175 -1.5631  2.9601 -0.7505
13486TIP3   OH261948   5.528   1.213  14.540  0.2401 -0.0641 -0.2959
13486TIP3    H161949   5.568   1.128  14.557  0.5148  0.4659  2.1290
13486TIP3    H261950   5.585   1.254  14.475  1.8364 -0.6041  0.6982
13487TIP3   OH261951   0.873   0.767  15.544 -0.0920  0.1058  0.0480
13487TIP3    H161952   0.887   0.683  15.588  2.4166 -0.7752 -2.1751
13487TIP3    H261953   0.873   0.746  15.451  0.9361  2.5996 -0.5907
13488TIP3   OH261954   1.646   1.847  15.224  0.4088 -0.4072 -0.2322
13488TIP3    H161955   1.574   1.877  15.280 -0.8788  0.7480 -2.3739
13488TIP3    H261956   1.656   1.755  15.246 -0.4507 -0.1364  1.4577
13489TIP3   OH261957   5.890   3.660   5.596  0.5957  0.4548  0.1330
13489TIP3    H161958   5.835   3.720   5.546 -0.3629  0.3044  0.9650
13489TIP3    H261959   5.828   3.612   5.651  1.6083  0.7609  1.6033
13490TIP3   OH261960   4.487   0.627  15.504  0.0793 -0.1372  0.3114
13490TIP3    H161961   4.578   0.598  15.496  0.3544  0.3059  1.6378
13490TIP3    H261962   4.477   0.650  15.596 -2.3511 -3.4846  1.0756
13491TIP3   OH261963   1.533   1.535   2.718 -0.4515  0.4953  0.6225
13491TIP3    H161964   1.451   1.582   2.701 -0.3665  0.3387 -0.2733
13491TIP3    H261965   1.506   1.444   2.726 -0.5119  0.5865  1.5502
13492TIP3   OH261966   0.591   2.184   1.730  0.2785  0.6814  0.0372
13492TIP3    H161967   0.518   2.123   1.727  0.2669  0.7179 -1.5309
13492TIP3    H261968   0.662   2.135   1.772 -0.3992  0.3860  0.8633
13493TIP3   OH261969   0.077   4.767  17.131  0.1688  0.5326  0.0920
13493TIP3    H161970   0.033   4.833  17.185 -1.3728 -0.4611  0.1199
13493TIP3    H261971   0.162   4.805  17.111  0.6536  1.1223  2.8703
13494TIP3   OH261972   3.628   4.878  12.896  0.2950  0.0951 -0.0837
13494TIP3    H161973   3.723   4.887  12.907  0.4224 -0.9131 -0.1966
13494TIP3    H261974   3.592   4.906  12.980  0.8261 -1.2237  0.6209
13495TIP3   OH261975   4.003   6.041  16.395 -0.7018  0.5637 -0.5577
13495TIP3    H161976   4.072   6.000  16.343 -0.4433 -0.4455  0.5555
13495TIP3    H261977   3.991   5.983  16.470  0.4095  2.9776  1.6713
13496TIP3   OH261978   3.811   6.508  13.258  1.2050 -0.3614 -0.1219
13496TIP3    H161979   3.758   6.564  13.314 -1.8595 -1.6419 -1.4955
13496TIP3    H261980   3.850   6.444  13.317 -2.2090 -1.9017  0.7533
13497TIP3   OH261981   6.809   2.212   0.101  0.1650  0.2493  0.1328
13497TIP3    H161982   6.864   2.191   0.177 -0.8309  1.0849  1.1107
13497TIP3    H261983   6.814   2.307   0.094 -0.9179  0.3075  0.0584
13498TIP3   OH261984   0.186   3.547  11.678  0.2791 -0.7057 -0.7209
13498TIP3    H161985   0.097   3.563  11.646  0.0492 -0.5761 -0.0263
13498TIP3    H261986   0.240   3.546  11.599 -0.5572 -2.3498 -1.3397
13499TIP3   OH261987   3.969   1.124   3.412  0.1636  0.4397  0.2604
13499TIP3    H161988   3.881   1.092   3.389  1.3398 -2.3105 -0.8487
13499TIP3    H261989   3.954   1.187   3.482 -2.5813 -1.3624  1.4504
13500TIP3   OH261990   3.483   3.535   2.594  0.0948  0.1112  0.1639
13500TIP3    H161991   3.561   3.588   2.611  0.8840 -0.8332 -0.3744
13500TIP3    H261992   3.518   3.451   2.564 -1.1373 -0.3931  0.0875
13501TIP3   OH261993   6.559   2.926   3.646  0.5451 -0.5028 -0.0037
13501TIP3    H161994   6.591   2.899   3.560  1.5598 -0.4376  0.3425
13501TIP3    H261995   6.637   2.934   3.700 -0.0449 -0.1937  0.8376
13502TIP3   OH261996   2.715   1.352   0.359  0.2429  0.1625  0.3079
13502TIP3    H161997   2.652   1.281   0.371 -1.1418  1.1203 -0.7912
13502TIP3    H261998   2.738   1.348   0.266 -0.6844  1.7405 -0.0362
13503TIP3   OH261999   4.081   2.142   0.656 -0.2531  0.0952  0.5111
13503TIP3    H162000   4.160   2.158   0.605 -0.2251 -1.0001  0.1865
13503TIP3    H262001   4.108   2.081   0.724 -1.0641 -1.2572 -0.3394
13504TIP3   OH262002   2.961   3.922  15.313  0.4136  0.2062 -0.0571
13504TIP3    H162003   2.999   3.845  15.354  0.0731  0.3740  0.5879
13504TIP3    H262004   2.957   3.987  15.383  0.8929  0.8816 -0.6500
13505TIP3   OH262005   3.261   2.174  16.720  0.2395 -0.4306  0.2729
13505TIP3    H162006   3.319   2.102  16.744 -0.1165 -1.5642 -1.9866
13505TIP3    H262007   3.173   2.135  16.722  0.0929 -0.2720 -1.5111
13506TIP3   OH262008   6.546   0.180   0.349  0.0396  0.4313  0.0126
13506TIP3    H162009   6.524   0.239   0.420  0.6804  1.9354 -1.0004
13506TIP3    H262010   6.468   0.126   0.337 -0.2104  0.4099  1.5671
13507TIP3   OH262011   5.703   6.235   0.808 -0.8976 -0.0224  0.7944
13507TIP3    H162012   5.779   6.192   0.769 -0.5302  0.3361  1.1050
13507TIP3    H262013   5.668   6.171   0.869 -0.1506  0.2324  1.5080
13508TIP3   OH262014   5.918   3.517   1.687  0.0787  0.0216  0.3042
13508TIP3    H162015   5.966   3.576   1.745 -0.6459 -0.4313  1.4130
13508TIP3    H262016   5.985   3.461   1.648  0.6278  0.6514  0.3297
13509TIP3   OH262017   6.579   2.739  16.111 -0.0596 -0.2097 -0.1894
13509TIP3    H162018   6.656   2.726  16.056  0.3610 -0.7692  0.5128
13509TIP3    H262019   6.614   2.761  16.197 -0.6663 -0.8351  0.2331
13510TIP3   OH262020   5.961   3.176   1.476 -0.1124 -0.9295  0.3018
13510TIP3    H162021   5.882   3.123   1.469 -1.4660  0.6671  2.0666
13510TIP3    H262022   5.976   3.209   1.388 -1.2826 -1.4586 -0.1201
13511TIP3   OH262023   6.704   4.169  11.150  0.4449 -0.0923 -0.3511
13511TIP3    H162024   6.684   4.172  11.057 -2.7984  0.1258  0.2324
13511TIP3    H262025   6.722   4.260  11.174  0.0747  0.0401 -0.5650
13512TIP3   OH262026   5.847   3.594  16.894  0.6652  0.2172 -0.1322
13512TIP3    H162027   5.926   3.549  16.863 -0.2530 -0.8171 -1.0947
13512TIP3    H262028   5.836   3.564  16.985 -0.1024 -1.8669 -0.8452
13513TIP3   OH262029   2.960   4.441   0.103  0.4490 -0.1378  0.4478
13513TIP3    H162030   3.050   4.413   0.084  0.0745 -0.4693 -0.9500
13513TIP3    H262031   2.913   4.426   0.021 -0.6456  1.0051  0.8435
13514TIP3   OH262032   4.846   0.900  12.733 -0.9567  0.1349 -0.0110
13514TIP3    H162033   4.868   0.814  12.768 -0.5605 -0.0480 -0.6839
13514TIP3    H262034   4.752   0.895  12.714 -0.6117 -0.7926 -1.7237
13515TIP3   OH262035   6.061   3.828  11.717 -0.0214 -0.2691  0.2787
13515TIP3    H162036   5.972   3.824  11.751 -0.0714 -1.6487  0.0390
13515TIP3    H262037   6.072   3.746  11.669  1.9623 -0.9499  1.7462
13516TIP3   OH262038   5.168   0.135  10.835 -0.1296 -0.9176  0.2663
13516TIP3    H162039   5.243   0.192  10.846 -1.0532  0.2445  0.6848
13516TIP3    H262040   5.120   0.172  10.761  0.9159 -3.0407 -1.6253
13517TIP3   OH262041   0.035   5.954  13.481  0.4910 -0.1609 -0.1397
13517TIP3    H162042   0.075   5.879  13.439  0.6790 -0.2040  0.1092
13517TIP3    H262043   0.090   5.970  13.558 -0.3882 -0.6703  0.6168
13518TIP3   OH262044   0.171   6.470   2.630  0.1858  0.0461 -0.1424
13518TIP3    H162045   0.125   6.541   2.585  1.7438  0.0061 -1.9182
13518TIP3    H262046   0.259   6.505   2.646  0.4291 -0.8621  0.5981
13519TIP3   OH262047   5.659   4.630   4.139 -0.5075 -0.7049 -0.8250
13519TIP3    H162048   5.595   4.635   4.210 -1.6318 -0.5786 -1.8211
13519TIP3    H262049   5.653   4.541   4.107  1.8497 -1.5545  0.8575
13520TIP3   OH262050   3.619   5.323  13.360 -0.6572  0.4536  0.6370
13520TIP3    H162051   3.692   5.285  13.311 -0.2872  3.2502 -1.2475
13520TIP3    H262052   3.548   5.258  13.352  0.9811 -1.4492  0.8412
13521TIP3   OH262053   1.895   2.513   3.584  0.1433  0.2268 -0.0791
13521TIP3    H162054   1.927   2.428   3.615  1.0389  0.2551 -0.8489
13521TIP3    H262055   1.972   2.570   3.588  0.4675  0.1061 -2.7288
13522TIP3   OH262056   1.614   3.295  12.518  0.0362 -0.2451 -0.1681
13522TIP3    H162057   1.581   3.313  12.606  0.9445  1.9175 -0.2114
13522TIP3    H262058   1.539   3.256  12.472 -1.2298  0.8470  0.8737
13523TIP3   OH262059   1.406   1.109   0.606 -0.4670  0.2988 -0.2234
13523TIP3    H162060   1.492   1.105   0.647 -0.1066 -3.1371 -1.0524
13523TIP3    H262061   1.345   1.115   0.679  0.3431 -1.3371  0.6314
13524TIP3   OH262062   0.287   5.216  14.098  0.4489 -0.3496 -0.2100
13524TIP3    H162063   0.348   5.150  14.133 -0.1484 -0.6053  0.3702
13524TIP3    H262064   0.290   5.287  14.162 -1.3039 -1.1858  0.8754
13525TIP3   OH262065   1.205   1.205   1.353 -0.1113 -0.1826  0.1692
13525TIP3    H162066   1.139   1.196   1.423  0.3402  1.6202  0.8633
13525TIP3    H262067   1.184   1.288   1.311  0.4524 -0.6156 -1.0128
13526TIP3   OH262068   3.802   6.582  10.782  0.5705 -0.0672  0.0770
13526TIP3    H162069   3.827   6.612  10.869  1.1790 -0.5147  0.0626
13526TIP3    H262070   3.732   6.518  10.797  1.4352 -0.9825  0.3280
13527TIP3   OH262071   6.603   2.361  11.284  0.1575 -0.0477  0.6254
13527TIP3    H162072   6.546   2.297  11.242 -0.1069 -0.1392  1.1231
13527TIP3    H262073   6.544   2.414  11.338  0.6862 -0.9134  2.1043
13528TIP3   OH262074   6.014   6.364   0.922 -0.3932  0.1181 -0.6333
13528TIP3    H162075   5.924   6.384   0.950  0.3984  1.4728  1.0768
13528TIP3    H262076   6.037   6.435   0.862  0.5624  1.5379  1.3244
13529TIP3   OH262077   6.464   6.249  11.748  0.3790  0.3362  0.0496
13529TIP3    H162078   6.535   6.228  11.809 -0.6201  0.2268  1.2073
13529TIP3    H262079   6.504   6.310  11.686  2.2785 -1.8475 -1.0652
13530TIP3   OH262080   0.706   3.521   2.411  0.6060  0.2643 -0.2534
13530TIP3    H162081   0.617   3.556   2.413  1.0323  1.4710  3.1491
13530TIP3    H262082   0.698   3.437   2.366 -1.6538  1.6469 -2.7185
13531TIP3   OH262083   0.310   4.863  13.346 -0.2377 -0.3108 -0.3670
13531TIP3    H162084   0.216   4.881  13.347 -0.7190 -2.3203 -2.0495
13531TIP3    H262085   0.330   4.843  13.255  2.0354  0.8037 -0.2014
13532TIP3   OH262086   6.021   0.397  14.415  0.3089  0.0763  0.6552
13532TIP3    H162087   5.931   0.427  14.431  0.5597  1.9715 -1.0968
13532TIP3    H262088   6.074   0.449  14.476  0.3650  0.1925  0.5078
13533TIP3   OH262089   4.434   6.367  16.637  0.1864 -0.1330  0.2823
13533TIP3    H162090   4.363   6.317  16.595  1.0006 -1.0891  0.0059
13533TIP3    H262091   4.388   6.426  16.696 -0.8259 -1.6377  1.0934
13534TIP3   OH262092   0.690   5.818   3.097  0.3745  0.1289 -0.0885
13534TIP3    H162093   0.673   5.735   3.141  1.0886 -0.3397 -0.6556
13534TIP3    H262094   0.715   5.793   3.008  0.2218  0.9787 -0.3818
13535TIP3   OH262095   5.508   2.362   5.118  0.3836  0.0386  0.3651
13535TIP3    H162096   5.487   2.280   5.163 -0.2509  0.4526  0.8511
13535TIP3    H262097   5.512   2.339   5.026  2.1455 -0.9152  0.6443
13536TIP3   OH262098   1.516   4.254   1.123 -0.4786 -0.1451 -0.4924
13536TIP3    H162099   1.591   4.275   1.068  1.1957 -0.3101  1.5764
13536TIP3    H262100   1.440   4.261   1.065  1.2045 -1.0437 -2.9425
13537TIP3   OH262101   0.705   2.917   2.966 -0.2331 -0.4647  0.3418
13537TIP3    H162102   0.766   2.990   2.959 -0.5969 -0.1276  0.6217
13537TIP3    H262103   0.695   2.885   2.876 -1.1848  0.7585 -0.0141
13538TIP3   OH262104   2.991   0.035   2.915  0.5654  0.0756  0.4045
13538TIP3    H162105   3.072   0.008   2.958  0.5512 -1.7011 -0.6097
13538TIP3    H262106   2.924   0.030   2.983  1.2583  1.4369  1.2182
13539TIP3   OH262107   4.874   5.389   6.344 -0.2418  0.4001 -0.4094
13539TIP3    H162108   4.958   5.427   6.318  1.1246 -0.1814  2.6711
13539TIP3    H262109   4.842   5.448   6.413  0.1125 -1.9014  1.8538
13540TIP3   OH262110   0.769   1.406   5.076  0.4397  0.5155  0.3067
13540TIP3    H162111   0.826   1.331   5.093 -1.3393 -0.8746  0.3903
13540TIP3    H262112   0.755   1.445   5.162  0.8307  0.5387  0.3605
13541TIP3   OH262113   5.998   4.521   0.898 -0.0234 -0.5610  0.0162
13541TIP3    H162114   6.067   4.571   0.856  1.0232 -1.0442  1.1140
13541TIP3    H262115   5.949   4.481   0.825  0.5560  0.1538 -0.7817
13542TIP3   OH262116   6.463   1.899  15.196  0.0752 -0.1008 -0.3881
13542TIP3    H162117   6.387   1.929  15.246  0.3598  0.8389 -0.4852
13542TIP3    H262118   6.489   1.976  15.145  1.0074 -0.4419 -0.4509
13543TIP3   OH262119   0.009   5.328   6.138 -0.0182 -0.0717 -0.8522
13543TIP3    H162120   0.096   5.291   6.149 -0.1126 -0.0403  0.0813
13543TIP3    H262121  -0.043   5.288   6.207  0.2431  2.8723  1.2681
13544TIP3   OH262122   5.108   2.723  13.885  0.0140 -0.1605  0.4533
13544TIP3    H162123   5.027   2.697  13.842  0.4366 -0.5167 -0.1466
13544TIP3    H262124   5.177   2.698  13.823  0.6720 -1.1898  1.5562
13545TIP3   OH262125   5.758   2.219  15.731 -0.2817 -0.6333  0.4677
13545TIP3    H162126   5.690   2.239  15.796 -1.2644  1.6425 -1.1458
13545TIP3    H262127   5.838   2.257  15.768 -0.8700  0.8232  0.2897
13546TIP3   OH262128   6.803   4.849  12.366 -0.2257 -0.2418  0.3524
13546TIP3    H162129   6.805   4.768  12.315  0.6255  0.3175 -0.5483
13546TIP3    H262130   6.782   4.917  12.302 -1.2909  0.2075  1.1667
13547TIP3   OH262131   2.880   1.625  15.678 -0.2419 -0.1167  0.4638
13547TIP3    H162132   2.873   1.551  15.737 -1.4818 -0.3411  0.0699
13547TIP3    H262133   2.837   1.596  15.597 -1.1853  1.1739  0.4634
13548TIP3   OH262134   1.756   1.054   5.473  0.0905 -0.2734 -0.4441
13548TIP3    H162135   1.677   1.005   5.494 -0.9773  2.2157  2.0313
13548TIP3    H262136   1.724   1.138   5.441  1.6744  0.8784  0.8200
13549TIP3   OH262137   0.426   5.923  14.043  0.7839 -0.2498  0.2883
13549TIP3    H162138   0.419   5.988  13.973 -0.4595 -1.0891 -0.3967
13549TIP3    H262139   0.365   5.955  14.110 -0.3290 -1.0094 -0.3266
13550TIP3   OH262140   3.134   2.792  11.648  0.3759  0.1056  0.1889
13550TIP3    H162141   3.125   2.885  11.671 -0.8531  0.2715 -0.8591
13550TIP3    H262142   3.119   2.789  11.554 -1.7450 -1.3942  0.4962
13551TIP3   OH262143   5.862   5.373   5.208 -0.0190  0.0957 -0.2140
13551TIP3    H162144   5.928   5.311   5.241  0.3157  0.8509  0.5563
13551TIP3    H262145   5.827   5.330   5.130 -0.1810 -1.3288  0.5881
13552TIP3   OH262146   2.278   5.283  10.643  0.0491  0.0463 -0.0487
13552TIP3    H162147   2.193   5.324  10.662 -1.0960 -1.7939 -0.9106
13552TIP3    H262148   2.258   5.215  10.579  2.5629  1.0347 -2.0784
13553TIP3   OH262149   1.009   0.792  15.120  0.3674 -0.7257 -0.4546
13553TIP3    H162150   1.097   0.788  15.082 -0.0848  0.6283 -1.7556
13553TIP3    H262151   1.021   0.837  15.204  1.4294 -4.0431  1.3721
13554TIP3   OH262152   1.342   4.530  14.749  0.0173 -0.2854 -0.3141
13554TIP3    H162153   1.292   4.600  14.707 -0.4137 -0.2214  0.2900
13554TIP3    H262154   1.432   4.564  14.752 -0.3109  0.5632  0.6197
13555TIP3   OH262155   5.761   1.559  14.125  0.2031  0.2047  0.3119
13555TIP3    H162156   5.854   1.577  14.140  0.5583 -0.9681 -0.3475
13555TIP3    H262157   5.758   1.519  14.038 -1.1412  1.8009 -0.4331
13556TIP3   OH262158   0.068   0.557   4.631 -0.0391 -0.4606  0.1121
13556TIP3    H162159  -0.027   0.564   4.634  0.0131  0.1560  0.6260
13556TIP3    H262160   0.099   0.647   4.628  0.5027 -0.6719 -1.5999
13557TIP3   OH262161   3.181   5.724   1.671 -0.2701  0.1380  0.0826
13557TIP3    H162162   3.267   5.739   1.712  0.0178 -2.7006  0.7215
13557TIP3    H262163   3.198   5.731   1.577  0.7566 -0.7180  0.1863
13558TIP3   OH262164   4.501   4.597  15.782  0.3502 -0.1515  0.0222
13558TIP3    H162165   4.494   4.623  15.874 -0.7112  1.4673 -0.4757
13558TIP3    H262166   4.412   4.574  15.756 -0.4287  3.9042 -1.7645
13559TIP3   OH262167   0.708   3.700  11.979  0.1866  0.1119  0.0978
13559TIP3    H162168   0.651   3.623  11.974  0.5750 -0.1658 -0.0718
13559TIP3    H262169   0.712   3.721  12.073 -0.7531  0.5611  0.0549
13560TIP3   OH262170   0.495   3.768  13.303  0.5010 -0.1625 -0.3400
13560TIP3    H162171   0.590   3.772  13.301  0.4568  0.7716 -1.2160
13560TIP3    H262172   0.466   3.828  13.234 -0.7516  0.5896  0.7894
13561TIP3   OH262173   1.548   6.631  14.135  0.0275  0.2030 -0.2631
13561TIP3    H162174   1.505   6.551  14.164 -1.8628  0.6919 -1.5218
13561TIP3    H262175   1.613   6.603  14.071 -0.4557 -0.3589 -0.5164
13562TIP3   OH262176   4.278   5.923   0.262  0.3513  0.7542 -0.3883
13562TIP3    H162177   4.323   5.962   0.186  0.1946 -0.4139 -1.1064
13562TIP3    H262178   4.327   5.844   0.281 -0.3640  0.3831 -0.0582
13563TIP3   OH262179   4.936   1.525  13.894 -0.4723  0.1368 -0.0084
13563TIP3    H162180   5.026   1.494  13.900 -0.5746 -0.1239  0.1860
13563TIP3    H262181   4.942   1.620  13.906 -0.3312  0.0038  1.0151
13564TIP3   OH262182   4.201   2.188  13.281 -0.5610 -0.5532 -0.6577
13564TIP3    H162183   4.205   2.137  13.201 -2.3439 -1.2503 -0.3536
13564TIP3    H262184   4.112   2.175  13.313  0.2685 -0.7949  1.7646
13565TIP3   OH262185   1.918   3.454   4.420  0.5533 -0.3354 -0.4844
13565TIP3    H162186   1.949   3.512   4.490  0.3430 -2.3186  1.3826
13565TIP3    H262187   1.824   3.470   4.415  0.4441 -0.6867  0.2456
13566TIP3   OH262188   1.981   2.522   4.375 -0.2227 -0.5354  0.8828
13566TIP3    H162189   1.909   2.555   4.428 -1.9660  0.2975 -1.8348
13566TIP3    H262190   1.944   2.447   4.329  0.3110  0.4340 -1.2259
13567TIP3   OH262191   6.492   4.409   6.556  0.0598 -0.1833  0.3711
13567TIP3    H162192   6.549   4.338   6.585  0.5959 -1.0581 -2.4960
13567TIP3    H262193   6.546   4.488   6.564  0.4142 -0.4847  1.0321
13568TIP3   OH262194   4.001   4.070   1.032 -0.4546  0.4049 -0.3170
13568TIP3    H162195   3.911   4.077   1.064 -0.2731 -2.0267  1.0012
13568TIP3    H262196   4.004   4.127   0.955 -3.7075 -0.9311 -1.6144
13569TIP3   OH262197   4.723   6.104  12.941  0.1500  0.5660  0.5800
13569TIP3    H162198   4.714   6.039  12.870  1.2846  1.5951 -0.5609
13569TIP3    H262199   4.667   6.070  13.011 -2.7065  0.5239 -1.5092
13570TIP3   OH262200   1.532   0.741  15.555 -0.1377  0.4282 -0.7544
13570TIP3    H162201   1.540   0.796  15.633  2.1027 -1.5091  0.5451
13570TIP3    H262202   1.538   0.802  15.482 -0.9345  2.1919  0.5761
13571TIP3   OH262203   2.229   6.163   3.194 -0.7093  0.0932  0.1887
13571TIP3    H162204   2.198   6.104   3.262  1.3119  1.1931  2.1949
13571TIP3    H262205   2.324   6.149   3.192 -0.6649  0.2782 -2.2883
13572TIP3   OH262206   4.694   3.313  15.667  0.0910  0.7533  0.1488
13572TIP3    H162207   4.703   3.223  15.698 -2.0371  0.3720 -0.1740
13572TIP3    H262208   4.688   3.305  15.572  1.3754  1.4038 -0.0010
13573TIP3   OH262209   5.003   1.347   0.448 -0.2401  0.8720  0.1095
13573TIP3    H162210   4.926   1.382   0.403  0.1685  2.5514  0.6541
13573TIP3    H262211   4.970   1.317   0.533 -0.4039  0.9627  0.0775
13574TIP3   OH262212   4.445   1.282  16.583  0.1911  0.1957 -0.1424
13574TIP3    H162213   4.536   1.301  16.560  0.7671 -0.2449  1.5805
13574TIP3    H262214   4.444   1.188  16.599 -0.9958 -0.1081 -1.7773
13575TIP3   OH262215   5.480   3.016  13.092  0.2484 -0.5603  0.1234
13575TIP3    H162216   5.526   3.090  13.053 -1.2468 -0.3890 -1.4552
13575TIP3    H262217   5.449   3.050  13.176  1.4706 -0.1420  0.4317
13576TIP3   OH262218   5.798   3.229  14.055  0.2663  0.0833 -0.6175
13576TIP3    H162219   5.827   3.233  14.146  2.0253  2.4002 -1.1843
13576TIP3    H262220   5.860   3.169  14.013 -0.3278 -0.7056 -0.3955
13577TIP3   OH262221   4.152   5.365   6.119  0.2234  0.0094 -0.2247
13577TIP3    H162222   4.155   5.278   6.158  1.2527  0.4531  0.7529
13577TIP3    H262223   4.236   5.404   6.142 -0.0449  1.1031 -1.0334
13578TIP3   OH262224   5.171   1.552  11.526 -0.2111  0.3196  0.5382
13578TIP3    H162225   5.098   1.542  11.465 -1.0664  0.1127  1.5685
13578TIP3    H262226   5.239   1.598  11.476 -1.1778  0.8343 -0.3252
13579TIP3   OH262227   2.671   1.205   2.875 -0.1919  0.2841 -0.0663
13579TIP3    H162228   2.702   1.240   2.958 -0.4601  0.0126  0.1532
13579TIP3    H262229   2.748   1.166   2.834  0.2964  1.8504 -0.6990
13580TIP3   OH262230   1.289   3.024   0.582  0.3264  0.2318  0.1626
13580TIP3    H162231   1.335   3.108   0.582 -0.7278  0.8370  1.6385
13580TIP3    H262232   1.196   3.047   0.585  0.0449 -0.9608  1.5058
13581TIP3   OH262233   4.259   0.112  15.781  0.5136 -0.0504  0.1972
13581TIP3    H162234   4.215   0.027  15.789 -1.2501  0.5751 -1.7964
13581TIP3    H262235   4.349   0.095  15.807 -0.2950 -2.0014  1.9930
13582TIP3   OH262236   2.165   1.653  10.212  0.5627 -0.1033  0.6211
13582TIP3    H162237   2.116   1.621  10.288  0.5434 -1.8970 -0.1033
13582TIP3    H262238   2.154   1.585  10.146  0.6514  1.3728 -0.9808
13583TIP3   OH262239   0.512   6.436   1.840 -0.3281 -0.0089  0.3355
13583TIP3    H162240   0.517   6.362   1.780  0.9020  0.5259 -0.2573
13583TIP3    H262241   0.434   6.485   1.812 -1.7670 -1.5792  1.3843
13584TIP3   OH262242   5.361   4.561  15.452  0.0789 -1.2690  0.2434
13584TIP3    H162243   5.330   4.494  15.513  0.7624 -1.3213  0.5487
13584TIP3    H262244   5.414   4.514  15.389  2.2513 -0.8206  1.6151
13585TIP3   OH262245   5.731   0.808  11.172 -0.0849 -0.2449  0.0776
13585TIP3    H162246   5.688   0.874  11.226 -0.6385  1.9526 -2.8094
13585TIP3    H262247   5.666   0.739  11.161 -1.0419  0.6764 -0.1719
13586TIP3   OH262248   4.713   0.628   3.525  0.2919 -0.5190 -0.5630
13586TIP3    H162249   4.724   0.569   3.599 -0.7186  0.0020  0.0296
13586TIP3    H262250   4.652   0.695   3.557 -0.7201 -0.6738 -2.0819
13587TIP3   OH262251   4.264   0.165  16.532 -0.2738  0.4899  0.4189
13587TIP3    H162252   4.263   0.109  16.454  1.4368  1.5800 -0.4429
13587TIP3    H262253   4.188   0.136  16.582 -0.8785 -0.9070 -1.1734
13588TIP3   OH262254   5.515   0.637   1.388 -0.1418 -0.3979  0.7891
13588TIP3    H162255   5.447   0.703   1.401  1.0873  0.9372  0.7808
13588TIP3    H262256   5.532   0.639   1.294 -0.3367 -1.0126  0.7320
13589TIP3   OH262257   4.338   0.894   3.897 -0.1052  0.0901  0.3397
13589TIP3    H162258   4.423   0.852   3.883 -0.0399  0.6076 -1.0030
13589TIP3    H262259   4.359   0.985   3.918 -0.3248  0.3249 -0.4261
13590TIP3   OH262260   6.840   6.369   4.649 -1.0434  0.0470  0.2343
13590TIP3    H162261   6.884   6.452   4.665 -1.5403  0.1084  1.3457
13590TIP3    H262262   6.770   6.365   4.714 -1.1787 -1.1321  0.0470
13591TIP3   OH262263   2.366   6.415  15.350 -0.0652 -0.0918 -0.5398
13591TIP3    H162264   2.386   6.405  15.443  2.5215  1.0074 -0.8984
13591TIP3    H262265   2.324   6.332  15.326  2.2610 -1.8402  0.9078
13592TIP3   OH262266   4.125   2.167   1.929  0.4644 -0.4151 -0.5002
13592TIP3    H162267   4.192   2.157   1.862 -0.3008  0.5460 -1.4330
13592TIP3    H262268   4.088   2.079   1.939 -0.1071 -0.3792 -2.1029
13593TIP3   OH262269   2.909   6.839   4.538 -0.5544  0.4745  0.3664
13593TIP3    H162270   2.892   6.745   4.532  0.0270  0.3574  0.4811
13593TIP3    H262271   2.893   6.872   4.449  0.4715  0.0547  0.0165
13594TIP3   OH262272   6.050   1.794  16.470 -0.3371  0.1488 -0.1810
13594TIP3    H162273   6.013   1.706  16.458  0.0311  0.0555 -0.6557
13594TIP3    H262274   6.143   1.782  16.454 -0.0914  0.3871  0.9726
13595TIP3   OH262275   0.991   2.320  13.648 -0.3677  0.2363  0.3778
13595TIP3    H162276   0.983   2.244  13.706 -1.0524 -0.5560 -0.7253
13595TIP3    H262277   0.943   2.296  13.569  0.6758  1.2339 -0.6000
13596TIP3   OH262278   6.651   2.666   3.010 -0.3672 -0.6174 -0.4486
13596TIP3    H162279   6.740   2.675   2.976 -0.1335  3.5400  0.7204
13596TIP3    H262280   6.661   2.624   3.095  0.3153 -1.0343 -0.7257
13597TIP3   OH262281   6.256   1.588   4.812  0.2972  0.1096  0.4701
13597TIP3    H162282   6.203   1.601   4.891  0.8112  0.0073  0.8464
13597TIP3    H262283   6.338   1.551   4.846  0.6972  0.4994 -0.0702
13598TIP3   OH262284   0.495   4.004   5.420 -0.3081  0.8035 -0.3849
13598TIP3    H162285   0.482   4.020   5.513 -0.1481 -1.3899  0.0667
13598TIP3    H262286   0.406   4.009   5.383 -0.7707 -0.8709  0.3800
13599TIP3   OH262287   1.979   6.210  15.196 -0.2780 -0.6813  0.7493
13599TIP3    H162288   1.916   6.177  15.132 -0.1448 -1.1681  0.8634
13599TIP3    H262289   1.979   6.305  15.183 -0.1018 -0.7890 -0.1166
13600TIP3   OH262290   6.198   5.464   5.205  0.3962 -0.1274 -0.0269
13600TIP3    H162291   6.278   5.508   5.178 -0.5002  2.8709  1.7455
13600TIP3    H262292   6.207   5.452   5.299 -1.4552  0.9022  0.3334
13601TIP3   OH262293   0.708   2.264   3.920 -0.0226 -0.3055 -0.5968
13601TIP3    H162294   0.659   2.246   4.000  1.0338  0.9080  0.3660
13601TIP3    H262295   0.654   2.328   3.873 -0.1769 -0.2522 -0.3492
13602TIP3   OH262296   2.609   5.339  16.834  0.6106  1.0793  0.1306
13602TIP3    H162297   2.541   5.346  16.766  0.5112  0.4464  0.1554
13602TIP3    H262298   2.676   5.401  16.807 -0.4215  2.4706  0.6315
13603TIP3   OH262299   2.961   1.835  14.544  0.0445 -0.2801 -0.2256
13603TIP3    H162300   2.898   1.839  14.472 -2.0515 -1.2671  1.4129
13603TIP3    H262301   2.950   1.919  14.589 -3.0650 -1.7895  2.2283
13604TIP3   OH262302   0.045   2.978   0.644  0.2603  0.0866  0.1708
13604TIP3    H162303   0.003   2.896   0.617 -0.6938  0.9121 -0.9193
13604TIP3    H262304   0.011   2.994   0.732  1.9117 -1.6227  1.2093
13605TIP3   OH262305   4.381   5.611  16.042 -0.6291 -0.2191 -0.2445
13605TIP3    H162306   4.372   5.636  15.950 -1.2280 -0.2176 -0.1887
13605TIP3    H262307   4.372   5.692  16.090 -1.8515 -0.4155 -0.1059
13606TIP3   OH262308   2.122   2.318   2.003 -0.2714  0.6254 -0.2659
13606TIP3    H162309   2.196   2.344   2.058  0.8212 -1.3290 -0.7262
13606TIP3    H262310   2.070   2.398   1.994  1.5746  1.9777  0.3775
13607TIP3   OH262311   6.367   1.338   0.385  0.2946 -0.0557  0.7810
13607TIP3    H162312   6.313   1.395   0.439 -0.2813  0.9401 -0.7601
13607TIP3    H262313   6.392   1.393   0.310  0.1337 -1.6624 -0.5070
13608TIP3   OH262314   5.158   0.226  14.678  0.8237  0.3843  0.0553
13608TIP3    H162315   5.089   0.293  14.685  1.1194  0.9300 -1.8160
13608TIP3    H262316   5.152   0.194  14.588  2.2233 -0.4323  0.2204
13609TIP3   OH262317   6.509   5.669   1.213 -0.1124  0.1750 -0.6383
13609TIP3    H162318   6.602   5.649   1.226 -0.0132  1.0435  0.0799
13609TIP3    H262319   6.473   5.589   1.174  0.6366 -0.7106  0.4161
13610TIP3   OH262320   5.477   0.095  11.674  0.7125 -0.1785  0.1363
13610TIP3    H162321   5.506   0.120  11.762 -0.7289  0.1917  0.5232
13610TIP3    H262322   5.542   0.135  11.615  1.5960 -0.2891  1.0105
13611TIP3   OH262323   0.013   5.799   6.091  0.4258  0.4211 -0.4680
13611TIP3    H162324  -0.022   5.786   6.179  2.3249  1.7969  0.5796
13611TIP3    H262325  -0.008   5.718   6.044  0.8815 -1.0893  1.7873
13612TIP3   OH262326   6.178   2.893   2.290 -0.1627 -0.5190  0.4461
13612TIP3    H162327   6.089   2.928   2.288 -0.6390 -1.6184  1.2745
13612TIP3    H262328   6.233   2.966   2.264 -1.4525 -0.3362 -2.0854
13613TIP3   OH262329   1.714   4.062   0.078  0.0296 -0.1772 -0.0699
13613TIP3    H162330   1.769   3.984   0.073  0.0846 -0.0496 -2.6622
13613TIP3    H262331   1.775   4.134   0.088  0.2117 -0.2397 -0.6584
13614TIP3   OH262332   5.991   6.712  14.780  0.4392 -0.1501 -0.2534
13614TIP3    H162333   5.945   6.632  14.757  0.0246  0.2511 -0.8678
13614TIP3    H262334   6.061   6.684  14.838  1.6363 -1.2359 -2.1427
13615TIP3   OH262335   2.986   5.944  16.593  0.1358 -0.5484 -0.3525
13615TIP3    H162336   2.943   6.029  16.596  1.3843  0.1676 -1.4714
13615TIP3    H262337   2.961   5.907  16.508  0.0403 -1.0608 -0.1079
13616TIP3   OH262338   3.059   0.421  15.515  0.0675  0.5262  0.6030
13616TIP3    H162339   2.967   0.435  15.492 -0.1485  1.7265  2.0446
13616TIP3    H262340   3.056   0.385  15.604  0.9935  0.3568  0.5769
13617TIP3   OH262341   4.383   2.045   2.209  0.2331  0.2103  0.5843
13617TIP3    H162342   4.434   2.072   2.133 -1.4692  0.1294 -0.6431
13617TIP3    H262343   4.443   1.992   2.261  0.4990 -2.9546 -2.5971
13618TIP3   OH262344   5.006   4.509  11.322 -0.0476  0.5684 -0.3152
13618TIP3    H162345   5.067   4.443  11.288 -1.3877 -0.0942 -1.5227
13618TIP3    H262346   4.920   4.467  11.318 -0.7336  1.8507  0.3702
13619TIP3   OH262347   4.770   1.500   4.651  0.0491 -0.1509 -0.2207
13619TIP3    H162348   4.681   1.480   4.622 -0.0747  0.5876 -0.3553
13619TIP3    H262349   4.810   1.414   4.667 -0.7982 -0.4790  0.1784
13620TIP3   OH262350   6.471   2.770   1.508  0.7643  0.0372 -0.1002
13620TIP3    H162351   6.522   2.799   1.583  1.6000  1.3702 -1.1387
13620TIP3    H262352   6.527   2.705   1.465  0.6428 -0.1126 -0.0336
13621TIP3   OH262353   1.167   3.095  15.331  0.2202  0.2498 -0.6401
13621TIP3    H162354   1.076   3.094  15.361  0.4099  0.7076 -0.0179
13621TIP3    H262355   1.174   3.174  15.278  1.0437  2.1162  2.0057
13622TIP3   OH262356   2.517   1.403   3.858 -0.4892  0.0541  0.1601
13622TIP3    H162357   2.462   1.477   3.883  0.4663  0.7953  0.1380
13622TIP3    H262358   2.569   1.436   3.784 -0.4173 -0.8099 -0.1899
13623TIP3   OH262359   3.681   1.186  15.180 -0.3494 -0.1689 -0.0435
13623TIP3    H162360   3.740   1.253  15.145 -0.6691 -1.0477 -2.4350
13623TIP3    H262361   3.594   1.226  15.175 -0.4684 -0.5310 -0.8593
13624TIP3   OH262362   4.114   4.259  13.292 -0.1420  0.7660 -0.1587
13624TIP3    H162363   4.042   4.280  13.351  0.8015 -0.2472  1.4368
13624TIP3    H262364   4.150   4.343  13.265  1.3155  1.3507  3.1923
13625TIP3   OH262365   0.843   6.031  14.889  0.3000 -0.7165 -0.0194
13625TIP3    H162366   0.902   6.061  14.958  2.3896 -1.5795 -1.3211
13625TIP3    H262367   0.888   5.955  14.851  0.1729  0.7336 -3.4848
13626TIP3   OH262368   6.393   0.635  14.850 -0.0795 -0.0694  0.1101
13626TIP3    H162369   6.335   0.560  14.858 -1.3149  0.8501  0.0697
13626TIP3    H262370   6.464   0.618  14.912 -0.6695 -0.9662  0.5523
13627TIP3   OH262371   2.186   5.257  16.558  0.0496 -0.3889 -0.0280
13627TIP3    H162372   2.186   5.226  16.648  0.0927 -1.4334 -0.3768
13627TIP3    H262373   2.188   5.177  16.505 -0.6151  0.1956 -0.9598
13628TIP3   OH262374   2.668   5.007   5.724 -0.3913 -0.2354 -0.2617
13628TIP3    H162375   2.662   4.913   5.741 -0.0741 -0.0460  0.9932
13628TIP3    H262376   2.694   5.045   5.808  1.9287  0.7347 -1.3566
13629TIP3   OH262377   6.019   5.191  11.004 -0.0566  0.6029  0.6139
13629TIP3    H162378   6.029   5.097  10.986 -1.1386  0.4272  0.8221
13629TIP3    H262379   6.020   5.232  10.918  1.0072  0.4819  0.5499
13630TIP3   OH262380   3.012   4.604  14.324 -0.4037  0.1510 -0.3905
13630TIP3    H162381   2.993   4.514  14.350 -0.4519  0.2080 -0.2318
13630TIP3    H262382   3.101   4.600  14.288  0.3794  0.4080  1.4325
13631TIP3   OH262383   0.976   3.645  16.107 -0.1796 -0.2760 -0.4309
13631TIP3    H162384   1.038   3.702  16.154  1.4883 -1.9652 -0.4717
13631TIP3    H262385   1.031   3.592  16.050 -1.6003 -2.1885 -0.1238
13632TIP3   OH262386   2.946   3.460   3.873 -0.2235 -0.0148  0.3655
13632TIP3    H162387   2.858   3.486   3.900  0.2072  1.3624  0.5246
13632TIP3    H262388   2.942   3.456   3.778 -0.5476 -0.3374  0.3901
13633TIP3   OH262389   1.182   4.355  11.310 -0.3319  0.3174  0.2202
13633TIP3    H162390   1.202   4.288  11.375 -1.6849  1.1578  1.6010
13633TIP3    H262391   1.155   4.307  11.232 -0.6841 -0.7530  0.9871
13634TIP3   OH262392   4.808   2.210  16.377  1.0104 -0.1591 -0.0506
13634TIP3    H162393   4.902   2.193  16.381  0.8992 -1.5303 -1.8710
13634TIP3    H262394   4.777   2.195  16.466  2.4239 -0.1328  0.4851
13635TIP3   OH262395   6.199   0.406  15.251  0.1378  0.1406 -0.2916
13635TIP3    H162396   6.160   0.433  15.333  0.6509 -0.3535  0.1260
13635TIP3    H262397   6.172   0.315  15.240  1.2498 -0.2569  0.0751
13636TIP3   OH262398   0.276   3.090  10.587 -0.4101  0.1940  0.1442
13636TIP3    H162399   0.229   3.069  10.668  0.0323 -3.2780 -0.3257
13636TIP3    H262400   0.364   3.115  10.616 -0.8340  1.0071  0.7756
13637TIP3   OH262401   2.035   3.028  15.952 -0.5601 -0.3706  0.1518
13637TIP3    H162402   2.076   3.077  16.023  0.2449 -1.0698  0.1937
13637TIP3    H262403   2.089   3.046  15.875 -1.0253 -0.1543 -0.1216
13638TIP3   OH262404   1.997   3.112  11.714 -0.3000 -0.5078 -0.1287
13638TIP3    H162405   2.041   3.053  11.652 -1.2134 -0.4500 -0.8397
13638TIP3    H262406   1.972   3.188  11.662 -1.9214 -0.8676  0.0985
13639TIP3   OH262407   2.188   0.767  13.080  0.4900 -0.0948 -0.4021
13639TIP3    H162408   2.206   0.758  13.174 -1.7507 -0.2890  0.0536
13639TIP3    H262409   2.097   0.794  13.075  0.7772  0.6826 -2.5319
13640TIP3   OH262410   6.017   5.227   2.487 -0.2029  0.5988 -0.2084
13640TIP3    H162411   5.981   5.267   2.408  1.4771 -1.7078 -2.2754
13640TIP3    H262412   5.955   5.157   2.508  0.9618 -0.9053 -1.5191
13641TIP3   OH262413   6.341   2.653  16.040  0.6394  0.3154  0.2417
13641TIP3    H162414   6.417   2.686  16.088  1.8278  1.0592 -1.9988
13641TIP3    H262415   6.298   2.732  16.006  0.1035 -0.1905 -0.2726
13642TIP3   OH262416   4.328   2.780  15.412  0.2785  0.5002 -0.2864
13642TIP3    H162417   4.360   2.784  15.502  3.1739  0.1895 -1.2085
13642TIP3    H262418   4.329   2.871  15.382  2.2527  0.3248 -0.8796
13643TIP3   OH262419   3.632   2.020  13.381  0.2981 -0.4682  0.5918
13643TIP3    H162420   3.576   2.002  13.307  0.0629 -2.6553  1.2299
13643TIP3    H262421   3.604   1.958  13.449  1.8177  0.0818  1.7994
13644TIP3   OH262422   0.706   1.213   2.076  0.0858 -0.4451  0.0611
13644TIP3    H162423   0.682   1.240   2.165 -0.0409  0.4505 -0.2329
13644TIP3    H262424   0.635   1.247   2.022 -0.0855 -1.4028 -0.3366
13645TIP3   OH262425   1.950   4.527  17.120  0.0256  0.5693  0.5801
13645TIP3    H162426   1.890   4.557  17.188  0.2841  2.0312  0.1873
13645TIP3    H262427   2.037   4.549  17.153  0.2640 -0.2522  0.5161
13646TIP3   OH262428   0.523   0.363  13.687 -0.0399  0.5535  0.6283
13646TIP3    H162429   0.607   0.385  13.646  0.9463  0.9948  2.7212
13646TIP3    H262430   0.544   0.291  13.746 -0.8466  1.4411  2.0489
13647TIP3   OH262431   1.485   0.310   1.019 -0.0691 -0.0282 -0.0828
13647TIP3    H162432   1.487   0.397   1.057  2.2371 -0.8779  1.9516
13647TIP3    H262433   1.439   0.256   1.084  2.2640 -1.1165  0.7740
13648TIP3   OH262434   2.064   6.460   0.965 -0.0724 -0.5924  0.8336
13648TIP3    H162435   2.022   6.507   0.893  1.2097 -0.6258  0.0306
13648TIP3    H262436   2.142   6.512   0.985 -0.0190 -0.9903  1.6990
13649TIP3   OH262437   5.333   1.502   5.160  0.8746  0.7126 -0.3778
13649TIP3    H162438   5.310   1.420   5.205 -0.7002  2.0022  1.3193
13649TIP3    H262439   5.428   1.498   5.151  0.9235 -0.9402  0.3968
13650TIP3   OH262440   0.124   1.548  14.664 -0.6856  0.3248  0.6211
13650TIP3    H162441   0.192   1.612  14.642  1.0040 -1.2208  1.1167
13650TIP3    H262442   0.133   1.536  14.759  2.2239 -3.9046  0.0695
13651TIP3   OH262443   3.777   2.299  11.852  0.0078  1.1586  0.2902
13651TIP3    H162444   3.738   2.243  11.919  0.5043  0.8718  0.3474
13651TIP3    H262445   3.872   2.284  11.861  0.0373  0.3048 -1.1881
13652TIP3   OH262446   2.878   4.065  11.491 -0.7874 -0.1243  0.1857
13652TIP3    H162447   2.844   3.991  11.441 -0.0822  0.8823 -1.8772
13652TIP3    H262448   2.954   4.029  11.537 -1.0328 -0.9061  0.0031
13653TIP3   OH262449   2.524   5.881   1.055  0.2493 -0.7966 -0.0928
13653TIP3    H162450   2.506   5.787   1.050  0.6839 -0.8702 -0.3772
13653TIP3    H262451   2.569   5.892   1.138  0.4256 -0.8823 -0.1762
13654TIP3   OH262452   2.491   1.953   0.588  0.1744  0.1324  0.7062
13654TIP3    H162453   2.515   2.023   0.649 -1.0563  0.1031  1.2366
13654TIP3    H262454   2.419   1.907   0.631 -0.2790 -0.2998 -0.4775
13655TIP3   OH262455   5.566   2.734  11.788  0.1024 -0.4845 -0.8254
13655TIP3    H162456   5.580   2.655  11.841 -0.6817 -0.3171 -0.3548
13655TIP3    H262457   5.473   2.730  11.764 -0.3562  1.1017  0.5312
13656TIP3   OH262458   4.551   5.011  16.378 -0.2451  0.3185  0.0357
13656TIP3    H162459   4.484   5.011  16.310 -2.2705  1.2302  1.8977
13656TIP3    H262460   4.511   4.964  16.452  2.5955 -2.3356  0.0355
13657TIP3   OH262461   6.368   3.331  11.525 -0.1162  0.2114  0.2038
13657TIP3    H162462   6.431   3.317  11.454 -0.1628  0.1463  0.1753
13657TIP3    H262463   6.416   3.312  11.605 -0.5929 -1.6376  0.1004
13658TIP3   OH262464   0.481   5.988   6.198  0.6603 -0.4643 -0.0168
13658TIP3    H162465   0.511   6.006   6.109  1.2085 -0.0818  0.2395
13658TIP3    H262466   0.433   6.067   6.223  1.6445 -0.0178  0.5043
13659TIP3   OH262467   5.616   5.469   3.197  0.1776 -0.2310 -0.1048
13659TIP3    H162468   5.649   5.503   3.113  1.2628 -0.5546  0.1730
13659TIP3    H262469   5.695   5.461   3.252 -0.7083  1.8105  1.6187
13660TIP3   OH262470   2.178   3.152   2.896 -0.2562  0.8305 -0.4785
13660TIP3    H162471   2.223   3.154   2.812 -2.1582  0.8329 -1.5488
13660TIP3    H262472   2.176   3.244   2.925  1.3839  0.6998  0.1748
13661TIP3   OH262473   4.593   4.107   0.130 -0.0894  0.5985  0.1866
13661TIP3    H162474   4.521   4.142   0.077 -0.3947  0.5435  0.5554
13661TIP3    H262475   4.647   4.183   0.152 -0.1449  0.6705  0.0752
13662TIP3   OH262476   5.873   0.060   3.689  0.0701 -0.3960 -0.2653
13662TIP3    H162477   5.869   0.004   3.767 -1.2877 -0.4566 -0.3593
13662TIP3    H262478   5.877   0.149   3.723  0.2460 -0.4602 -0.1187
13663TIP3   OH262479   4.279   2.088  16.489  0.3702 -0.5414 -0.4456
13663TIP3    H162480   4.336   2.100  16.413  1.0076 -1.4254 -0.1213
13663TIP3    H262481   4.215   2.159  16.482  1.5136  0.4972 -0.8056
13664TIP3   OH262482   2.918   0.638  14.338  0.0419  0.1127 -0.0758
13664TIP3    H162483   2.918   0.542  14.330  1.6190  0.2069 -1.6037
13664TIP3    H262484   2.888   0.654  14.428 -2.5000 -1.6986 -0.4744
13665TIP3   OH262485   2.487   0.965  13.318  0.1088 -0.1738 -0.5981
13665TIP3    H162486   2.510   1.046  13.362 -0.9339 -0.7708  1.1337
13665TIP3    H262487   2.392   0.958  13.329  0.2230 -1.7836 -0.4074
13666TIP3   OH262488   4.547   3.158   1.094  0.7723  0.4550 -0.0603
13666TIP3    H162489   4.522   3.082   1.042  0.5935 -0.0550  0.7462
13666TIP3    H262490   4.465   3.188   1.133  1.3334 -1.4196  2.8623
13667TIP3   OH262491   2.199   6.200   1.553  0.3930  0.2888  0.6994
13667TIP3    H162492   2.223   6.183   1.462 -0.9559  0.2736  0.3224
13667TIP3    H262493   2.268   6.258   1.586 -0.1676  2.0203 -0.9681
13668TIP3   OH262494   2.602   5.623   1.642 -0.2961 -0.0947  0.1617
13668TIP3    H162495   2.641   5.664   1.565  0.1616 -1.5477 -0.4078
13668TIP3    H262496   2.639   5.670   1.716 -0.2196  0.8784 -0.4782
13669TIP3   OH262497   6.104   0.110  16.399  0.6908  0.2949  0.8966
13669TIP3    H162498   6.019   0.074  16.372  1.1396  0.1035 -0.2991
13669TIP3    H262499   6.105   0.099  16.494  0.6989 -2.6798  0.6560
13670TIP3   OH262500   2.921   2.538   1.972 -0.6252 -0.8504  0.0085
13670TIP3    H162501   2.937   2.447   1.947  0.4840 -0.6164 -0.1746
13670TIP3    H262502   2.925   2.587   1.890 -2.7032 -0.7870 -0.1229
13671TIP3   OH262503   6.611   1.856  12.344 -0.4555  0.2011 -0.1959
13671TIP3    H162504   6.696   1.837  12.303  0.5679  0.6412  1.6028
13671TIP3    H262505   6.633   1.910  12.420 -2.3772  0.4360  0.2357
13672TIP3   OH262506   6.820   4.966   0.996 -0.1391 -0.3617 -0.1535
13672TIP3    H162507   6.855   5.017   1.069 -1.2804  0.8323 -0.3942
13672TIP3    H262508   6.788   5.032   0.934 -0.4811 -1.3656 -1.0789
13673TIP3   OH262509   4.432   4.713   2.667  0.1206 -0.0919  0.2165
13673TIP3    H162510   4.349   4.677   2.637 -0.1359  0.7013 -0.0524
13673TIP3    H262511   4.410   4.797   2.706  0.7808  0.0931  0.2142
13674TIP3   OH262512   0.491   2.271  11.619 -0.3901  0.5311 -0.5858
13674TIP3    H162513   0.481   2.306  11.531  2.2771  1.1531 -0.7500
13674TIP3    H262514   0.585   2.280  11.637 -0.3786 -2.1344  1.2532
13675TIP3   OH262515   1.797   2.244   4.795 -0.3093  0.3853 -0.3286
13675TIP3    H162516   1.833   2.265   4.709  2.3548  0.5843  0.7399
13675TIP3    H262517   1.704   2.227   4.779 -0.0691  1.2259 -3.0839
13676TIP3   OH262518   4.558   2.039  11.463  0.0229 -0.3173 -0.3150
13676TIP3    H162519   4.620   2.029  11.536  0.7652  0.3637 -0.8267
13676TIP3    H262520   4.614   2.050  11.386 -0.7440 -1.4525 -1.0620
13677TIP3   OH262521   5.448   1.447  16.435  0.4957 -0.1286 -0.3868
13677TIP3    H162522   5.462   1.490  16.519  0.5407  1.2525 -1.0643
13677TIP3    H262523   5.353   1.437  16.428  0.2659  2.0081 -1.1830
13678TIP3   OH262524   2.595   5.904  15.772  0.4379 -0.6348  0.5764
13678TIP3    H162525   2.679   5.857  15.780 -0.5578 -2.5374  0.5672
13678TIP3    H262526   2.556   5.898  15.859  0.0246 -0.3282  0.4148
13679TIP3   OH262527   3.537   2.187   1.175 -0.4971  0.0408 -0.1201
13679TIP3    H162528   3.568   2.110   1.223 -1.4382 -1.2659 -1.5223
13679TIP3    H262529   3.553   2.166   1.083 -2.0438  0.8986 -0.6285
13680TIP3   OH262530   5.989   2.992   5.634  0.1205 -0.7935  0.3108
13680TIP3    H162531   5.996   3.014   5.541 -2.0493  0.2836  0.3249
13680TIP3    H262532   6.047   2.917   5.646  1.7566  0.0934 -1.5274
13681TIP3   OH262533   4.690   0.225   4.563  0.2455  0.2681 -0.7733
13681TIP3    H162534   4.732   0.253   4.482  0.7915  2.6663  0.2399
13681TIP3    H262535   4.653   0.306   4.600  0.4749 -0.6334  1.6221
13682TIP3   OH262536   0.200   6.798  12.708  0.0032 -0.0306 -0.0705
13682TIP3    H162537   0.169   6.885  12.684 -1.4995 -0.4695  0.1972
13682TIP3    H262538   0.170   6.785  12.798  1.3132 -0.3439  0.3541
13683TIP3   OH262539   3.456   3.873  12.494  0.3732  0.2245  0.4880
13683TIP3    H162540   3.440   3.846  12.404  0.2344  1.4418  0.1188
13683TIP3    H262541   3.526   3.816  12.526  0.3109 -0.3151 -0.3394
13684TIP3   OH262542   4.716   1.669  15.590 -0.0355  0.5850  0.1953
13684TIP3    H162543   4.633   1.700  15.554 -0.6909 -1.6839 -0.3674
13684TIP3    H262544   4.783   1.705  15.532 -0.8414  0.0508 -1.1040
13685TIP3   OH262545   5.024   6.171   3.650 -0.0735  0.2024  0.3344
13685TIP3    H162546   4.989   6.082   3.651 -0.4187  0.3369  1.4125
13685TIP3    H262547   5.119   6.160   3.648 -0.1223 -0.1706 -1.2165
13686TIP3   OH262548   1.517   0.796   2.849  0.4619 -0.3244  0.5022
13686TIP3    H162549   1.443   0.817   2.791  0.5165 -0.2496  0.4601
13686TIP3    H262550   1.574   0.742   2.795  0.4603 -0.3450  0.5212
13687TIP3   OH262551   5.031   4.190   4.735  0.4185 -0.4498 -0.4995
13687TIP3    H162552   4.990   4.166   4.818 -1.4015 -0.4355 -1.3400
13687TIP3    H262553   5.118   4.150   4.738  0.7080  0.2089  1.7214
13688TIP3   OH262554   0.469   0.199  15.894 -0.3596 -0.1300  0.1331
13688TIP3    H162555   0.461   0.171  15.986 -5.3429  3.5572  1.2644
13688TIP3    H262556   0.500   0.290  15.900 -0.3188  0.0292 -1.9162
13689TIP3   OH262557   1.952   2.723   0.845 -0.0588 -0.5285 -0.3864
13689TIP3    H162558   1.867   2.702   0.884 -1.6901  1.8215 -2.3816
13689TIP3    H262559   2.005   2.753   0.919 -1.7293  0.0835  0.6217
13690TIP3   OH262560   0.030   6.232  16.972  0.1402 -0.0075  0.8646
13690TIP3    H162561  -0.021   6.152  16.987 -0.9022  0.3002 -0.8159
13690TIP3    H262562   0.103   6.225  17.034  0.1591 -2.3184  0.6902
13691TIP3   OH262563   4.758   3.690  14.520  0.1061  0.2209 -0.1242
13691TIP3    H162564   4.744   3.686  14.614  1.4110 -0.8572  0.0545
13691TIP3    H262565   4.682   3.647  14.482  0.2547 -0.6101  0.5064
13692TIP3   OH262566   5.916   1.929   3.928  0.4538 -0.4027  0.2633
13692TIP3    H162567   5.860   1.999   3.893 -1.1895 -3.0700 -2.9620
13692TIP3    H262568   5.966   1.972   3.998 -0.4144  3.9543 -1.4428
13693TIP3   OH262569   6.374   5.148  14.200  0.3983  0.5689  0.6246
13693TIP3    H162570   6.405   5.204  14.129  0.8616  0.3231  0.6270
13693TIP3    H262571   6.426   5.068  14.191  0.6223  0.6248  1.3776
13694TIP3   OH262572   2.818   1.249  15.349  0.3492  0.0887  0.5364
13694TIP3    H162573   2.731   1.282  15.327 -0.3364 -0.1562  2.6022
13694TIP3    H262574   2.849   1.205  15.270 -1.6446 -0.2925 -0.0780
13695TIP3   OH262575   2.459   5.566  16.964 -0.1777  0.3867  0.1877
13695TIP3    H162576   2.541   5.544  16.920 -1.3205 -2.5107 -0.7273
13695TIP3    H262577   2.426   5.483  16.997 -2.6248  1.4859  0.7459
13696TIP3   OH262578   6.192   5.668  14.576  0.1487  0.1384 -0.2850
13696TIP3    H162579   6.231   5.581  14.561 -0.0690  0.0399 -0.2851
13696TIP3    H262580   6.101   5.649  14.598 -0.6352  0.4855 -2.8532
13697TIP3   OH262581   6.110   5.646   4.997 -0.1631 -0.3512  0.1161
13697TIP3    H162582   6.038   5.630   4.936 -0.9208 -0.6858  1.0682
13697TIP3    H262583   6.112   5.568   5.053 -0.1647  0.3739  1.1701
13698TIP3   OH262584   2.973   6.669   1.377  0.2917 -1.1275 -0.2958
13698TIP3    H162585   2.979   6.580   1.341  0.2344 -0.8633 -0.9624
13698TIP3    H262586   2.881   6.680   1.398  0.2653 -1.1515 -0.3991
13699TIP3   OH262587   6.590   6.281  15.468  0.2062 -0.5432 -0.5432
13699TIP3    H162588   6.575   6.321  15.554  0.1958 -1.0885 -0.2861
13699TIP3    H262589   6.551   6.194  15.475  0.7985 -0.8446 -0.8700
13700TIP3   OH262590   5.138   0.158  10.361 -0.2429  0.2948  0.3579
13700TIP3    H162591   5.187   0.233  10.394 -0.6245  0.9573 -0.5437
13700TIP3    H262592   5.164   0.150  10.269 -0.7376 -0.2365  0.2540
13701TIP3   OH262593   4.680   1.785  13.808 -0.2561 -0.3305  0.1217
13701TIP3    H162594   4.771   1.789  13.836  0.1855 -1.2306 -1.0937
13701TIP3    H262595   4.651   1.877  13.804  0.1370 -0.0934  1.8451
13702TIP3   OH262596   5.464   4.235  14.832  0.4059  0.2776  0.1482
13702TIP3    H162597   5.493   4.215  14.743 -0.6819 -0.2884 -0.0925
13702TIP3    H262598   5.525   4.188  14.888 -0.6219 -1.7867 -0.3661
13703TIP3   OH262599   3.248   2.756  12.203  0.0439  0.8860  1.1814
13703TIP3    H162600   3.255   2.672  12.159  1.2411  1.4455  0.2581
13703TIP3    H262601   3.163   2.753  12.247  0.5510 -1.2460  2.1271
13704TIP3   OH262602   6.789   5.382  14.977  0.0332 -0.0626 -0.2785
13704TIP3    H162603   6.850   5.444  15.018  1.0786 -0.4379 -1.2256
13704TIP3    H262604   6.790   5.404  14.884 -0.3991 -0.8223 -0.4750
13705TIP3   OH262605   6.352   3.694   6.081 -0.0562 -0.4118 -0.2736
13705TIP3    H162606   6.277   3.750   6.059  0.4081  0.6339  0.6738
13705TIP3    H262607   6.330   3.655   6.165 -0.3103 -1.5737 -0.8612
13706TIP3   OH262608   4.161   5.233   1.234  0.1001  0.0061  0.8111
13706TIP3    H162609   4.102   5.307   1.225  0.7723  0.5987  1.1784
13706TIP3    H262610   4.233   5.266   1.288  0.3352 -0.9559  1.1077
13707TIP3   OH262611   1.547   2.213  17.152  0.2015 -0.1867 -0.7548
13707TIP3    H162612   1.613   2.161  17.106 -0.5100 -0.7316 -1.1763
13707TIP3    H262613   1.504   2.151  17.210  0.8729  0.4333  0.4276
13708TIP3   OH262614   2.030   6.841   2.987 -0.4094  0.1736 -0.0301
13708TIP3    H162615   1.983   6.777   3.041  0.5473 -2.2806 -1.9248
13708TIP3    H262616   2.020   6.808   2.898  0.5850  2.4467 -1.0415
13709TIP3   OH262617   1.324   3.535  15.221 -0.4418  0.4025  0.0501
13709TIP3    H162618   1.242   3.509  15.263 -0.3131 -1.3708 -0.7051
13709TIP3    H262619   1.297   3.593  15.149 -1.2402 -1.4465 -1.2201
13710TIP3   OH262620   2.659   2.417   1.271 -0.1817 -0.6927  0.0880
13710TIP3    H162621   2.598   2.369   1.327 -0.9367 -1.3870 -1.2928
13710TIP3    H262622   2.606   2.486   1.232 -0.0917 -1.2707 -1.0880
13711TIP3   OH262623   4.607   0.009   1.584 -0.3640 -0.1266 -0.2750
13711TIP3    H162624   4.591  -0.026   1.671 -2.2032 -1.0304 -0.9439
13711TIP3    H262625   4.542   0.078   1.573  1.3052  1.5596 -0.1214
13712TIP3   OH262626   1.650   6.108   6.018  0.4493  0.4415  0.0366
13712TIP3    H162627   1.599   6.153   5.950  0.7253 -1.5455 -1.5921
13712TIP3    H262628   1.595   6.113   6.096 -1.7282 -0.5769 -1.3327
13713TIP3   OH262629   6.377   5.318   0.763  0.5390  0.5168  0.6124
13713TIP3    H162630   6.282   5.332   0.758  0.7815  1.7794 -1.6856
13713TIP3    H262631   6.414   5.405   0.777  1.3891 -0.0773  2.4886
13714TIP3   OH262632   0.686   0.496   0.159 -0.5140 -0.1054 -0.0656
13714TIP3    H162633   0.758   0.558   0.168  0.1591 -0.8864  0.0186
13714TIP3    H262634   0.727   0.410   0.168 -1.5872 -0.5421  0.8324
13715TIP3   OH262635   2.249   1.669  10.878  0.2315 -0.2978 -0.9025
13715TIP3    H162636   2.293   1.679  10.963 -1.6042 -0.4179  0.0978
13715TIP3    H262637   2.207   1.753  10.863 -0.8934 -0.8373 -0.8442
13716TIP3   OH262638   4.771   0.602  15.447 -0.9066  0.1617 -0.0160
13716TIP3    H162639   4.854   0.579  15.406 -1.1865  0.5396 -0.8177
13716TIP3    H262640   4.779   0.696  15.467 -0.4011 -0.2153  1.7159
13717TIP3   OH262641   2.775   5.548   4.092  0.6843 -0.2298  0.0321
13717TIP3    H162642   2.827   5.474   4.124  1.2626  0.0745 -0.1813
13717TIP3    H262643   2.821   5.626   4.125 -0.0291  0.0320  0.4224
13718TIP3   OH262644   6.341   0.400  15.632  0.1570  0.1199  0.2205
13718TIP3    H162645   6.246   0.405  15.624 -0.2131 -1.3191  2.5959
13718TIP3    H262646   6.374   0.470  15.575 -2.4084  2.1890  1.0623
13719TIP3   OH262647   6.301   5.940   6.354 -0.9471 -0.4620  0.5222
13719TIP3    H162648   6.281   5.932   6.260  0.2646  1.8950  0.0042
13719TIP3    H262649   6.308   6.034   6.369  1.3095 -0.8525  2.4513
13720TIP3   OH262650   5.113   0.244   0.261 -0.1283  0.3754  0.1597
13720TIP3    H162651   5.093   0.233   0.354  1.7452 -1.1406  0.4322
13720TIP3    H262652   5.082   0.163   0.220  2.4092 -0.6367  0.1125
13721TIP3   OH262653   5.529   0.273  11.024 -0.1121  0.5070 -0.0608
13721TIP3    H162654   5.540   0.341  11.090 -0.7621  2.0647 -1.4849
13721TIP3    H262655   5.498   0.320  10.946 -1.2308 -1.5089 -0.9080
13722TIP3   OH262656   4.131   1.590  11.816  0.0940  0.2269 -0.4968
13722TIP3    H162657   4.118   1.609  11.723 -1.3480  0.6897 -0.2210
13722TIP3    H262658   4.132   1.494  11.820 -1.2164  0.1724 -0.8451
13723TIP3   OH262659   6.121   3.194  11.578  0.5725  0.0035 -0.3304
13723TIP3    H162660   6.064   3.261  11.541  1.1385  0.5876 -0.1663
13723TIP3    H262661   6.209   3.227  11.563  0.8402 -0.3563  0.4069
13724TIP3   OH262662   4.167   2.807  10.544 -0.3536  0.2194  0.2501
13724TIP3    H162663   4.224   2.743  10.585  0.7273  0.5592 -0.6561
13724TIP3    H262664   4.184   2.888  10.592  1.9607  0.9649 -1.5926
13725TIP3   OH262665   5.211   1.880  14.209 -0.0057  0.0109  0.5917
13725TIP3    H162666   5.240   1.838  14.290  0.1501  1.1584  1.1509
13725TIP3    H262667   5.205   1.808  14.146  2.5950 -0.5361  0.8393
13726TIP3   OH262668   2.837   6.204   3.381 -0.1559 -0.7201 -0.6606
13726TIP3    H162669   2.841   6.125   3.327 -2.0370 -1.6456  0.4326
13726TIP3    H262670   2.916   6.201   3.434 -1.1240 -3.0720  0.8258
13727TIP3   OH262671   6.792   5.870   5.641  0.0516 -0.2350  0.6712
13727TIP3    H162672   6.709   5.912   5.616  0.2793 -0.4617 -0.5603
13727TIP3    H262673   6.854   5.897   5.573  0.9196 -0.2965  1.4233
13728TIP3   OH262674   3.732   4.946   2.089 -0.0834 -0.5887 -0.8981
13728TIP3    H162675   3.670   5.019   2.095  0.0465 -0.6114  2.1769
13728TIP3    H262676   3.697   4.890   2.020 -0.5861  1.9537 -2.8310
13729TIP3   OH262677   5.683   5.732  13.363  0.1711  0.1068 -0.1768
13729TIP3    H162678   5.755   5.714  13.424  0.1574  1.2702  0.2092
13729TIP3    H262679   5.612   5.764  13.419 -0.4308 -0.4057 -0.6290
13730TIP3   OH262680   6.800   1.502  11.713 -0.0332 -0.3234 -0.7453
13730TIP3    H162681   6.864   1.550  11.660  0.6478 -0.1975  0.1667
13730TIP3    H262682   6.757   1.570  11.765  1.9998 -0.7433  1.7024
13731TIP3   OH262683   4.451   3.630   5.886  0.0365 -0.8641  0.6082
13731TIP3    H162684   4.436   3.603   5.977  0.4847 -1.2047  0.5856
13731TIP3    H262685   4.516   3.568   5.853  0.5423 -0.1939  0.3312
13732TIP3   OH262686   2.013   5.293  11.829 -0.3901 -0.7792 -0.2751
13732TIP3    H162687   2.052   5.378  11.810 -1.3008 -0.3459 -0.2806
13732TIP3    H262688   2.028   5.241  11.750  0.6793 -0.8325 -0.0530
13733TIP3   OH262689   3.402   0.314   5.416 -0.2057 -0.1128 -0.4845
13733TIP3    H162690   3.367   0.289   5.502 -0.3908  0.7129 -0.3173
13733TIP3    H262691   3.464   0.384   5.435  0.9170 -0.9778 -0.8672
13734TIP3   OH262692   0.417   3.314  11.021 -0.4030 -0.1579  0.0362
13734TIP3    H162693   0.462   3.392  10.987 -1.8653 -0.1431 -2.0385
13734TIP3    H262694   0.328   3.343  11.038  0.5510  0.4012  6.2279
13735TIP3   OH262695   1.025   6.448  14.434  0.4381  0.0369 -0.2495
13735TIP3    H162696   0.970   6.442  14.356  0.9132 -2.0406 -0.4844
13735TIP3    H262697   1.104   6.494  14.404 -0.8327  2.5195 -0.0451
13736TIP3   OH262698   6.785   1.412  13.456  0.0846  0.2057  0.1114
13736TIP3    H162699   6.740   1.361  13.388  1.5286  0.3169 -0.9761
13736TIP3    H262700   6.847   1.350  13.494  0.3705  0.5766  0.2465
13737TIP3   OH262701   3.268   5.648  15.335  0.0455 -0.1978  0.1836
13737TIP3    H162702   3.319   5.585  15.284 -2.0020 -0.6665 -1.4041
13737TIP3    H262703   3.263   5.609  15.422  0.6335 -1.1615 -0.1929
13738TIP3   OH262704   0.392   5.150   4.208 -0.1595  0.2138 -0.3155
13738TIP3    H162705   0.472   5.171   4.160  0.7781  0.9746  1.5095
13738TIP3    H262706   0.362   5.233   4.242 -1.2438 -0.2036 -0.2248
13739TIP3   OH262707   3.389   5.425  12.231  0.0362  0.2427  0.1671
13739TIP3    H162708   3.415   5.345  12.277 -1.7970 -1.2510 -1.1972
13739TIP3    H262709   3.294   5.418  12.223  0.0575  1.4652 -1.9116
13740TIP3   OH262710   2.925   5.930   0.994  0.5647  0.2138  0.3321
13740TIP3    H162711   2.950   5.900   0.907 -1.7051  0.5801 -0.5201
13740TIP3    H262712   2.918   5.850   1.046  1.9824 -0.0013  0.2203
13741TIP3   OH262713   6.712   5.533   6.523 -0.0759 -0.4305 -0.0754
13741TIP3    H162714   6.800   5.500   6.508 -0.1931 -1.0004  0.4714
13741TIP3    H262715   6.685   5.494   6.607 -0.4882  0.4736  0.2272
13742TIP3   OH262716   1.158   6.356   4.373  0.2932 -0.0919 -0.1853
13742TIP3    H162717   1.101   6.384   4.445 -0.5788  1.4854 -1.4011
13742TIP3    H262718   1.219   6.294   4.412 -0.8404 -0.1082  1.6616
13743TIP3   OH262719   0.429   0.331   3.600 -0.2399 -0.8075 -0.2931
13743TIP3    H162720   0.378   0.253   3.625 -0.5542 -0.9346 -1.2638
13743TIP3    H262721   0.390   0.402   3.650  0.6287 -1.3955  1.2955
13744TIP3   OH262722   0.275   6.246  12.951  0.1904 -0.7706 -0.5982
13744TIP3    H162723   0.202   6.192  12.920 -0.5350  0.8552 -1.8296
13744TIP3    H262724   0.248   6.275  13.038 -0.5106 -0.4137 -0.9294
13745TIP3   OH262725   6.218   6.727  17.202 -0.2668 -0.3156  0.3846
13745TIP3    H162726   6.176   6.648  17.169 -2.4451  0.7302  0.4578
13745TIP3    H262727   6.288   6.745  17.140 -0.7229 -1.4533 -0.4892
13746TIP3   OH262728   5.346   0.698   1.825 -0.3197  0.4272 -0.1531
13746TIP3    H162729   5.299   0.730   1.748 -0.9025  0.2983  0.1387
13746TIP3    H262730   5.436   0.684   1.795 -0.9456 -1.4807 -1.3504
13747TIP3   OH262731   3.559   3.355   3.889  0.2877 -0.0617 -0.0440
13747TIP3    H162732   3.534   3.416   3.959  0.4261  0.3617 -0.3589
13747TIP3    H262733   3.639   3.313   3.922  0.5778  0.4269 -0.1166
13748TIP3   OH262734   3.521   5.991   5.027 -0.5334 -0.1088 -0.5881
13748TIP3    H162735   3.427   5.975   5.039 -0.4749 -0.2241 -0.2611
13748TIP3    H262736   3.545   6.049   5.099 -0.1585 -0.8602 -0.0971
13749TIP3   OH262737   2.708   4.428   4.909  0.5025 -0.7187 -0.1041
13749TIP3    H162738   2.652   4.500   4.878 -1.4826 -1.3795  1.7171
13749TIP3    H262739   2.795   4.450   4.876 -0.6536  0.7304 -2.4940
13750TIP3   OH262740   3.311   0.856  12.337  0.0839 -0.1630 -0.1714
13750TIP3    H162741   3.307   0.837  12.244  2.0545  1.5808 -0.7085
13750TIP3    H262742   3.358   0.781  12.375  0.5208 -0.2293 -0.8286
13751TIP3   OH262743   4.241   3.427   4.677  0.6497  0.0379 -0.1418
13751TIP3    H162744   4.149   3.433   4.704  0.4972 -0.1014 -0.6212
13751TIP3    H262745   4.259   3.511   4.636  0.9224  0.3022  0.5026
13752TIP3   OH262746   2.365   1.382   0.197 -0.2483 -0.0364  0.2952
13752TIP3    H162747   2.301   1.313   0.211  0.3719 -0.4886  1.0097
13752TIP3    H262748   2.392   1.373   0.106  0.5932 -1.4213  0.6561
13753TIP3   OH262749   1.166   5.144  14.828  0.7054  0.3380 -0.0366
13753TIP3    H162750   1.257   5.170  14.818  0.9927 -0.9971 -1.2208
13753TIP3    H262751   1.166   5.050  14.811 -0.8678  0.2907  0.0897
13754TIP3   OH262752   0.885   3.786   0.160  0.2174 -0.8191  0.1610
13754TIP3    H162753   0.935   3.704   0.169 -1.7136 -2.2131 -0.9742
13754TIP3    H262754   0.864   3.791   0.067 -2.5398 -0.8409  0.7021
13755TIP3   OH262755   3.795   5.503  12.127 -1.0497  0.0614 -0.4432
13755TIP3    H162756   3.709   5.541  12.144 -1.0824 -0.5871  0.9981
13755TIP3    H262757   3.832   5.487  12.214 -0.3279 -1.5742 -1.0025
13756TIP3   OH262758   3.646   5.837   4.286 -0.4188 -0.3004 -0.1462
13756TIP3    H162759   3.680   5.780   4.218 -0.0961 -0.6504  0.3030
13756TIP3    H262760   3.702   5.915   4.283 -0.9824  0.0926 -0.8897
13757TIP3   OH262761   5.171   6.003   2.822 -0.1195  0.0730 -0.0400
13757TIP3    H162762   5.229   6.046   2.885  0.0102  0.7489 -0.6072
13757TIP3    H262763   5.230   5.956   2.763 -0.1578  0.5196 -0.4408
13758TIP3   OH262764   3.177   5.544   6.305 -0.0587  0.2916  0.4270
13758TIP3    H162765   3.263   5.582   6.319 -0.4880  0.9291  1.4213
13758TIP3    H262766   3.152   5.574   6.218 -0.0920  1.7418  0.9153
13759TIP3   OH262767   6.813   2.195  11.452  0.7459  0.0902  0.1339
13759TIP3    H162768   6.871   2.213  11.526  0.5787 -0.8760  0.5090
13759TIP3    H262769   6.733   2.243  11.473  0.2633 -1.1023  1.1840
13760TIP3   OH262770   0.534   1.560   6.411 -0.4111  0.4380  0.2157
13760TIP3    H162771   0.529   1.632   6.349  0.5602 -0.6855 -1.2547
13760TIP3    H262772   0.444   1.543   6.437 -0.7841  1.2505 -0.5162
13761TIP3   OH262773   4.607   5.774   3.680 -0.2559  0.0439 -0.5090
13761TIP3    H162774   4.532   5.765   3.738 -0.0380  2.5339  0.2504
13761TIP3    H262775   4.597   5.702   3.617 -2.2911 -0.7284  0.6067
13762TIP3   OH262776   1.991   2.271   4.558  0.2197  0.3925  0.3699
13762TIP3    H162777   1.945   2.309   4.483  0.6003  1.2273  0.5526
13762TIP3    H262778   2.063   2.221   4.519 -1.1825 -1.5104  0.0344
13763TIP3   OH262779   4.147   6.291  11.851 -0.0495 -0.1569  0.3935
13763TIP3    H162780   4.163   6.199  11.874 -0.7671 -0.5561 -0.6238
13763TIP3    H262781   4.223   6.337  11.885  0.2362 -1.0969  1.0952
13764TIP3   OH262782   6.205   1.702   1.883  0.1620  0.5314 -0.0965
13764TIP3    H162783   6.172   1.765   1.947 -0.7492  1.5548 -1.5172
13764TIP3    H262784   6.267   1.752   1.830  2.8187 -0.9246  1.4396
13765TIP3   OH262785   0.917   5.570   1.560 -0.7029  0.4994  0.0996
13765TIP3    H162786   0.913   5.509   1.487 -1.1295  1.1330 -0.4048
13765TIP3    H262787   0.964   5.646   1.526 -0.2847  0.5151  0.6884
13766TIP3   OH262788   4.663   5.198   2.594 -0.1239 -0.0319  0.1760
13766TIP3    H162789   4.631   5.281   2.630  1.4113  0.3242  0.8085
13766TIP3    H262790   4.619   5.130   2.646  0.9846  0.4574  1.8604
13767TIP3   OH262791   0.456   3.214   1.786 -0.1592 -0.3205 -0.1227
13767TIP3    H162792   0.492   3.223   1.698  0.5968 -2.1129 -0.0329
13767TIP3    H262793   0.506   3.277   1.838 -1.2957  1.4849 -1.1109
13768TIP3   OH262794   2.542   0.433   2.949  0.3387  0.0398 -0.5175
13768TIP3    H162795   2.477   0.400   3.012  1.1927 -0.4846  0.1121
13768TIP3    H262796   2.601   0.359   2.935  1.3260  0.7802 -0.3605
13769TIP3   OH262797   2.305   3.411  16.323  0.1185  0.4657 -0.1238
13769TIP3    H162798   2.218   3.399  16.360 -0.1203  0.7579 -0.5805
13769TIP3    H262799   2.324   3.504  16.339 -0.1280  0.6798 -1.0210
13770TIP3   OH262800   3.879   1.359   1.844  0.3423 -0.4414 -0.5255
13770TIP3    H162801   3.957   1.408   1.871 -0.3390  0.2575  0.2212
13770TIP3    H262802   3.876   1.285   1.904 -0.1272  0.0914  0.1240
13771TIP3   OH262803   1.567   0.044   1.832 -0.1562  0.3761 -0.1734
13771TIP3    H162804   1.532  -0.006   1.758 -1.9091 -1.2089  1.6105
13771TIP3    H262805   1.660   0.020   1.835 -0.0774  0.4021 -1.7793
13772TIP3   OH262806   0.912   1.782  17.048 -0.2804  0.0163 -0.0218
13772TIP3    H162807   0.838   1.755  16.994 -0.0507  0.1284 -0.3991
13772TIP3    H262808   0.872   1.821  17.126 -0.6228  0.6620 -0.5137
13773TIP3   OH262809   1.715   1.319   0.316  0.1106  0.4048  0.3840
13773TIP3    H162810   1.641   1.356   0.364  1.2844  2.7147  0.5502
13773TIP3    H262811   1.688   1.321   0.224 -0.1825  0.8542  0.4797
13774TIP3   OH262812   1.507   2.334  15.582 -0.7377 -0.3682 -0.5010
13774TIP3    H162813   1.504   2.266  15.649 -0.2230 -0.3914 -0.4955
13774TIP3    H262814   1.547   2.409  15.626 -3.1586  0.6602  0.1035
13775TIP3   OH262815   2.626   3.467   4.988 -0.2148 -0.2258  0.0953
13775TIP3    H162816   2.623   3.375   4.965 -0.6103 -0.0535 -0.5839
13775TIP3    H262817   2.610   3.470   5.082 -0.9994 -0.7949 -0.0175
13776TIP3   OH262818   0.843   6.613  11.707 -0.6080 -0.2356 -0.3122
13776TIP3    H162819   0.929   6.648  11.733  0.1609 -1.8879 -0.5200
13776TIP3    H262820   0.780   6.674  11.745  0.6629  2.6460 -2.4828
13777TIP3   OH262821   0.750   4.871  12.634 -0.2851 -1.2050 -0.0937
13777TIP3    H162822   0.767   4.829  12.718  1.3496  0.0973  0.2648
13777TIP3    H262823   0.700   4.949  12.655  0.9393 -0.3634 -0.1798
13778TIP3   OH262824   3.392   1.962  16.878  0.3013 -0.1107  0.0041
13778TIP3    H162825   3.422   1.879  16.841 -0.9514 -0.6153  0.0606
13778TIP3    H262826   3.471   2.015  16.886  1.1524 -1.3540  0.1231
13779TIP3   OH262827   3.256   6.085  12.694  0.1755  0.3303  0.1339
13779TIP3    H162828   3.341   6.045  12.674 -0.1864 -0.5600  0.2938
13779TIP3    H262829   3.215   6.098  12.608  0.8915  1.7759 -0.0196
13780TIP3   OH262830   6.239   0.491   5.904 -0.1400  0.1303 -0.1946
13780TIP3    H162831   6.226   0.398   5.887 -1.1974  0.3756 -0.7972
13780TIP3    H262832   6.209   0.534   5.825  1.6925  0.9357 -0.5011
13781TIP3   OH262833   2.615   6.291  12.724  0.9152  0.2077 -0.3959
13781TIP3    H162834   2.611   6.374  12.677  2.6887  0.7350  0.3335
13781TIP3    H262835   2.615   6.225  12.655  1.5091  0.8921 -1.0645
13782TIP3   OH262836   1.118   5.282  11.153  0.0234  0.1267 -0.0683
13782TIP3    H162837   1.096   5.341  11.225 -0.5127  2.2034 -1.8070
13782TIP3    H262838   1.033   5.255  11.118  0.2743 -0.1765 -0.4471
13783TIP3   OH262839   6.151   5.923   6.573 -0.0443 -0.3244  0.2687
13783TIP3    H162840   6.183   5.836   6.598  1.7468  1.1910  4.0711
13783TIP3    H262841   6.223   5.962   6.525  0.1040 -0.1117  0.6656
13784TIP3   OH262842   2.150   4.054   0.823  0.5265 -0.0720  0.1306
13784TIP3    H162843   2.122   4.018   0.908 -0.4744 -1.3506 -0.6994
13784TIP3    H262844   2.068   4.079   0.780  0.9372 -0.4113 -0.8709
13785TIP3   OH262845   0.396   2.020  16.630 -0.2160 -0.3528 -0.3716
13785TIP3    H162846   0.396   2.115  16.620  1.5596 -0.2869 -0.0205
13785TIP3    H262847   0.424   2.004  16.720 -0.8264 -1.2098 -0.3180
13786TIP3   OH262848   2.126   3.825  10.879 -0.4538  1.0320 -0.2159
13786TIP3    H162849   2.084   3.831  10.965 -0.4525 -0.5385 -0.0863
13786TIP3    H262850   2.056   3.802  10.819 -0.1286  0.3168 -0.3255
13787TIP3   OH262851   0.735   2.463   5.001  0.0754  0.0106  0.0966
13787TIP3    H162852   0.656   2.409   4.996  0.6818 -1.1695  2.1124
13787TIP3    H262853   0.745   2.482   5.094  0.4434  2.8637 -0.4174
13788TIP3   OH262854   5.471   5.399   4.899 -0.2149 -0.3586  0.7454
13788TIP3    H162855   5.404   5.392   4.831  0.7227 -1.1161 -0.1397
13788TIP3    H262856   5.459   5.321   4.953 -1.5435  0.6956  2.0397
13789TIP3   OH262857   6.437   0.767   3.312  0.0950 -0.2988 -0.4887
13789TIP3    H162858   6.399   0.780   3.225 -2.0324  3.0857  0.7529
13789TIP3    H262859   6.387   0.826   3.368  2.7890 -0.8008  2.6740
13790TIP3   OH262860   1.131   5.160   5.040 -0.1244  0.0487  0.5872
13790TIP3    H162861   1.211   5.171   5.092  1.2727 -0.8188 -1.2655
13790TIP3    H262862   1.082   5.091   5.085  0.2273  0.4665  1.6508
13791TIP3   OH262863   1.626   5.350   4.371  0.1644 -0.3660 -0.1092
13791TIP3    H162864   1.644   5.386   4.458  1.7583 -2.1496  0.3412
13791TIP3    H262865   1.555   5.287   4.385  0.9104 -1.1796  0.0378
13792TIP3   OH262866   4.794   6.672   5.374 -0.3838 -0.2321  0.0870
13792TIP3    H162867   4.770   6.712   5.290 -2.7001 -0.9622  0.3362
13792TIP3    H262868   4.713   6.670   5.424  0.7615 -0.6295  2.0410
13793TIP3   OH262869   0.227   5.890   2.408  0.0440  0.1483  0.2468
13793TIP3    H162870   0.239   5.960   2.472 -1.6248 -0.2954  1.1142
13793TIP3    H262871   0.132   5.874   2.408  0.1556 -0.7082 -1.4435
13794TIP3   OH262872   4.117   2.209  12.717  0.2693  0.0394 -0.1829
13794TIP3    H162873   4.128   2.304  12.716 -1.0021  0.2078  0.3188
13794TIP3    H262874   4.024   2.196  12.735  0.3408 -1.3033 -0.7232
13795TIP3   OH262875   6.128   5.882  13.951 -0.1872  0.3240 -1.2751
13795TIP3    H162876   6.219   5.871  13.979  0.4046 -0.5492 -3.3479
13795TIP3    H262877   6.080   5.899  14.032  1.3042 -2.4620  0.3402
13796TIP3   OH262878   3.564   4.918   0.609 -0.1593 -0.2169 -0.3418
13796TIP3    H162879   3.493   4.949   0.554  0.0169 -1.3157 -1.2131
13796TIP3    H262880   3.533   4.931   0.699 -1.1622 -0.0551 -0.7072
13797TIP3   OH262881   1.616   1.425   2.305  0.0475 -0.2988 -0.0954
13797TIP3    H162882   1.626   1.506   2.255 -1.0967  0.1725  0.4006
13797TIP3    H262883   1.695   1.374   2.286  1.9378  1.8978  1.3796
13798TIP3   OH262884   1.540   2.044  13.223 -0.0774 -0.0904  0.2611
13798TIP3    H162885   1.548   2.127  13.271  0.8388 -0.3494  0.5780
13798TIP3    H262886   1.630   2.014  13.212 -0.4275 -1.4118  0.7883
13799TIP3   OH262887   5.589   0.396   6.341  0.1368  0.2248 -0.0960
13799TIP3    H162888   5.581   0.471   6.283 -0.6259  1.1021  1.1008
13799TIP3    H262889   5.618   0.432   6.424 -1.3548 -0.6143  0.8451
13800TIP3   OH262890   5.878   1.894  15.852 -0.1293  0.2005 -0.3614
13800TIP3    H162891   5.859   1.817  15.799  0.7427 -0.9124  0.8732
13800TIP3    H262892   5.957   1.872  15.900 -0.0825  1.7205  0.3305
13801TIP3   OH262893   4.688   2.809  14.450  0.3885  0.3159 -0.0468
13801TIP3    H162894   4.716   2.827  14.540 -0.4880  0.8464  0.1291
13801TIP3    H262895   4.698   2.714  14.440  2.1213  0.4621  0.0332
13802TIP3   OH262896   2.262   0.121  14.653  0.2820 -0.1774  0.0218
13802TIP3    H162897   2.261   0.216  14.667  0.0114  0.0510 -1.3905
13802TIP3    H262898   2.239   0.110  14.561  1.0215 -1.5888 -0.0233
13803TIP3   OH262899   6.229   1.277  13.209  0.0811 -0.1050  0.0111
13803TIP3    H162900   6.313   1.277  13.255  0.5789  0.6475 -0.8686
13803TIP3    H262901   6.195   1.189  13.222  0.1697  0.0815  1.8542
13804TIP3   OH262902   0.222   6.027  12.442  0.5150  0.4420 -0.1202
13804TIP3    H162903   0.211   6.114  12.404  0.9051  0.5293 -0.0436
13804TIP3    H262904   0.317   6.012  12.441  0.6024  0.7526  1.4760
13805TIP3   OH262905   5.978   2.108   3.528 -0.2249 -0.4963  0.3141
13805TIP3    H162906   5.958   2.100   3.435  0.9843  0.6292 -0.0626
13805TIP3    H262907   5.956   2.022   3.564  2.6126 -2.2617 -1.6710
13806TIP3   OH262908   4.880   0.239   3.973  0.5820  0.6439 -0.0453
13806TIP3    H162909   4.841   0.192   3.899  0.5341  1.9968 -0.9058
13806TIP3    H262910   4.965   0.196   3.985 -0.5503 -1.4508  0.9909
13807TIP3   OH262911   4.889   0.407   0.085 -0.6109  0.0625 -0.5397
13807TIP3    H162912   4.881   0.327   0.137  0.5816 -1.7924 -3.0135
13807TIP3    H262913   4.966   0.393   0.031 -1.4306  2.0923 -2.3818
13808TIP3   OH262914   2.591   6.836  14.194  0.0052 -0.5479  0.0260
13808TIP3    H162915   2.538   6.756  14.185 -0.5796 -0.2863  1.0118
13808TIP3    H262916   2.571   6.887  14.115 -0.5807 -0.8254 -0.0117
13809TIP3   OH262917   6.750   1.014  14.360  0.5808 -0.2022  0.9635
13809TIP3    H162918   6.838   0.975  14.356  1.1327  1.0643 -0.2530
13809TIP3    H262919   6.766   1.106  14.380 -0.4286  0.1690  0.1426
13810TIP3   OH262920   2.932   6.021  16.142  0.6285 -0.2426 -0.2025
13810TIP3    H162921   2.988   6.069  16.081 -1.0084 -0.3739 -1.9086
13810TIP3    H262922   2.904   6.087  16.205 -0.6234  0.8537 -1.8162
13811TIP3   OH262923   6.618   1.775   1.032  0.4811 -0.4286  0.5286
13811TIP3    H162924   6.637   1.785   1.126 -0.3873  0.9805  0.5839
13811TIP3    H262925   6.569   1.854   1.009 -0.1780 -1.2134 -0.9019
13812TIP3   OH262926   3.830   6.598  16.007 -0.6384  0.4176 -0.0348
13812TIP3    H162927   3.919   6.576  15.981 -0.5276 -1.5658  1.7479
13812TIP3    H262928   3.821   6.691  15.986  1.9585  0.7593  0.0294
13813TIP3   OH262929   5.607   3.224   0.695 -0.0447 -0.3546 -0.1331
13813TIP3    H162930   5.640   3.215   0.784  2.2734  0.8638 -0.7767
13813TIP3    H262931   5.667   3.172   0.641  0.5604  1.4152 -1.2815
13814TIP3   OH262932   6.061   3.059   0.301  0.4856  0.9655 -0.4163
13814TIP3    H162933   6.084   3.151   0.313  0.8157  1.1889 -2.3491
13814TIP3    H262934   6.122   3.028   0.233  1.5316 -1.1714  1.3810
13815TIP3   OH262935   2.884   1.202   2.006  0.4879 -0.1237  0.1856
13815TIP3    H162936   2.825   1.271   1.975  2.4184  1.7259  0.4118
13815TIP3    H262937   2.920   1.237   2.088  0.2778 -2.1713  1.2113
13816TIP3   OH262938   3.098   0.009  14.585  0.2363  0.2270 -0.0561
13816TIP3    H162939   3.004   0.010  14.567 -0.0108 -1.1861  0.9770
13816TIP3    H262940   3.122   0.101  14.590 -0.6894  0.6523 -2.2106
13817TIP3   OH262941   4.923   5.613   0.402  0.4047  0.4727  0.1733
13817TIP3    H162942   4.907   5.651   0.315  0.3727  0.4900  0.1868
13817TIP3    H262943   4.839   5.575   0.427  0.5303  0.0884  0.0091
13818TIP3   OH262944   5.233   6.494   6.525  0.0265  0.6756  0.3955
13818TIP3    H162945   5.189   6.549   6.460 -1.3996 -0.3646  0.4435
13818TIP3    H262946   5.297   6.553   6.566 -1.0008  2.1174  0.0012
13819TIP3   OH262947   3.772   5.526  15.037 -0.3037  0.2541  0.6432
13819TIP3    H162948   3.772   5.435  15.007  1.4126  0.0707  1.0640
13819TIP3    H262949   3.806   5.575  14.962  1.1627  0.1847  1.2274
13820TIP3   OH262950   4.277   1.395  16.763  0.1439  0.7880 -0.7287
13820TIP3    H162951   4.349   1.380  16.702  0.9490 -1.7178  0.7130
13820TIP3    H262952   4.224   1.315  16.759  1.2168 -0.3198  3.0364
13821TIP3   OH262953   5.758   5.228  14.133  0.0229  0.0558  0.6789
13821TIP3    H162954   5.832   5.167  14.131  0.9317  1.1418 -0.5429
13821TIP3    H262955   5.798   5.314  14.128 -1.3129  0.6977  0.7132
13822TIP3   OH262956   1.093   0.647  17.058  0.1084 -0.2377  0.4685
13822TIP3    H162957   1.090   0.577  16.992  0.6851  0.0667  0.1146
13822TIP3    H262958   1.003   0.679  17.062  0.1092 -0.0880 -0.3651
13823TIP3   OH262959   1.715   2.600   0.437  0.7252 -0.3972 -0.2071
13823TIP3    H162960   1.710   2.527   0.376 -2.1288 -0.6867  0.2388
13823TIP3    H262961   1.632   2.647   0.425  1.5348  1.4752  1.0970
13824TIP3   OH262962   1.367   4.599   0.892  0.0905  0.2802  0.3657
13824TIP3    H162963   1.456   4.571   0.873 -0.2388 -0.2457 -0.4743
13824TIP3    H262964   1.311   4.534   0.849 -0.7252 -0.2725  2.1396
13825TIP3   OH262965   2.707   1.232   3.588  0.0785  0.5395  0.3069
13825TIP3    H162966   2.769   1.294   3.549 -0.4339  0.5056 -0.5846
13825TIP3    H262967   2.760   1.181   3.649  0.5796  1.6290  0.8213
13826TIP3   OH262968   3.747   0.470   0.243  0.3583 -0.2838  0.6194
13826TIP3    H162969   3.832   0.501   0.214  0.7904 -1.4878  0.5330
13826TIP3    H262970   3.726   0.399   0.183 -1.8206  1.4673 -0.8606
13827TIP3   OH262971   0.889   3.264   0.971 -0.1993  0.6052 -0.2678
13827TIP3    H162972   0.957   3.292   0.910  0.0674 -0.1028 -0.3124
13827TIP3    H262973   0.812   3.248   0.917  0.3019 -0.9204 -0.5739
13828TIP3   OH262974   0.887   4.601  15.194 -0.2022  0.3617  0.0887
13828TIP3    H162975   0.799   4.566  15.183  0.4920 -1.8025  0.8285
13828TIP3    H262976   0.943   4.540  15.145  0.8929  1.7332 -0.4313
13829TIP3   OH262977   4.318   1.004   2.401  0.0552 -0.1450 -0.0322
13829TIP3    H162978   4.332   1.082   2.454 -0.7681 -0.0998  0.1367
13829TIP3    H262979   4.406   0.973   2.379  0.4579 -0.8133  2.3098
13830TIP3   OH262980   4.515   1.992   1.786 -0.0983 -0.2744 -0.6944
13830TIP3    H162981   4.592   2.040   1.755 -0.1493  1.0927  1.1270
13830TIP3    H262982   4.441   2.046   1.758 -0.2193  0.1004  0.3328
13831TIP3   OH262983   5.299   4.288  12.628 -0.1098 -0.0726  0.0444
13831TIP3    H162984   5.303   4.321  12.538 -2.1895 -2.3005 -0.9623
13831TIP3    H262985   5.272   4.197  12.619 -2.3425  0.1621  3.0368
13832TIP3   OH262986   3.164   0.585  12.676 -0.3864  0.2690  0.0388
13832TIP3    H162987   3.175   0.546  12.763 -1.6035  2.3610  1.2076
13832TIP3    H262988   3.246   0.632  12.660  0.9911 -2.3720 -1.2738
13833TIP3   OH262989   2.099   2.543  16.732  0.0932 -0.4039  0.4762
13833TIP3    H162990   2.094   2.503  16.819  1.2957 -0.6116  0.4751
13833TIP3    H262991   2.066   2.475  16.673  0.0948 -0.5937  0.6894
13834TIP3   OH262992   0.335   6.343   0.150  0.3830  0.4033 -0.5263
13834TIP3    H162993   0.304   6.421   0.105  0.0216 -0.2609 -1.4606
13834TIP3    H262994   0.308   6.356   0.241  1.0052  1.6972 -0.5147
13835TIP3   OH262995   6.582   5.961  12.131  0.2080  0.1971  0.1183
13835TIP3    H162996   6.524   6.035  12.151  1.9581  0.8907  3.0886
13835TIP3    H262997   6.533   5.884  12.160  0.1150  0.6165  1.0931
13836TIP3   OH262998   5.955   3.155  13.818  0.0694  0.6001 -0.4036
13836TIP3    H162999   5.953   3.177  13.725  0.1961 -0.0224 -0.5611
13836TIP3    H263000   5.998   3.230  13.859  1.4987  0.1917 -1.0641
13837TIP3   OH263001   5.832   1.197   6.353  0.7469  0.5161 -0.0178
13837TIP3    H163002   5.742   1.208   6.382  0.4027 -0.5131 -0.6375
13837TIP3    H263003   5.864   1.122   6.402  0.6908 -0.2023 -1.0376
13838TIP3   OH263004   4.932   5.645  15.122  0.4514  0.1178 -0.1761
13838TIP3    H163005   5.017   5.674  15.155  0.2721  1.1302 -0.5500
13838TIP3    H263006   4.935   5.550  15.126  1.0582  0.1771  1.1670
13839TIP3   OH263007   3.534   3.601  14.466 -0.5828 -0.1688  0.6946
13839TIP3    H163008   3.467   3.667  14.484 -0.5748 -0.5569  2.3807
13839TIP3    H263009   3.591   3.641  14.401 -0.1057  1.8659  2.2383
13840TIP3   OH263010   5.936   2.073   2.475  0.3189  0.0661  0.3452
13840TIP3    H163011   6.007   2.124   2.437  2.1239 -1.6235  1.2800
13840TIP3    H263012   5.874   2.062   2.403  1.0469  1.4740 -0.5418
13841TIP3   OH263013   2.795   2.916  13.030  0.5098  0.3824 -0.0679
13841TIP3    H163014   2.743   2.995  13.019 -0.2519  0.1293  1.4217
13841TIP3    H263015   2.738   2.857  13.079  1.7642 -0.3674  0.5325
13842TIP3   OH263016   3.960   5.008   4.737 -0.1141 -0.1318 -0.1888
13842TIP3    H163017   3.952   4.931   4.793 -0.1313 -0.4960 -0.6831
13842TIP3    H263018   4.011   5.070   4.788 -1.9581  0.3925  1.1152
13843TIP3   OH263019   2.099   2.147  11.832  0.8542 -0.0766 -0.0434
13843TIP3    H163020   2.185   2.181  11.857 -0.1669  1.3514  1.8040
13843TIP3    H263021   2.074   2.090  11.904 -0.5334  1.0717  0.4465
13844TIP3   OH263022   1.566   3.089  14.363  0.1839 -0.0814 -0.0494
13844TIP3    H163023   1.508   3.159  14.391  0.6424  0.3766 -0.2235
13844TIP3    H263024   1.618   3.068  14.440  0.6838  0.4152 -0.2439
13845TIP3   OH263025   1.869   4.678  15.611 -0.0621  0.5299  0.3646
13845TIP3    H163026   1.776   4.670  15.590  0.2506  0.9613 -1.3284
13845TIP3    H263027   1.899   4.753  15.560  1.5374 -0.5661 -0.4014
13846TIP3   OH263028   1.098   2.557  10.677 -0.3888  0.0384  0.5017
13846TIP3    H163029   1.177   2.504  10.662 -1.5276 -1.9082  0.9530
13846TIP3    H263030   1.051   2.554  10.593 -1.6948 -1.9581  1.2189
13847TIP3   OH263031   3.916   5.277   6.001  0.2243 -0.9895 -0.0177
13847TIP3    H163032   3.937   5.298   5.910  0.3968  3.1058  0.7788
13847TIP3    H263033   3.990   5.310   6.052 -0.2534 -2.4114  1.7226
13848TIP3   OH263034   3.668   2.925  16.634  0.3975  0.1417 -0.0268
13848TIP3    H163035   3.644   3.013  16.662  0.2724 -0.2738  1.2442
13848TIP3    H263036   3.676   2.931  16.539 -1.2079  1.1403 -0.1313
13849TIP3   OH263037   2.117   3.458  14.260  0.3357 -0.2661  0.2965
13849TIP3    H163038   2.041   3.417  14.218 -0.8963  0.6834  1.4660
13849TIP3    H263039   2.191   3.435  14.204 -0.7376 -1.5979 -0.6618
13850TIP3   OH263040   0.188   0.966  14.263  0.0032  0.2153 -0.1486
13850TIP3    H163041   0.149   0.974  14.176 -2.2420 -1.9440  0.5393
13850TIP3    H263042   0.258   0.901  14.252 -0.1765  0.0607 -0.3834
13851TIP3   OH263043   2.464   3.192  17.050 -0.3111 -0.7552 -0.0113
13851TIP3    H163044   2.389   3.141  17.018  1.3099 -1.2467 -3.4590
13851TIP3    H263045   2.527   3.126  17.081 -0.1969 -0.5016  0.3041
13852TIP3   OH263046   3.781   3.537  10.527  0.4282 -0.5417  0.1559
13852TIP3    H163047   3.744   3.625  10.535  1.1690  0.1608 -2.9150
13852TIP3    H263048   3.706   3.479  10.543 -0.3645  0.6689  1.0152
13853TIP3   OH263049   2.977   2.084  16.725 -0.5613  0.2268 -0.0826
13853TIP3    H163050   2.991   1.999  16.767 -1.7642  0.4407  0.8093
13853TIP3    H263051   2.917   2.066  16.653 -0.9962  0.3510  0.2468
13854TIP3   OH263052   1.666   3.130  12.851  0.3991 -0.3197  0.1019
13854TIP3    H163053   1.742   3.135  12.909  1.4150 -2.2040 -0.9692
13854TIP3    H263054   1.601   3.081  12.902  0.8829 -1.0073  0.0781
13855TIP3   OH263055   3.133   6.082   2.439  0.4512 -0.8772 -0.2088
13855TIP3    H163056   3.143   6.172   2.409 -0.6986 -1.3879 -2.3273
13855TIP3    H263057   3.039   6.072   2.455  0.7383 -1.3307  1.3950
13856TIP3   OH263058   5.480   0.523   4.045 -0.1653  0.4261  0.3865
13856TIP3    H163059   5.532   0.513   4.125  0.4985  1.2042  0.0736
13856TIP3    H263060   5.477   0.435   4.007  0.8808  0.3475  0.4550
13857TIP3   OH263061   2.929   0.074   6.276  0.1977  0.1243  0.1661
13857TIP3    H163062   2.994   0.098   6.343  0.7920 -0.5250 -0.1634
13857TIP3    H263063   2.859   0.031   6.325 -1.4130  3.2924  0.9415
13858TIP3   OH263064   0.185   5.478   0.067 -0.6234 -0.0381 -0.9866
13858TIP3    H163065   0.141   5.551   0.111 -2.4921 -2.3122  1.2297
13858TIP3    H263066   0.266   5.516   0.034 -1.6529  3.1056 -0.2860
13859TIP3   OH263067   0.774   2.527  12.079  0.0296 -0.3071 -0.2681
13859TIP3    H163068   0.826   2.547  12.157 -0.8929  0.0210  0.2804
13859TIP3    H263069   0.704   2.593  12.080 -2.9970 -3.2256  1.4734
13860TIP3   OH263070   2.992   0.504   1.695  0.2712 -0.4238  0.2379
13860TIP3    H163071   2.943   0.529   1.617  0.5754  0.5035  0.3351
13860TIP3    H263072   3.081   0.488   1.662  0.4941  0.3493  0.4411
13861TIP3   OH263073   0.229   0.133  15.574 -0.2080 -0.8324  0.2144
13861TIP3    H163074   0.320   0.109  15.592 -0.6226 -2.3350  0.4783
13861TIP3    H263075   0.178   0.056  15.601 -1.4886 -0.3331 -0.6748
13862TIP3   OH263076   4.718   5.575   3.040 -0.5098 -0.4681  0.1675
13862TIP3    H163077   4.772   5.537   2.970 -0.3530 -1.4881  0.8116
13862TIP3    H263078   4.777   5.579   3.115 -0.5074  1.1721  0.1011
13863TIP3   OH263079   2.639   3.877  12.926 -0.5082  0.1047 -0.1127
13863TIP3    H163080   2.545   3.860  12.917 -0.6018  0.8659 -0.6609
13863TIP3    H263081   2.681   3.808  12.875 -0.8105  0.3062 -0.6389
13864TIP3   OH263082   4.984   4.974   5.201 -0.5497 -0.0386 -0.1496
13864TIP3    H163083   4.994   4.888   5.240 -1.9599 -0.8056 -1.3739
13864TIP3    H263084   4.902   5.008   5.237 -0.0371  0.7802  0.2770
13865TIP3   OH263085   1.975   3.890  12.195 -1.1332 -0.8895  0.3033
13865TIP3    H163086   1.949   3.889  12.287 -0.6945  0.2327  0.4545
13865TIP3    H263087   2.060   3.847  12.193 -0.7841 -0.2210  0.5474
13866TIP3   OH263088   4.451   2.927   3.144 -0.2498  0.0784  0.2320
13866TIP3    H163089   4.375   2.872   3.167  0.5483 -0.6616  1.1799
13866TIP3    H263090   4.412   3.006   3.105 -1.3887 -2.2159 -3.8206
13867TIP3   OH263091   1.808   2.257  15.818  0.1481  0.3336 -0.2732
13867TIP3    H163092   1.873   2.319  15.851 -0.3648  0.3398  0.7521
13867TIP3    H263093   1.732   2.268  15.875  0.5331 -2.2279  0.8770
13868TIP3   OH263094   4.931   1.921   1.208 -0.3122  0.2930  0.2946
13868TIP3    H163095   4.983   1.845   1.184  0.3152  0.0610  2.2275
13868TIP3    H263096   4.847   1.885   1.236  0.1704  0.1993  1.7409
13869TIP3   OH263097   4.208   6.429   3.705  0.2585 -0.4212  0.4499
13869TIP3    H163098   4.117   6.455   3.716  0.4448  1.0162 -0.9980
13869TIP3    H263099   4.211   6.388   3.619  1.4119  2.1435 -0.8613
13870TIP3   OH263100   5.545   5.392  15.922 -0.0455 -0.4905 -0.5420
13870TIP3    H163101   5.587   5.352  15.998  0.6064  1.5853  0.2512
13870TIP3    H263102   5.462   5.426  15.956  0.5614  1.0638 -0.5417
13871TIP3   OH263103   4.608   3.202  14.559  0.3087 -0.0741  0.3820
13871TIP3    H163104   4.602   3.107  14.563 -0.2210 -0.0492  0.2016
13871TIP3    H263105   4.614   3.222  14.465  0.5856  0.0647  0.4263
13872TIP3   OH263106   6.817   2.830   2.331 -0.4325 -0.4445 -0.4114
13872TIP3    H163107   6.899   2.782   2.316  0.2308  0.2638  0.7744
13872TIP3    H263108   6.820   2.854   2.424 -0.6545  1.9924 -0.9551
13873TIP3   OH263109   0.733   4.512   3.933  0.1752 -0.2357 -0.0327
13873TIP3    H163110   0.815   4.555   3.910 -0.1607  0.1117 -0.6091
13873TIP3    H263111   0.675   4.584   3.958  0.3247 -0.5475  1.3107
13874TIP3   OH263112   5.739   2.679   0.918 -0.3393  0.0284  0.1738
13874TIP3    H163113   5.667   2.736   0.891 -0.1931 -0.4156 -1.1869
13874TIP3    H263114   5.730   2.601   0.864  1.7057  0.3434 -0.6853
13875TIP3   OH263115   5.645   3.166   5.951 -0.1427  0.4094 -0.5795
13875TIP3    H163116   5.631   3.258   5.974  0.1556  0.4896 -0.7084
13875TIP3    H263117   5.677   3.169   5.861 -1.8110  0.0697 -1.2303
13876TIP3   OH263118   3.813   3.807   3.558 -0.0413 -0.0967 -0.0325
13876TIP3    H163119   3.866   3.773   3.486 -0.4855 -0.3143 -0.2642
13876TIP3    H263120   3.875   3.823   3.628  0.5553  1.0604 -0.7931
13877TIP3   OH263121   4.764   0.907   5.993 -0.5975 -0.6909  0.0944
13877TIP3    H163122   4.796   0.939   6.077 -0.3772 -0.2596 -0.1453
13877TIP3    H263123   4.817   0.955   5.928  0.4429 -2.2663 -0.2764
13878TIP3   OH263124   3.226   1.562   3.419 -0.8222  0.2917 -0.0101
13878TIP3    H163125   3.151   1.543   3.362  0.6189 -2.5313 -1.1600
13878TIP3    H263126   3.200   1.528   3.505 -0.5545 -1.5750 -0.6356
13879TIP3   OH263127   0.182   2.837   4.527 -0.2288  0.4211  0.0010
13879TIP3    H163128   0.232   2.905   4.572 -0.9224 -0.5062  2.3074
13879TIP3    H263129   0.245   2.767   4.511 -0.4131 -0.2144  1.7553
13880TIP3   OH263130   5.053   1.209  11.108  0.6985 -0.1790  0.0080
13880TIP3    H163131   5.141   1.187  11.077  0.8142  0.6708 -0.3056
13880TIP3    H263132   5.064   1.292  11.154 -0.3335  1.4085 -2.4034
13881TIP3   OH263133   5.503   1.641   3.567 -0.5534 -0.0942 -0.1387
13881TIP3    H163134   5.484   1.707   3.501  0.4083 -0.5723 -0.9191
13881TIP3    H263135   5.599   1.635   3.568 -0.5553 -0.1902  1.2134
13882TIP3   OH263136   3.326   5.033  13.454 -1.5581  0.0262  0.0153
13882TIP3    H163137   3.327   5.088  13.375  0.9529  0.6726  0.4166
13882TIP3    H263138   3.235   5.007  13.463 -2.3360  1.7872 -1.8232
13883TIP3   OH263139   3.832   3.373   2.833 -0.4341  0.2018 -0.1669
13883TIP3    H163140   3.843   3.456   2.880  3.0701  0.2075 -0.7746
13883TIP3    H263141   3.883   3.310   2.882 -0.2498 -0.7990 -1.5776
13884TIP3   OH263142   4.236   5.135   3.475 -0.4698 -0.6914 -0.3493
13884TIP3    H163143   4.195   5.180   3.549 -1.0102  0.6776 -1.4497
13884TIP3    H263144   4.183   5.055   3.465  0.2882 -1.4726  1.3934
13885TIP3   OH263145   2.063   4.201   1.804 -0.2586 -0.4364  0.1570
13885TIP3    H163146   2.068   4.121   1.855 -1.1497 -0.2568  0.5398
13885TIP3    H263147   2.071   4.271   1.868  0.1004 -0.2169 -0.1259
13886TIP3   OH263148   2.295   4.767  15.040  0.1249  0.1036  0.2412
13886TIP3    H163149   2.369   4.761  14.979  1.2202 -0.3540  1.5517
13886TIP3    H263150   2.297   4.684  15.088  0.0641  0.9334  1.7262
13887TIP3   OH263151   6.554   3.275   2.705  0.5508  0.2427 -0.0199
13887TIP3    H163152   6.599   3.194   2.729 -1.1332 -0.2210  1.7710
13887TIP3    H263153   6.479   3.246   2.653 -0.5178  0.5312  1.3022
13888TIP3   OH263154   4.003   2.795   1.847 -0.0489  0.0959 -0.2288
13888TIP3    H163155   4.020   2.708   1.812 -2.0895 -1.1144  1.6138
13888TIP3    H263156   4.074   2.810   1.910  0.9364  0.3087 -1.3394
13889TIP3   OH263157   3.260   4.416   4.425 -0.5918  0.1356  0.5865
13889TIP3    H163158   3.292   4.494   4.379 -1.0752 -0.9199 -1.6696
13889TIP3    H263159   3.335   4.356   4.424 -0.7975 -0.1201  0.6047
13890TIP3   OH263160   6.617   0.787   2.042  0.2281  0.2673 -0.5905
13890TIP3    H163161   6.675   0.730   2.092  0.8706  0.2597 -1.3285
13890TIP3    H263162   6.529   0.756   2.064  0.4741  0.3745  0.6502
13891TIP3   OH263163   3.131   4.418  12.030  0.0497 -0.3680  0.7880
13891TIP3    H163164   3.109   4.447  12.118 -2.7755  1.9666 -0.5008
13891TIP3    H263165   3.158   4.497  11.984  1.4831 -1.5293 -0.4938
13892TIP3   OH263166   0.854   2.401  16.363 -0.4557 -0.4002 -0.0824
13892TIP3    H163167   0.909   2.353  16.425  0.2438  0.0265 -0.3568
13892TIP3    H263168   0.911   2.470  16.328 -1.3684  0.5021  0.1491
13893TIP3   OH263169   2.952   5.639  12.825  0.0491 -0.5398 -0.5250
13893TIP3    H163170   3.024   5.668  12.768  0.0223 -0.8951 -0.7420
13893TIP3    H263171   2.962   5.691  12.904  1.2516 -1.4034 -0.0811
13894TIP3   OH263172   2.797   3.887  15.613  0.0941  0.6602  0.5734
13894TIP3    H163173   2.774   3.828  15.541 -0.5092  1.0811  0.4193
13894TIP3    H263174   2.814   3.829  15.687 -0.7314  0.3031  0.4877
13895TIP3   OH263175   6.501   4.872  14.139 -0.3351 -0.2655  0.0617
13895TIP3    H163176   6.582   4.883  14.088  0.9059 -0.6524  1.8412
13895TIP3    H263177   6.525   4.810  14.208 -1.3891  1.5283  2.1754
13896TIP3   OH263178   5.184   6.591  12.257 -0.2211  0.2243  0.0394
13896TIP3    H163179   5.183   6.549  12.171 -0.3535  0.7767 -0.2297
13896TIP3    H263180   5.265   6.561  12.298 -1.1163 -1.6731  0.5381
13897TIP3   OH263181   4.460   6.528  12.301  0.0897 -0.0501 -0.2472
13897TIP3    H163182   4.413   6.578  12.368  0.1593  0.0222 -0.2526
13897TIP3    H263183   4.505   6.594  12.249 -0.2688 -0.0815 -0.6008
13898TIP3   OH263184   3.018   1.284  17.208 -0.2154  0.4149 -0.1163
13898TIP3    H163185   3.064   1.327  17.137 -0.6880  2.3576  0.6841
13898TIP3    H263186   3.045   1.332  17.287 -0.0002 -1.4201  0.9921
13899TIP3   OH263187   5.700   4.880  14.361 -0.7369  0.0241 -0.4141
13899TIP3    H163188   5.784   4.861  14.319 -0.5963  2.6525 -1.5463
13899TIP3    H263189   5.666   4.795  14.387  1.5722 -1.2531 -1.2910
13900TIP3   OH263190   4.656   6.583   0.004 -0.2166 -0.0945 -0.8181
13900TIP3    H163191   4.635   6.642   0.075 -0.5420 -0.1299 -0.8855
13900TIP3    H263192   4.701   6.509   0.046  0.1526  0.1756 -0.7299
13901TIP3   OH263193   2.422   4.811   2.856  0.4871 -0.3289  0.6655
13901TIP3    H163194   2.422   4.890   2.910  0.6010  0.6310 -0.6864
13901TIP3    H263195   2.514   4.796   2.835  0.5873 -1.4802  1.7968
13902TIP3   OH263196   0.383   3.844  11.319  0.1438  0.6119  0.4904
13902TIP3    H163197   0.339   3.815  11.399 -1.1180 -1.2820 -0.7695
13902TIP3    H263198   0.476   3.840  11.339  0.1200 -3.8119  0.8441
13903TIP3   OH263199   0.425   4.479   2.589 -0.0022  0.7756  0.4095
13903TIP3    H163200   0.439   4.424   2.666 -0.7526  0.4702  0.3423
13903TIP3    H263201   0.354   4.538   2.614 -1.1332 -0.1566 -0.4355
13904TIP3   OH263202   2.555   0.122   3.277 -0.5496 -0.5601  0.5580
13904TIP3    H163203   2.513   0.190   3.330 -1.4471 -0.2206 -0.5457
13904TIP3    H263204   2.483   0.076   3.235 -0.0666  2.5584 -4.5707
13905TIP3   OH263205   0.213   2.473  14.347  0.0241  0.4178  0.3881
13905TIP3    H163206   0.286   2.414  14.329  1.3067  1.7689  0.8909
13905TIP3    H263207   0.222   2.495  14.440  0.4659  2.4465 -0.0790
13906TIP3   OH263208   0.358   3.520   5.129 -0.1389  0.2194  0.6522
13906TIP3    H163209   0.393   3.433   5.145  1.0349  0.6863  0.7114
13906TIP3    H263210   0.371   3.535   5.035  1.1714  0.9469  0.9259
13907TIP3   OH263211   4.189   0.757  15.130 -0.0002  0.4371  0.3250
13907TIP3    H163212   4.146   0.718  15.053  2.2993 -0.6310 -0.5157
13907TIP3    H263213   4.170   0.850  15.123 -1.2316  0.1452 -0.5994
13908TIP3   OH263214   5.357   1.331   4.449  0.3818  0.3022 -0.2261
13908TIP3    H163215   5.412   1.379   4.387 -0.3595  3.7651  1.5532
13908TIP3    H263216   5.392   1.355   4.535 -2.1271  0.3712  0.8491
13909TIP3   OH263217   1.585   4.314  12.260 -0.7694  0.5329  0.5263
13909TIP3    H163218   1.650   4.246  12.240 -0.7811  1.0344 -1.4420
13909TIP3    H263219   1.510   4.292  12.205 -1.0401  1.7293  0.3868
13910TIP3   OH263220   1.633   4.853  13.483  0.7305 -0.2386 -0.2665
13910TIP3    H163221   1.728   4.862  13.492  0.7218 -0.0630 -0.3522
13910TIP3    H263222   1.599   4.871  13.571  0.6814  1.0289 -0.5171
13911TIP3   OH263223   2.802   6.238   2.202  1.0695 -0.0005 -0.5807
13911TIP3    H163224   2.784   6.173   2.134 -0.9855 -1.8118  1.5154
13911TIP3    H263225   2.753   6.315   2.176 -2.0349 -1.5847  0.0443
13912TIP3   OH263226   0.434   0.799   1.510 -0.1405 -0.2919  0.0562
13912TIP3    H163227   0.520   0.784   1.471  0.0816 -1.7119  1.0310
13912TIP3    H263228   0.373   0.750   1.455 -0.2834  0.3475 -0.3699
13913TIP3   OH263229   2.004   5.863  12.282 -0.2006  0.4269 -0.1272
13913TIP3    H163230   2.066   5.894  12.348 -0.9441  0.1597  0.7317
13913TIP3    H263231   1.960   5.790  12.325  0.3193 -0.7089 -1.4795
13914TIP3   OH263232   6.376   1.997   1.730  0.1938 -0.2220 -0.3879
13914TIP3    H163233   6.402   1.909   1.705  0.3292 -0.6655  1.2202
13914TIP3    H263234   6.283   1.990   1.751  0.6606 -0.4858  1.7653
13915TIP3   OH263235   4.027   4.715  14.847  0.3036 -0.2268 -0.9449
13915TIP3    H163236   4.073   4.745  14.926 -0.0605  0.2982 -0.9235
13915TIP3    H263237   4.097   4.699  14.783  0.5693 -0.2148 -0.6606
13916TIP3   OH263238   3.957   5.078   5.551  0.3318 -0.1610 -0.0144
13916TIP3    H163239   3.901   5.002   5.536 -1.5019  0.5199  2.5236
13916TIP3    H263240   3.993   5.063   5.639 -0.1607  1.9101  0.5843
13917TIP3   OH263241   6.199   4.341   6.465 -0.3022 -0.0116 -0.3711
13917TIP3    H163242   6.148   4.265   6.495  1.6029 -1.1663  0.1009
13917TIP3    H263243   6.178   4.410   6.528 -0.3507 -0.8422  0.5528
13918TIP3   OH263244   5.554   0.274   3.814 -0.0345 -0.7838 -0.1724
13918TIP3    H163245   5.639   0.318   3.820 -0.5928  0.3245 -0.1470
13918TIP3    H263246   5.564   0.195   3.866  0.3061  0.4621  1.7687
13919TIP3   OH263247   6.638   4.922  16.332  0.3712 -0.2326  0.2927
13919TIP3    H163248   6.731   4.900  16.331  0.3557 -0.4148  1.5688
13919TIP3    H263249   6.635   5.008  16.375 -0.0445 -0.1865  0.1721
13920TIP3   OH263250   1.687   5.084   2.475  0.0362  0.3458 -0.6633
13920TIP3    H163251   1.615   5.022   2.482 -0.7275  1.3422  0.7058
13920TIP3    H263252   1.645   5.170   2.475  1.2743  1.0450  2.1247
13921TIP3   OH263253   4.741   2.535  16.476  0.3024 -0.5888 -0.2877
13921TIP3    H163254   4.670   2.522  16.414  2.0867 -0.2820 -2.5277
13921TIP3    H263255   4.817   2.556  16.422  2.0770 -0.6851  1.9933
13922TIP3   OH263256   1.494   1.686   3.818  0.4789 -0.1518  0.2715
13922TIP3    H163257   1.426   1.636   3.773  0.4543  0.1884 -0.0671
13922TIP3    H263258   1.450   1.720   3.897  0.2197  0.1714 -0.0101
13923TIP3   OH263259   0.704   6.453   6.835 -0.0997 -0.2019 -0.3528
13923TIP3    H163260   0.644   6.425   6.904  0.9910  0.4992  0.9220
13923TIP3    H263261   0.648   6.467   6.759 -1.1862 -2.1791  0.0060
13924TIP3   OH263262   5.648   0.014   3.967 -0.0745 -0.4314 -0.5463
13924TIP3    H163263   5.692   0.055   4.041 -1.0240  1.9010 -1.1831
13924TIP3    H263264   5.712  -0.048   3.932  1.9211  1.2919 -0.1392
13925TIP3   OH263265   3.695   4.019   5.962 -0.1405  0.9450 -0.0333
13925TIP3    H163266   3.653   3.977   6.037 -2.3066  0.2934 -1.4908
13925TIP3    H263267   3.759   3.955   5.931  1.2280  1.4744  1.5609
13926TIP3   OH263268   4.899   3.855  10.888 -0.1036 -0.1352 -0.2866
13926TIP3    H163269   4.837   3.921  10.856 -0.6593 -1.1013 -1.2837
13926TIP3    H263270   4.907   3.793  10.816 -0.5428 -1.8247  1.0468
13927TIP3   OH263271   1.316   3.543   0.126  0.4603 -0.3771  0.2180
13927TIP3    H163272   1.313   3.510   0.036  2.1681  0.4562 -0.1859
13927TIP3    H263273   1.235   3.594   0.135  2.2595  3.4599 -2.5458
13928TIP3   OH263274   1.136   1.135  10.568 -0.8396 -0.2944  0.0233
13928TIP3    H163275   1.194   1.084  10.511  0.0318 -0.4171  0.9885
13928TIP3    H263276   1.161   1.226  10.551  1.1742 -0.3977  1.9249
13929TIP3   OH263277   4.119   1.226   3.204  0.2389  0.2511 -0.5246
13929TIP3    H163278   4.084   1.186   3.283  1.2131 -1.0397 -0.7233
13929TIP3    H263279   4.062   1.194   3.134 -0.2507  0.9030 -0.4304
13930TIP3   OH263280   0.364   4.671   2.933 -0.1593  0.0719  0.0947
13930TIP3    H163281   0.315   4.589   2.939  0.1352 -0.3475 -2.2338
13930TIP3    H263282   0.347   4.703   2.844 -1.8350  3.6087  1.5126
13931TIP3   OH263283   5.260   1.491   4.039  0.1973  0.4303 -0.3637
13931TIP3    H163284   5.304   1.545   3.973  1.3845  0.1848  0.2070
13931TIP3    H263285   5.268   1.542   4.120 -0.1693  0.1632 -0.1568
13932TIP3   OH263286   6.085   5.359  16.843  0.0262  0.1699 -0.2264
13932TIP3    H163287   6.133   5.335  16.764 -0.2362 -0.4608 -0.1959
13932TIP3    H263288   6.073   5.277  16.891  0.3114  0.5640  0.5446
13933TIP3   OH263289   2.912   1.618  13.370 -0.3620  0.2209  0.6509
13933TIP3    H163290   2.902   1.661  13.455  0.3784 -0.5555  1.1463
13933TIP3    H263291   2.930   1.527  13.391  3.5752  0.6386 -0.1740
13934TIP3   OH263292   0.943   6.657   0.089  0.4157 -0.2309  0.3141
13934TIP3    H163293   0.950   6.726   0.023 -1.4407 -0.5778 -0.3169
13934TIP3    H263294   0.904   6.700   0.165  0.7128 -0.2510  0.4770
13935TIP3   OH263295   2.992   6.339   4.209  0.1087  0.5000 -0.8197
13935TIP3    H163296   2.908   6.296   4.220  0.3165  0.0654 -0.9246
13935TIP3    H263297   3.032   6.336   4.296  0.2362  0.2407 -0.8862
13936TIP3   OH263298   4.766   4.888  12.951  0.2839 -0.6784 -0.6037
13936TIP3    H163299   4.832   4.819  12.950 -0.6488 -1.5964 -0.6639
13936TIP3    H263300   4.766   4.920  13.041 -0.6814 -2.1759 -0.0392
13937TIP3   OH263301   6.055   6.507   2.170  0.3376  0.0335 -0.2101
13937TIP3    H163302   5.981   6.559   2.201  1.6158  1.2599  0.9389
13937TIP3    H263303   6.130   6.543   2.217  1.5905 -1.5081 -0.9595
13938TIP3   OH263304   2.891   5.148  17.102  0.1658 -0.1369  0.0567
13938TIP3    H163305   2.809   5.116  17.063  0.3261 -0.8187  0.2598
13938TIP3    H263306   2.955   5.079  17.083  0.9644  0.8402 -1.0020
13939TIP3   OH263307   3.541   2.598   1.986 -0.5854 -0.5399  0.4889
13939TIP3    H163308   3.503   2.510   1.989 -2.3830  0.1530 -0.3711
13939TIP3    H263309   3.537   2.622   1.893  0.9747  0.0294  0.5384
13940TIP3   OH263310   4.979   0.216  12.307 -0.0685  0.2547  0.1471
13940TIP3    H163311   4.885   0.226  12.328  0.0428  1.3346  0.2257
13940TIP3    H263312   4.989   0.124  12.284 -1.0868  0.0425  0.4797
13941TIP3   OH263313   1.843   4.508   4.541 -0.2065 -0.8210  0.5039
13941TIP3    H163314   1.924   4.472   4.506  0.7238  0.1131  1.6327
13941TIP3    H263315   1.774   4.470   4.486  0.9877 -1.5692 -0.5173
13942TIP3   OH263316   4.995   5.957  16.034  0.1841 -0.3434  0.3071
13942TIP3    H163317   4.984   6.038  15.984  0.6696 -1.5045 -1.8071
13942TIP3    H263318   4.924   5.900  16.004  0.1702 -0.8990  1.3595
13943TIP3   OH263319   3.727   1.607  14.999  0.1040  0.3552 -0.4385
13943TIP3    H163320   3.755   1.696  14.976  0.0069  0.4717 -0.1180
13943TIP3    H263321   3.677   1.577  14.923 -2.0762  1.5398  0.4159
13944TIP3   OH263322   2.977   2.372  16.721  0.0989  0.5962  0.1689
13944TIP3    H163323   2.977   2.277  16.733  0.3325  0.6187  0.3785
13944TIP3    H263324   2.997   2.385  16.629  0.0864  0.4399  0.1430
13945TIP3   OH263325   4.938   3.032  11.559 -0.5017 -0.3559  0.3107
13945TIP3    H163326   4.854   3.074  11.542  1.4141  3.9158 -0.0567
13945TIP3    H263327   4.923   2.980  11.638 -3.3869  0.5145  0.4710
13946TIP3   OH263328   3.016   4.664  17.018 -0.5690  1.1848 -0.3171
13946TIP3    H163329   2.999   4.577  16.980 -1.4043  1.5989 -0.9087
13946TIP3    H263330   2.930   4.706  17.021 -0.1472  2.0479 -0.1592
13947TIP3   OH263331   0.414   1.558  13.015  0.5463 -0.0639 -0.1443
13947TIP3    H163332   0.351   1.626  13.038 -0.5324 -1.0996  0.1288
13947TIP3    H263333   0.408   1.551  12.920  1.2726  0.7728 -0.2597
13948TIP3   OH263334   2.294   5.414   3.902  0.0966 -0.4358 -0.5266
13948TIP3    H163335   2.379   5.458   3.899  0.6061 -1.4345 -1.1444
13948TIP3    H263336   2.241   5.460   3.837 -0.3674  1.1917  0.9213
13949TIP3   OH263337   0.166   1.737  17.103  0.0970  0.0774 -0.3619
13949TIP3    H163338   0.104   1.803  17.134 -1.0536 -1.1861  0.1541
13949TIP3    H263339   0.120   1.693  17.032  1.2394  0.4490 -1.3757
13950TIP3   OH263340   4.607   3.465   2.268 -0.0703  0.0824  0.4426
13950TIP3    H163341   4.520   3.429   2.287 -0.0984  0.3157  0.7789
13950TIP3    H263342   4.661   3.439   2.343  0.0807  0.1658  0.3642
13951TIP3   OH263343   0.352   5.503   4.594 -0.1288 -0.1357 -0.0234
13951TIP3    H163344   0.365   5.499   4.689 -0.1634 -0.3261 -0.0258
13951TIP3    H263345   0.381   5.591   4.569 -0.4756  0.0448  0.2146
13952TIP3   OH263346   0.360   4.776   5.675  0.3632 -0.0153  0.3393
13952TIP3    H163347   0.366   4.719   5.598  1.7651 -0.8339  1.0046
13952TIP3    H263348   0.430   4.745   5.733 -0.9608  0.2712  2.1629
13953TIP3   OH263349   2.837   3.244  13.379 -0.5035 -0.4042 -0.0688
13953TIP3    H163350   2.859   3.308  13.447 -0.2995 -1.1513  0.5823
13953TIP3    H263351   2.917   3.195  13.365 -0.7135 -0.6485 -0.4302
13954TIP3   OH263352   0.925   4.325  13.504 -0.0529 -0.1046 -0.6707
13954TIP3    H163353   1.012   4.290  13.518 -0.4489 -0.0683  2.5940
13954TIP3    H263354   0.928   4.413  13.542 -2.0479 -0.9315  1.5837
13955TIP3   OH263355   3.438   5.987  16.022 -0.2749  0.5534 -0.7469
13955TIP3    H163356   3.510   5.955  16.077 -0.6160 -0.8903 -1.1053
13955TIP3    H263357   3.463   6.077  16.002 -0.3653  1.3367  2.1409
13956TIP3   OH263358   6.337   3.755   4.332  0.4258  0.5363 -0.7532
13956TIP3    H163359   6.381   3.764   4.416 -0.8958  0.6810 -0.0542
13956TIP3    H263360   6.366   3.831   4.281  4.3245 -1.4660 -1.9860
13957TIP3   OH263361   3.642   1.933  11.751  0.3399 -0.4241  0.0862
13957TIP3    H163362   3.616   1.996  11.818  0.7708 -0.3409  0.1795
13957TIP3    H263363   3.734   1.914  11.770  0.3917 -0.5967 -0.3230
13958TIP3   OH263364   0.692   4.252   2.987  0.5537 -0.2788 -0.3429
13958TIP3    H163365   0.733   4.166   3.000  1.6094  0.1435 -0.7906
13958TIP3    H263366   0.718   4.303   3.064 -1.6388 -0.9084  0.8938
13959TIP3   OH263367   4.890   1.227  15.953  0.0062 -0.3488  0.3479
13959TIP3    H163368   4.979   1.205  15.980  1.0501  0.2464 -2.2311
13959TIP3    H263369   4.896   1.319  15.924 -1.9533  0.3542  1.9346
13960TIP3   OH263370   2.215   3.138  13.788  0.1089 -0.1800  0.2072
13960TIP3    H163371   2.172   3.053  13.778 -1.8457  0.8872 -1.2600
13960TIP3    H263372   2.161   3.186  13.850 -1.1784  1.3027 -1.9037
13961TIP3   OH263373   1.433   5.293  12.051 -0.5777  0.2328 -0.1576
13961TIP3    H163374   1.422   5.386  12.070 -0.0979  0.3090 -0.2414
13961TIP3    H263375   1.387   5.249  12.122 -3.5712  0.5127 -1.7547
13962TIP3   OH263376   0.634   1.267   0.889 -0.2071  0.2787 -0.0534
13962TIP3    H163377   0.545   1.274   0.923  0.2658 -1.9687  1.9398
13962TIP3    H263378   0.647   1.173   0.875  1.4099  0.6840 -1.6531
13963TIP3   OH263379   4.753   4.747   5.931 -0.1714  0.2320 -0.3998
13963TIP3    H163380   4.724   4.734   6.022  2.9032 -0.8008  0.5622
13963TIP3    H263381   4.781   4.839   5.928 -0.3752  0.2970 -0.3526
13964TIP3   OH263382   0.029   1.824  16.858 -0.7529 -0.3947 -0.0187
13964TIP3    H163383  -0.055   1.861  16.885 -0.9474  0.0163 -1.1543
13964TIP3    H263384   0.094   1.888  16.889 -0.9693  0.0572 -0.4885
13965TIP3   OH263385   6.103   2.732  12.375  0.7851  0.5020  0.4387
13965TIP3    H163386   6.050   2.797  12.421 -0.9636 -1.2085  0.9873
13965TIP3    H263387   6.119   2.664  12.440 -0.9011 -1.5069 -1.1455
13966TIP3   OH263388   1.212   2.119   3.847 -0.3293 -0.1643 -0.7454
13966TIP3    H163389   1.231   2.195   3.902  0.2764 -0.3417 -0.7096
13966TIP3    H263390   1.286   2.113   3.787 -0.9879  0.0431 -1.6151
13967TIP3   OH263391   3.650   5.070  16.977 -0.2373 -0.2752 -0.2288
13967TIP3    H163392   3.591   5.072  16.902  0.1839 -0.7236 -0.5841
13967TIP3    H263393   3.612   5.005  17.036  0.9258 -2.0770 -1.3615
13968TIP3   OH263394   3.170   4.999   0.986  0.1332  0.0223  0.0348
13968TIP3    H163395   3.108   5.023   1.055  1.0680 -0.8809  1.2430
13968TIP3    H263396   3.214   5.081   0.964 -1.5143  0.7026 -0.9242
13969TIP3   OH263397   2.931   4.272  14.971  0.4340  1.3827 -0.5068
13969TIP3    H163398   2.899   4.254  14.882 -2.0961 -0.5200  0.6655
13969TIP3    H263399   2.866   4.331  15.009 -0.9017 -1.0873  1.3415
13970TIP3   OH263400   2.539   2.668  11.592 -0.6363  0.2785 -0.5171
13970TIP3    H163401   2.464   2.636  11.643  0.4050 -1.0956  0.2378
13970TIP3    H263402   2.502   2.694  11.508 -1.9414 -0.5719 -0.2409
13971TIP3   OH263403   5.673   6.744  15.135  0.0385 -0.0820  0.3161
13971TIP3    H163404   5.686   6.789  15.052 -0.9382  2.4814  1.4222
13971TIP3    H263405   5.636   6.659  15.112  1.1785 -0.0389 -1.8854
13972TIP3   OH263406   3.368   5.088  12.101  0.5427 -0.0318  0.5059
13972TIP3    H163407   3.454   5.061  12.068  0.8002  0.2637  0.9267
13972TIP3    H263408   3.384   5.111  12.193  0.0017 -0.0297  0.6009
13973TIP3   OH263409   1.048   2.495  13.271 -0.2496 -0.4679  0.4033
13973TIP3    H163410   1.015   2.409  13.297  0.4294 -1.0399 -0.5558
13973TIP3    H263411   1.103   2.478  13.195  0.0190  0.8051  0.2813
13974TIP3   OH263412   0.231   2.551   5.933 -0.5674  0.1506 -0.4099
13974TIP3    H163413   0.159   2.488   5.938  1.8238 -2.8028 -0.3082
13974TIP3    H263414   0.234   2.578   5.842  1.1430 -3.6964 -1.7115
13975TIP3   OH263415   2.190   6.231  10.688 -0.4813 -0.3467 -0.4552
13975TIP3    H163416   2.243   6.259  10.613  0.9204  1.1886  1.0344
13975TIP3    H263417   2.231   6.149  10.716  0.1578  0.0186 -0.2812
13976TIP3   OH263418   4.637   4.734  15.189 -0.4013 -0.3325  0.8268
13976TIP3    H163419   4.685   4.763  15.111 -1.9762 -0.4478 -0.2464
13976TIP3    H263420   4.596   4.814  15.223 -0.3217 -0.4058  1.0926
13977TIP3   OH263421   1.302   4.504  12.712 -0.6859  0.1951  0.2114
13977TIP3    H163422   1.277   4.445  12.641  0.4025 -1.2093  0.9460
13977TIP3    H263423   1.276   4.591  12.680  2.2659  0.0807 -3.2518
13978TIP3   OH263424   4.985   3.386   1.846  0.0608  0.1440 -0.2671
13978TIP3    H163425   5.047   3.373   1.774 -0.5857  1.2438 -1.0618
13978TIP3    H263426   4.901   3.357   1.811  0.1723 -1.9428  1.0174
13979TIP3   OH263427   4.781   6.318  14.820 -0.1070 -0.8574 -0.2490
13979TIP3    H163428   4.853   6.256  14.835  0.0934 -0.3736  0.8987
13979TIP3    H263429   4.813   6.401  14.856 -1.2885 -0.6593  0.3946
13980TIP3   OH263430   4.699   0.832  13.914  0.2430  0.9198 -0.4038
13980TIP3    H163431   4.690   0.810  14.007 -1.5083  0.8549 -0.5463
13980TIP3    H263432   4.682   0.750  13.868  1.5561  0.8459 -0.8041
13981TIP3   OH263433   5.984   3.046  15.310  0.0644  0.3235  0.0370
13981TIP3    H163434   5.956   2.973  15.254  1.2788  0.8825 -1.3790
13981TIP3    H263435   6.076   3.060  15.286  0.7944  0.2904  2.5650
13982TIP3   OH263436   5.861   2.142   5.418 -0.4311  0.5659  0.1242
13982TIP3    H163437   5.953   2.150   5.396 -0.4676  1.0022  0.1322
13982TIP3    H263438   5.851   2.189   5.501 -0.1151 -1.7872  1.6014
13983TIP3   OH263439   6.101   5.042   4.045  0.0121  0.3448 -0.1729
13983TIP3    H163440   6.070   5.130   4.069 -0.7313  1.0473 -3.3013
13983TIP3    H263441   6.190   5.056   4.013  0.3003 -0.2654  0.3281
13984TIP3   OH263442   4.623   4.131   3.108 -0.4799 -0.3755 -0.9154
13984TIP3    H163443   4.592   4.212   3.065 -1.4200 -0.5404 -0.5715
13984TIP3    H263444   4.549   4.103   3.162  0.1850 -0.9546 -0.2887
13985TIP3   OH263445   3.790   3.566  15.800  0.0624 -0.2906  0.2401
13985TIP3    H163446   3.710   3.615  15.818 -0.4393 -0.4728 -1.3044
13985TIP3    H263447   3.853   3.631  15.770 -0.4832 -0.4829 -1.4377
13986TIP3   OH263448   3.973   1.860   5.423 -0.0389  0.4013 -0.1156
13986TIP3    H163449   3.952   1.879   5.515  0.8663 -0.1931  0.2253
13986TIP3    H263450   3.888   1.863   5.378 -1.2586 -3.5816  1.4922
13987TIP3   OH263451   3.344   4.547  13.595 -0.8430 -0.2338 -0.4267
13987TIP3    H163452   3.281   4.542  13.666  2.2041  0.3762  2.5416
13987TIP3    H263453   3.381   4.635  13.601 -1.3720  0.3617 -3.7189
13988TIP3   OH263454   5.928   0.492   3.349 -0.0996  0.2184 -0.4717
13988TIP3    H163455   5.945   0.398   3.353  3.2417  0.6579 -0.8801
13988TIP3    H263456   5.901   0.507   3.258 -0.9601 -0.3458 -0.3236
13989TIP3   OH263457   6.789   0.843  13.161  0.2354 -0.2125  0.0944
13989TIP3    H163458   6.811   0.749  13.163 -1.7997 -0.7276  0.5155
13989TIP3    H263459   6.699   0.847  13.192 -0.0229  1.8160 -0.7759
13990TIP3   OH263460   3.107   5.019   4.209 -0.1987  0.2815  0.3805
13990TIP3    H163461   3.155   5.034   4.290  1.5801 -0.0382 -0.5664
13990TIP3    H263462   3.141   4.936   4.176  0.1246  1.0536 -1.3645
13991TIP3   OH263463   1.616   2.370   5.986  0.1895 -0.3287 -0.1551
13991TIP3    H163464   1.696   2.349   6.033  0.3230  0.0411 -0.2101
13991TIP3    H263465   1.622   2.464   5.969 -0.6779 -0.1074  0.6450
13992TIP3   OH263466   4.418   5.714   2.496 -0.2516 -0.2446  0.3727
13992TIP3    H163467   4.398   5.770   2.571 -0.4691 -0.2271  0.3017
13992TIP3    H263468   4.511   5.731   2.477 -0.0433 -0.6553  0.9777
13993TIP3   OH263469   2.582   4.528   1.966 -0.1565  0.3495  0.3279
13993TIP3    H163470   2.563   4.437   1.946 -0.3498  0.7476 -1.4521
13993TIP3    H263471   2.508   4.576   1.930 -0.4723  1.1748  1.9712
13994TIP3   OH263472   1.707   4.584  11.842 -0.2439 -0.9766  0.2600
13994TIP3    H163473   1.743   4.521  11.904 -0.0373 -2.2704 -1.1134
13994TIP3    H263474   1.759   4.571  11.762 -0.9580  0.1408 -0.4092
13995TIP3   OH263475   0.589   2.988   6.321 -0.6815  0.8308  0.6483
13995TIP3    H163476   0.538   3.069   6.326 -3.2567 -0.5496 -0.9902
13995TIP3    H263477   0.612   2.969   6.412 -1.8006  2.3177  1.2888
13996TIP3   OH263478   2.918   5.190  11.934  0.6601  0.1786  0.3721
13996TIP3    H163479   2.956   5.254  11.994 -0.0180  0.7620  0.1946
13996TIP3    H263480   2.953   5.106  11.964  2.3398  0.7028  0.0051
13997TIP3   OH263481   0.702   1.402   1.822  0.0817 -0.2862 -0.1601
13997TIP3    H163482   0.626   1.446   1.784 -0.0472  0.9029  1.3806
13997TIP3    H263483   0.768   1.471   1.831  1.0721 -1.1263 -0.7224
13998TIP3   OH263484   6.786   3.328  14.494  0.5080 -0.1428 -0.4087
13998TIP3    H163485   6.833   3.361  14.571  0.2592 -2.0579  0.6312
13998TIP3    H263486   6.853   3.289  14.440  0.4632 -0.4163 -0.2692
13999TIP3   OH263487   4.928   0.409  14.331  0.1877  0.9709 -0.0435
13999TIP3    H163488   4.851   0.419  14.387 -0.5243 -0.1036 -0.8092
13999TIP3    H263489   4.955   0.318  14.342  0.6790  1.0388 -0.6189
14000TIP3   OH263490   4.743   6.085  11.374 -0.1068 -0.2324 -0.3434
14000TIP3    H163491   4.732   6.093  11.280 -0.0399  1.5761 -0.2270
14000TIP3    H263492   4.804   6.012  11.385 -1.8948 -2.0013 -1.5482
14001TIP3   OH263493   1.314   4.734  12.513  0.0339 -0.4075  0.0302
14001TIP3    H163494   1.361   4.817  12.505  1.3389 -0.8657  2.1187
14001TIP3    H263495   1.290   4.711  12.423  0.4343  1.7599 -0.6909
14002TIP3   OH263496   5.755   4.492  16.721 -0.1212 -0.0683  0.4245
14002TIP3    H163497   5.849   4.474  16.724 -0.3779 -1.4683  0.9152
14002TIP3    H263498   5.740   4.549  16.796  0.5742  1.5643 -0.6158
14003TIP3   OH263499   1.905   0.264   5.852 -0.0733 -0.3480  0.3800
14003TIP3    H163500   1.877   0.186   5.804  1.3045 -0.1891 -0.7631
14003TIP3    H263501   1.852   0.335   5.815  1.8446  0.0048 -1.9830
14004TIP3   OH263502   3.170   0.823   0.453 -0.2752  0.3681 -0.0524
14004TIP3    H163503   3.188   0.882   0.380 -1.1230  0.1497 -0.4578
14004TIP3    H263504   3.225   0.854   0.525 -0.0694  1.1063 -0.5272
14005TIP3   OH263505   0.272   3.085  12.700  0.5878  0.3026  0.1198
14005TIP3    H163506   0.239   3.077  12.611  1.5671  0.9665 -0.3170
14005TIP3    H263507   0.218   3.024  12.751 -1.6458  1.7415 -0.4309
14006TIP3   OH263508   2.883   1.466   4.389  0.1345 -0.1846  0.2461
14006TIP3    H163509   2.948   1.534   4.369 -0.5258  0.7093  1.0802
14006TIP3    H263510   2.861   1.428   4.304 -0.5641  1.6433 -0.4265
14007TIP3   OH263511   2.866   2.778   3.042 -0.5015 -0.0762 -0.2509
14007TIP3    H163512   2.886   2.841   3.111  1.2327 -1.3158  0.4859
14007TIP3    H263513   2.899   2.818   2.962  0.8802 -0.1188  0.2603
14008TIP3   OH263514   6.697   0.977  16.645 -0.0290 -0.2452 -0.3140
14008TIP3    H163515   6.765   0.916  16.617  0.4803 -0.0332  0.4224
14008TIP3    H263516   6.627   0.921  16.679 -1.0267 -0.5468 -2.7099
14009TIP3   OH263517   4.373   0.242   1.793 -0.0186 -0.1503  0.1200
14009TIP3    H163518   4.327   0.263   1.874 -3.7093 -1.0487 -1.5706
14009TIP3    H263519   4.324   0.287   1.725  0.5005 -2.6185 -2.0256
14010TIP3   OH263520   3.888   5.999   5.286 -0.0596 -1.1986 -0.1414
14010TIP3    H163521   3.864   6.049   5.207 -2.4731 -1.5209  0.3116
14010TIP3    H263522   3.955   5.938   5.256 -1.6323 -2.0237 -2.2456
14011TIP3   OH263523   0.947   1.722  14.141 -0.5605 -0.3907  0.1475
14011TIP3    H163524   0.867   1.669  14.142 -1.1255  0.3550 -1.7854
14011TIP3    H263525   1.003   1.681  14.075  0.0441 -0.0230  0.4189
14012TIP3   OH263526   0.406   1.704  16.515 -0.5442  0.4169  0.1547
14012TIP3    H163527   0.329   1.659  16.548 -0.2640  0.3079  0.6711
14012TIP3    H263528   0.372   1.765  16.449 -0.9200 -0.5776 -0.5938
14013TIP3   OH263529   0.206   1.430   5.709 -0.2108 -0.1172  0.1328
14013TIP3    H163530   0.205   1.339   5.681 -1.2633 -0.1737  0.3327
14013TIP3    H263531   0.211   1.427   5.804 -1.3765  0.0019  0.2133
14014TIP3   OH263532   3.302   4.639   0.461  0.4886 -0.5465  0.1799
14014TIP3    H163533   3.272   4.651   0.551 -1.2630  1.4348 -0.5870
14014TIP3    H263534   3.395   4.615   0.470  0.3810 -0.3501  2.4848
14015TIP3   OH263535   6.036   1.193   1.024  0.1071 -0.1238 -0.6063
14015TIP3    H163536   5.950   1.187   0.983 -0.1217  0.4823 -0.2337
14015TIP3    H263537   6.030   1.139   1.102 -1.1441  2.6930  1.4014
14016TIP3   OH263538   5.021   5.163   1.023  0.7398  0.8332 -0.6016
14016TIP3    H163539   4.951   5.202   1.076  0.8106  1.3805 -0.8957
14016TIP3    H263540   5.100   5.177   1.074  0.4544 -1.3159  0.5478
14017TIP3   OH263541   3.176   4.408  11.614  0.2491  0.8809  0.5032
14017TIP3    H163542   3.149   4.480  11.672 -2.8790  0.4420 -0.2201
14017TIP3    H263543   3.130   4.332  11.648  2.9979 -0.7468  0.8632
14018TIP3   OH263544   0.746   2.800  15.200 -0.0871  0.1459 -0.2688
14018TIP3    H163545   0.826   2.809  15.149  2.5142 -1.6688  3.0674
14018TIP3    H263546   0.719   2.709  15.187 -1.4575  0.6291 -1.0474
14019TIP3   OH263547   4.665   1.965  13.429  0.0993 -0.1492  0.2256
14019TIP3    H163548   4.615   2.021  13.369  2.5370  1.7793 -0.1894
14019TIP3    H263549   4.650   2.003  13.515 -0.0602 -0.2851  0.2574
14020TIP3   OH263550   3.592   4.834  14.413 -0.1450 -0.3959 -0.0967
14020TIP3    H163551   3.687   4.834  14.425 -0.3478  1.3608  2.0797
14020TIP3    H263552   3.573   4.916  14.367 -0.6914 -0.2299  0.4141
14021TIP3   OH263553   1.478   2.682  10.918 -0.1175  0.2129 -0.4621
14021TIP3    H163554   1.433   2.754  10.873 -0.0509 -0.1076 -1.0388
14021TIP3    H263555   1.561   2.672  10.872  0.0563  0.0397 -0.1186
14022TIP3   OH263556   1.037   1.408  12.837  0.2190  0.2045 -0.4787
14022TIP3    H163557   1.058   1.316  12.820  1.8206  0.5466 -0.4704
14022TIP3    H263558   0.964   1.405  12.899  1.1236 -1.0595  0.5558
14023TIP3   OH263559   5.284   0.790   5.837 -0.3898 -0.5225  0.0368
14023TIP3    H163560   5.205   0.740   5.856  1.1912 -3.1141  0.3745
14023TIP3    H263561   5.322   0.808   5.923  0.8386 -1.9543 -0.1546
14024TIP3   OH263562   1.824   3.368  13.054 -0.0040  0.2357 -0.0053
14024TIP3    H163563   1.793   3.278  13.067 -1.8722  0.8528  0.1340
14024TIP3    H263564   1.800   3.389  12.964 -0.1887  0.8243  0.1784
14025TIP3   OH263565   6.334   6.660   0.511  0.1504 -0.4589  0.5030
14025TIP3    H163566   6.410   6.708   0.479  0.8295 -1.5340  0.4549
14025TIP3    H263567   6.290   6.722   0.570  0.6870  0.4031  0.0171
14026TIP3   OH263568   2.416   4.398   4.685 -0.0751  0.6110  0.6989
14026TIP3    H163569   2.454   4.313   4.663 -0.8636 -0.4145  3.0893
14026TIP3    H263570   2.368   4.423   4.606  1.9057 -0.0966 -0.8294
14027TIP3   OH263571   0.266   3.197  10.326  0.0619 -0.2439 -0.3300
14027TIP3    H163572   0.278   3.145  10.406 -0.1337  1.0136  0.5376
14027TIP3    H263573   0.350   3.189  10.280  0.5500 -0.1489  0.5177
14028TIP3   OH263574   5.754   2.194   0.550  0.9165  0.2499 -0.9364
14028TIP3    H163575   5.693   2.220   0.482  1.4735  3.0223 -0.5112
14028TIP3    H263576   5.840   2.201   0.509  1.1282 -0.9258 -0.7383
14029TIP3   OH263577   6.676   3.473   1.797  0.1265 -0.3950 -0.2905
14029TIP3    H163578   6.767   3.459   1.825  0.1655 -0.0426 -0.2393
14029TIP3    H263579   6.681   3.479   1.702  0.6067  2.7438 -0.1426
14030TIP3   OH263580   5.005   0.135  16.176 -0.4262 -0.2874  0.0627
14030TIP3    H163581   5.069   0.132  16.105  0.4350  0.5771  0.7903
14030TIP3    H263582   4.982   0.043  16.191  0.6035 -0.6066 -0.2384
14031TIP3   OH263583   3.933   5.650   3.546  0.2733  0.0613 -0.1411
14031TIP3    H163584   3.910   5.635   3.455 -0.9605 -1.2245  0.3445
14031TIP3    H263585   3.879   5.724   3.573 -1.8607 -1.5928  0.3921
14032TIP3   OH263586   6.486   0.010   2.106  0.4844 -0.0123 -0.0227
14032TIP3    H163587   6.458   0.099   2.130  0.2149  0.4409 -1.8591
14032TIP3    H263588   6.581   0.011   2.119  0.5594  0.7283 -0.5492
14033TIP3   OH263589   3.867   1.123   2.050  0.0783 -0.7778 -0.3428
14033TIP3    H163590   3.789   1.178   2.054 -0.4983 -1.6058 -0.0052
14033TIP3    H263591   3.856   1.061   2.122  0.6063 -1.4829 -0.8548
14034TIP3   OH263592   5.829   5.387   0.457  0.1012 -0.3600 -0.0658
14034TIP3    H163593   5.751   5.385   0.512  0.4894  0.0871  0.5181
14034TIP3    H263594   5.899   5.355   0.514  0.3083 -0.9644 -0.6521
14035TIP3   OH263595   4.979   5.939   1.945 -0.4958 -0.5816 -0.0919
14035TIP3    H163596   4.980   5.980   2.032 -0.2518  2.4096 -1.3761
14035TIP3    H263597   5.071   5.923   1.926 -0.5724 -1.5544  0.2946
14036TIP3   OH263598   0.783   4.748  12.135  0.5095  0.3373  0.1831
14036TIP3    H163599   0.866   4.707  12.110  1.0172  0.5105  1.5310
14036TIP3    H263600   0.719   4.677  12.130  1.0039 -0.1377  0.5036
14037TIP3   OH263601   3.160   1.324  14.775  0.5770  0.0652 -0.0280
14037TIP3    H163602   3.208   1.407  14.773  0.8127 -0.0805 -0.5683
14037TIP3    H263603   3.229   1.257  14.770  0.3104 -0.1446 -1.2208
14038TIP3   OH263604   5.186   6.585   5.257 -0.2289 -0.3946 -0.3283
14038TIP3    H163605   5.223   6.561   5.172 -3.0554  0.9885 -2.1221
14038TIP3    H263606   5.091   6.579   5.244 -0.9062  3.1832  1.6219
14039TIP3   OH263607   0.699   4.215   2.363 -0.3432 -0.3959  0.3378
14039TIP3    H163608   0.749   4.164   2.428  0.0742  0.3410  0.6073
14039TIP3    H263609   0.627   4.253   2.413  0.5235  0.9607  0.5977
14040TIP3   OH263610   2.593   6.716   0.633 -0.3920  0.5907 -0.0701
14040TIP3    H163611   2.559   6.711   0.543  0.1587  2.2753 -0.4011
14040TIP3    H263612   2.684   6.745   0.623 -1.0930  3.5967  1.0779
14041TIP3   OH263613   1.732   2.125  11.332 -0.4843 -0.1065  0.3642
14041TIP3    H163614   1.687   2.091  11.254  1.5777 -0.0768 -0.9039
14041TIP3    H263615   1.693   2.211  11.347 -1.1192 -0.2368 -0.4622
14042TIP3   OH263616   0.215   3.117   3.164  0.1934  0.3046  0.5751
14042TIP3    H163617   0.130   3.082   3.138 -0.4249  1.4966  0.9110
14042TIP3    H263618   0.279   3.066   3.114 -0.7753  0.1124 -0.5122
14043TIP3   OH263619   3.516   3.108  13.478  0.4427  0.7303 -0.4222
14043TIP3    H163620   3.460   3.076  13.549  1.1598 -0.0821 -0.2108
14043TIP3    H263621   3.487   3.060  13.401  2.3076 -1.4440  0.1201
14044TIP3   OH263622   5.247   5.760  16.922  0.2013  0.0015  0.1042
14044TIP3    H163623   5.296   5.824  16.870  1.2921  0.1385  1.2566
14044TIP3    H263624   5.210   5.811  16.994 -0.2483 -0.3981  0.1581
14045TIP3   OH263625   5.324   4.770  13.151 -0.0672 -0.4939 -0.4445
14045TIP3    H163626   5.245   4.809  13.188  0.1650  0.3665 -0.8328
14045TIP3    H263627   5.387   4.769  13.223 -0.1789 -0.4630 -0.3463
14046TIP3   OH263628   6.402   0.682   2.747 -0.3852 -0.5171  0.2157
14046TIP3    H163629   6.316   0.712   2.719  0.7035  1.5790 -1.1529
14046TIP3    H263630   6.441   0.644   2.668 -0.0771 -1.5205  0.8389
14047TIP3   OH263631   1.366   4.456  16.098 -0.4186 -0.6382 -0.1807
14047TIP3    H163632   1.359   4.479  16.006  0.5215 -0.4837 -0.2251
14047TIP3    H263633   1.453   4.417  16.106 -0.5678 -0.8252  0.6043
14048TIP3   OH263634   0.328   5.469   6.217  0.1189 -0.2940  0.6004
14048TIP3    H163635   0.301   5.380   6.236 -0.4661 -0.5479 -1.2264
14048TIP3    H263636   0.423   5.468   6.227  0.0612 -0.9725  1.1390
14049TIP3   OH263637   0.754   3.458   0.276  0.4001  0.5401 -0.6130
14049TIP3    H163638   0.780   3.367   0.293 -0.2381  0.6445  1.0717
14049TIP3    H263639   0.819   3.510   0.322 -0.6727  0.8701  0.5583
14050TIP3   OH263640   4.834   1.897   4.571 -0.2310 -0.3139 -0.2540
14050TIP3    H163641   4.753   1.866   4.611  0.1076 -0.8589  0.0218
14050TIP3    H263642   4.897   1.827   4.589  0.6133  0.6352  0.6097
14051TIP3   OH263643   3.039   5.431   0.993 -0.1283  0.6274  0.1293
14051TIP3    H163644   2.987   5.419   0.913  0.7874  0.2111 -0.4206
14051TIP3    H263645   2.990   5.384   1.060 -0.3636  0.0428 -0.4327
14052TIP3   OH263646   3.957   1.944   1.971 -0.2202  0.1496  0.5497
14052TIP3    H163647   3.985   1.907   2.055 -1.0961 -1.1496  0.2905
14052TIP3    H263648   3.882   1.891   1.946  0.0723  0.4865 -1.0981
14053TIP3   OH263649   3.407   5.305  17.180  0.1621  0.5859  0.1470
14053TIP3    H163650   3.490   5.264  17.204  1.2669  2.9918  0.7917
14053TIP3    H263651   3.347   5.281  17.250  0.9285  0.4694  0.7811
14054TIP3   OH263652   3.860   4.488  13.246  0.2823  0.5419 -0.2194
14054TIP3    H163653   3.884   4.434  13.321  0.2003 -4.5839 -3.3384
14054TIP3    H263654   3.778   4.530  13.272 -0.3904 -1.9731  2.1928
14055TIP3   OH263655   3.407   2.966   3.709  0.0877 -0.0566  0.0638
14055TIP3    H163656   3.453   3.024   3.649 -1.9286  0.7046 -0.8356
14055TIP3    H263657   3.427   3.002   3.796 -0.1354  1.2631 -0.4007
14056TIP3   OH263658   0.673   5.817  15.864 -0.3659  0.4218 -0.1998
14056TIP3    H163659   0.632   5.816  15.951 -0.0164 -0.5639 -0.0384
14056TIP3    H263660   0.704   5.907  15.854  0.7366  0.2485  1.2531
14057TIP3   OH263661   0.942   4.485   4.284  0.2513 -1.2367  0.3955
14057TIP3    H163662   0.876   4.537   4.328 -0.2798 -0.5289 -1.1600
14057TIP3    H263663   1.024   4.534   4.297  0.2900 -1.5446  1.3869
14058TIP3   OH263664   3.264   1.398   2.169 -0.0208  0.2122  0.2390
14058TIP3    H163665   3.307   1.319   2.136  0.6727 -0.6596  2.9200
14058TIP3    H263666   3.337   1.456   2.193 -0.5208  1.9405 -2.0922
14059TIP3   OH263667   3.897   5.491   2.543  0.0065  0.1967 -0.1893
14059TIP3    H163668   3.871   5.456   2.628 -0.0899  0.4646 -0.1068
14059TIP3    H263669   3.896   5.415   2.485  0.5300 -0.0746  0.1498
14060TIP3   OH263670   3.856   2.172  11.197 -0.1538 -0.1560  0.0531
14060TIP3    H163671   3.834   2.259  11.162  0.0273  0.2192  0.8555
14060TIP3    H263672   3.800   2.162  11.274  0.7213 -0.2207  0.6965
14061TIP3   OH263673   0.952   4.500  11.100 -0.4184 -0.5305 -0.1333
14061TIP3    H163674   1.035   4.539  11.070 -0.6880  0.8531  0.8633
14061TIP3    H263675   0.926   4.443  11.027  0.5893  0.2515 -1.1553
14062TIP3   OH263676   4.614   1.221  10.452  0.1729  0.1223 -0.4619
14062TIP3    H163677   4.562   1.242  10.375 -1.5823 -0.2283  0.5646
14062TIP3    H263678   4.550   1.186  10.515  1.7092 -0.5780  0.7708
14063TIP3   OH263679   0.927   2.989  13.497 -0.1744  0.2430 -0.2737
14063TIP3    H163680   0.930   2.899  13.527  1.3797  1.1148  2.5213
14063TIP3    H263681   0.862   3.032  13.553  0.4380  1.2502 -0.3014
14064TIP3   OH263682   0.517   4.045  16.420 -0.2954 -0.3237 -0.2235
14064TIP3    H163683   0.485   4.135  16.412  2.2373  0.8707  1.6180
14064TIP3    H263684   0.460   4.004  16.485  0.4095  1.0140  1.2943
14065TIP3   OH263685   6.460   6.331   1.805  0.1837  0.2932  0.7865
14065TIP3    H163686   6.437   6.241   1.783 -0.2590  0.4726  0.5027
14065TIP3    H263687   6.499   6.366   1.724  2.0221 -0.1757  1.4100
14066TIP3   OH263688   2.952   3.255  17.163 -0.1987  0.4296 -0.2411
14066TIP3    H163689   2.899   3.238  17.086 -0.0366 -0.2320 -0.2174
14066TIP3    H263690   3.027   3.195  17.154 -0.8348 -0.6173  1.0721
14067TIP3   OH263691   5.902   0.511  14.682 -0.1712 -0.2272 -0.0714
14067TIP3    H163692   5.835   0.494  14.616  0.2881  1.4077 -1.0227
14067TIP3    H263693   5.860   0.568  14.746 -0.0400 -0.1758 -0.0303
14068TIP3   OH263694   0.021   5.542   5.938 -0.2106  0.0625 -0.5481
14068TIP3    H163695   0.051   5.490   5.864 -3.4568 -2.5162 -0.2814
14068TIP3    H263696   0.020   5.481   6.012 -3.1458  0.6442  0.0312
14069TIP3   OH263697   3.483   1.288  10.258 -0.4189  0.6185  0.5006
14069TIP3    H163698   3.451   1.329  10.339 -0.6846  0.4033  0.5048
14069TIP3    H263699   3.571   1.323  10.247  0.5566 -1.1126  2.1455
14070TIP3   OH263700   4.339   0.099  17.001  0.3280 -0.2537 -0.2586
14070TIP3    H163701   4.374   0.018  16.964  0.1778 -0.6215  0.3932
14070TIP3    H263702   4.366   0.098  17.092  1.7968  1.2725 -0.6098
14071TIP3   OH263703   1.254   2.692   1.589  0.0519 -0.1967 -0.0650
14071TIP3    H163704   1.259   2.772   1.641  0.4505 -0.7051  0.6816
14071TIP3    H263705   1.163   2.689   1.558  0.5825  1.7917 -2.1084
14072TIP3   OH263706   0.574   2.450   6.081 -0.5488  0.0069 -0.1331
14072TIP3    H163707   0.624   2.446   6.162 -1.2760 -1.3074  0.2887
14072TIP3    H263708   0.570   2.359   6.051 -0.4388  0.4465 -1.5632
14073TIP3   OH263709   0.568   4.161   5.642  0.1297  0.1571 -0.4191
14073TIP3    H163710   0.651   4.204   5.624  0.5071 -0.4235 -0.1046
14073TIP3    H263711   0.503   4.211   5.591  0.8043  0.0478 -1.4172
14074TIP3   OH263712   3.384   2.723  16.903  0.3497  0.1327 -0.1718
14074TIP3    H163713   3.372   2.640  16.948  0.4647 -0.1580 -0.6643
14074TIP3    H263714   3.388   2.788  16.973 -1.3033 -0.0761  0.1731
14075TIP3   OH263715   6.387   3.043   0.361 -0.0327 -0.1830  0.4442
14075TIP3    H163716   6.350   3.007   0.281 -0.2426 -2.2200  1.3949
14075TIP3    H263717   6.403   3.135   0.341 -4.4861  0.6196 -0.4029
14076TIP3   OH263718   3.355   4.745   6.254  0.2125  0.4584 -0.2785
14076TIP3    H163719   3.440   4.788   6.248 -0.3855  1.4988 -1.4803
14076TIP3    H263720   3.291   4.815   6.244 -0.8059 -0.3512  0.3339
14077TIP3   OH263721   2.483   0.759  10.601 -0.0451 -0.1818  0.0947
14077TIP3    H163722   2.401   0.808  10.606  0.3797  0.4669  0.8867
14077TIP3    H263723   2.492   0.737  10.508 -1.2042 -0.4302  0.0218
14078TIP3   OH263724   6.306   3.359   5.349 -0.4310 -0.1568 -0.1089
14078TIP3    H163725   6.300   3.441   5.300 -0.6727  0.2170  0.5389
14078TIP3    H263726   6.242   3.369   5.420 -0.8459 -1.1164 -0.3283
14079TIP3   OH263727   6.072   6.139  13.924 -0.1964 -0.1847 -0.3228
14079TIP3    H163728   6.098   6.144  14.016 -3.8534 -0.5310  0.8848
14079TIP3    H263729   6.080   6.047  13.902  3.0258  0.1887 -1.2842
14080TIP3   OH263730   0.169   2.958  14.847 -0.4522  0.4626  0.2487
14080TIP3    H163731   0.118   3.033  14.876 -0.8767  0.5656 -0.7353
14080TIP3    H263732   0.227   2.992  14.779  1.4575  0.4933  1.8067
14081TIP3   OH263733   3.801   5.092   1.782 -0.4298 -0.1447  0.0454
14081TIP3    H163734   3.727   5.131   1.736  0.3454 -0.3183 -1.3854
14081TIP3    H263735   3.865   5.072   1.714  0.8768 -0.1703  1.2213
14082TIP3   OH263736   2.410   1.160  16.996 -0.1033 -0.6273 -0.2756
14082TIP3    H163737   2.324   1.200  16.977 -0.9020 -2.0899  0.1521
14082TIP3    H263738   2.437   1.123  16.912 -0.1693 -0.6967 -0.2660
14083TIP3   OH263739   3.477   5.346  12.577  1.0201  0.3423 -0.1908
14083TIP3    H163740   3.405   5.288  12.552  2.1848 -0.2408 -2.4114
14083TIP3    H263741   3.446   5.434  12.554  0.4643  0.2626  0.2410
14084TIP3   OH263742   2.773   6.102   0.757 -0.6645 -0.3868 -1.2239
14084TIP3    H163743   2.846   6.047   0.729 -0.0879 -0.5395  0.4824
14084TIP3    H263744   2.712   6.041   0.799  0.4229  0.3191  1.5703
14085TIP3   OH263745   5.304   2.800  12.042 -0.0877  0.2394 -0.3382
14085TIP3    H163746   5.236   2.732  12.044  0.6901 -0.5450  0.9131
14085TIP3    H263747   5.362   2.778  12.115  0.3181  2.1341 -0.0353
14086TIP3   OH263748   3.579   2.906   5.285  0.3461  0.6387  0.5143
14086TIP3    H163749   3.651   2.898   5.348  1.1184 -1.2007 -0.5459
14086TIP3    H263750   3.501   2.922   5.340  1.2586  0.8452  1.7944
14087TIP3   OH263751   1.163   3.602  16.609 -0.8158  0.2290  0.1155
14087TIP3    H163752   1.167   3.566  16.521  0.2460 -0.4152  0.4133
14087TIP3    H263753   1.254   3.608  16.637 -1.1839 -1.8134  2.0485
14088TIP3   OH263754   4.580   1.378   3.208  0.3201  0.1797 -0.3574
14088TIP3    H163755   4.502   1.412   3.253 -0.4868  0.8758 -2.1870
14088TIP3    H263756   4.646   1.447   3.220 -0.5580  1.3715 -1.9820
14089TIP3   OH263757   1.170   2.551   3.423  0.1406  0.4375 -0.3489
14089TIP3    H163758   1.251   2.594   3.447  1.1379 -1.3700 -0.2850
14089TIP3    H263759   1.132   2.521   3.506 -1.3817  2.5074 -0.2290
14090TIP3   OH263760   6.784   3.929  13.448 -0.1347  0.0777  0.1649
14090TIP3    H163761   6.843   3.930  13.373 -0.2866 -2.1860 -0.0628
14090TIP3    H263762   6.822   3.863  13.507  0.3496  2.2506  2.4438
14091TIP3   OH263763   6.293   3.081  13.800 -0.1005 -0.6118 -0.0671
14091TIP3    H163764   6.249   3.075  13.716  0.6329  2.0126 -0.7383
14091TIP3    H263765   6.258   3.161  13.840  2.1656  0.1844  0.4785
14092TIP3   OH263766   3.797   3.583  11.574  0.6559  0.3848  0.0582
14092TIP3    H163767   3.890   3.587  11.555  0.8754 -1.1458  0.6844
14092TIP3    H263768   3.756   3.559  11.490  0.5596  2.8654 -0.7027
14093TIP3   OH263769   5.962   5.639   5.280  0.1983  0.0489  0.0612
14093TIP3    H163770   5.914   5.570   5.235  0.5620 -0.4503  0.4227
14093TIP3    H263771   6.051   5.634   5.244  0.7678 -1.0196  1.5019
14094TIP3   OH263772   4.568   4.095   5.141  0.1246  0.0894 -0.4674
14094TIP3    H163773   4.497   4.149   5.176 -0.4315 -0.8415 -0.1459
14094TIP3    H263774   4.643   4.114   5.198 -0.5143 -0.6926  0.6646
14095TIP3   OH263775   0.964   6.697   5.192 -0.0559 -0.2345 -0.0425
14095TIP3    H163776   0.918   6.619   5.160  3.0823 -1.6939 -1.4313
14095TIP3    H263777   0.957   6.691   5.288 -3.1247  0.0045 -0.1481
14096TIP3   OH263778   5.276   1.160  13.490 -0.4334  0.4931  0.5908
14096TIP3    H163779   5.248   1.152  13.398 -1.2869 -0.4336  0.9183
14096TIP3    H263780   5.346   1.224  13.487 -0.4787  0.5216 -0.7151
14097TIP3   OH263781   1.443   2.530  11.196  0.1709  0.3025  0.1578
14097TIP3    H163782   1.471   2.603  11.251 -0.8443 -1.0353  2.5713
14097TIP3    H263783   1.525   2.486  11.171  0.6663  1.1631  0.2073
14098TIP3   OH263784   4.616   3.961  16.856  0.2310  0.1121 -0.0798
14098TIP3    H163785   4.568   4.014  16.791 -3.2220 -1.6505  0.8085
14098TIP3    H263786   4.638   4.024  16.925 -1.0976  0.9957 -0.4043
14099TIP3   OH263787   2.814   3.803   0.225 -0.6619  0.2808 -0.1856
14099TIP3    H163788   2.744   3.744   0.199  0.6272 -1.9238  0.9863
14099TIP3    H263789   2.840   3.847   0.144 -1.7191 -0.7200 -1.1071
14100TIP3   OH263790   1.584   5.363   1.763 -0.0937  0.1849  0.2807
14100TIP3    H163791   1.635   5.441   1.784 -1.9602  1.2588  1.0881
14100TIP3    H263792   1.529   5.389   1.689 -1.2125 -0.1263  0.9794
14101TIP3   OH263793   4.519   4.571   3.874  0.0140  0.3019  0.6498
14101TIP3    H163794   4.495   4.581   3.782  1.7004  2.3296  0.3759
14101TIP3    H263795   4.614   4.567   3.874  0.0184 -0.5586  2.2684
14102TIP3   OH263796   4.185   0.340  12.027 -0.3099 -0.4269 -0.5037
14102TIP3    H163797   4.195   0.272  11.961  0.2894 -1.0187  0.1811
14102TIP3    H263798   4.250   0.406  12.004  0.3652 -0.9480 -0.1331
14103TIP3   OH263799   5.518   3.556  13.064 -0.2465 -0.1445 -0.7113
14103TIP3    H163800   5.608   3.522  13.064 -0.7483 -1.5070 -0.4617
14103TIP3    H263801   5.498   3.570  13.156 -0.3587 -0.0078 -0.7551
14104TIP3   OH263802   4.029   1.398  12.913 -0.0853  0.0018  0.2737
14104TIP3    H163803   3.964   1.468  12.918  0.4498  0.5685 -0.4067
14104TIP3    H263804   4.024   1.368  12.822 -0.2071 -0.7491  0.5277
14105TIP3   OH263805   0.063   1.302   0.048  0.0485  0.1576  0.1163
14105TIP3    H163806   0.003   1.376   0.053  0.9626  0.9265 -0.1205
14105TIP3    H263807   0.045   1.251   0.127 -0.3555  0.8038  0.4496
14106TIP3   OH263808   6.156   6.433   2.476 -0.5539 -0.0442 -0.0045
14106TIP3    H163809   6.151   6.514   2.528  0.7211  0.0441  0.0018
14106TIP3    H263810   6.122   6.366   2.535 -0.7820  0.3426  0.3153
14107TIP3   OH263811   5.839   1.058  15.007 -0.1037  1.1990 -0.6341
14107TIP3    H163812   5.879   1.139  15.038  0.4273  0.8073 -0.2703
14107TIP3    H263813   5.907   0.992  15.019 -1.0581  0.3921  0.6179
14108TIP3   OH263814   1.479   4.112  16.563  0.2258 -0.0013 -0.4263
14108TIP3    H163815   1.501   4.059  16.487  1.6158 -0.3565  0.2004
14108TIP3    H263816   1.544   4.088  16.630 -1.3958 -0.2464  1.1456
14109TIP3   OH263817   5.251   1.177  15.524  0.0772  0.4325 -0.1225
14109TIP3    H163818   5.305   1.257  15.525  0.0007  0.4850 -0.3755
14109TIP3    H263819   5.250   1.150  15.616  1.2647 -0.0561 -0.2275
14110TIP3   OH263820   3.554   3.767   3.598  0.2811  1.1566  0.2737
14110TIP3    H163821   3.548   3.777   3.693  1.1869 -0.3375  0.5242
14110TIP3    H263822   3.644   3.791   3.576  0.6495 -0.2916  0.0879
14111TIP3   OH263823   5.153   4.323  11.207 -1.2159  0.6054  0.3713
14111TIP3    H163824   5.116   4.261  11.143 -0.8065  1.0676 -0.3316
14111TIP3    H263825   5.245   4.331  11.181 -1.2910  1.5846  0.3822
14112TIP3   OH263826   6.481   2.333   3.862 -0.7649 -0.0756 -0.2555
14112TIP3    H163827   6.542   2.320   3.790 -0.5715  1.3906 -0.3811
14112TIP3    H263828   6.408   2.380   3.823 -0.2261  1.6105  0.6845
14113TIP3   OH263829   5.213   6.197   3.303 -0.2742  0.2003  0.3064
14113TIP3    H163830   5.266   6.132   3.349  0.3519  1.0276  0.7850
14113TIP3    H263831   5.215   6.169   3.212 -1.8126 -1.6579  0.7678
14114TIP3   OH263832   6.806   3.429   3.681 -0.0187 -0.5980 -0.5330
14114TIP3    H163833   6.796   3.441   3.586  0.1698 -1.9599 -0.7380
14114TIP3    H263834   6.898   3.447   3.697 -0.1920  0.3192 -0.4797
14115TIP3   OH263835   5.761   5.844   2.738 -0.0416  0.4894 -0.3525
14115TIP3    H163836   5.740   5.911   2.804 -0.8113 -1.4519  1.4985
14115TIP3    H263837   5.856   5.847   2.730  0.0359  1.0133  0.6093
14116TIP3   OH263838   4.278   3.893   5.528  0.0645  0.1691  0.4243
14116TIP3    H163839   4.253   3.916   5.439 -1.1974  1.1118  0.9786
14116TIP3    H263840   4.318   3.807   5.521  0.0066  0.2439 -1.0448
14117TIP3   OH263841   5.438   4.680   1.660  0.3287  0.4227 -0.2373
14117TIP3    H163842   5.469   4.723   1.580  0.0231 -2.5294 -2.0737
14117TIP3    H263843   5.501   4.610   1.675 -1.2809 -0.9754  0.3007
14118TIP3   OH263844   1.893   6.322  16.248  0.1789 -0.0938 -0.2886
14118TIP3    H163845   1.969   6.362  16.290 -0.4060 -0.3212  1.0352
14118TIP3    H263846   1.826   6.319  16.317 -0.4634 -1.4720 -0.9379
14119TIP3   OH263847   3.416   2.909   0.451 -0.0303 -0.5600 -0.2030
14119TIP3    H163848   3.497   2.857   0.457 -0.0832 -0.6566 -0.3289
14119TIP3    H263849   3.363   2.879   0.525  0.9476  1.0653  1.2262
14120TIP3   OH263850   2.656   1.645   4.177  0.0584 -0.3739  0.5042
14120TIP3    H163851   2.680   1.709   4.244 -0.3755  0.1098  0.2060
14120TIP3    H263852   2.715   1.572   4.191  0.5665  0.0985  0.8495
14121TIP3   OH263853   0.725   4.016   0.247 -0.6367  0.0154  0.2426
14121TIP3    H163854   0.768   3.952   0.190  1.7134  2.0332 -0.4364
14121TIP3    H263855   0.708   3.968   0.328 -0.8639 -1.9910 -0.9249
14122TIP3   OH263856   2.719   0.521   1.242 -0.3171 -0.1396  0.0043
14122TIP3    H163857   2.710   0.606   1.200  0.0483 -0.2689 -0.3413
14122TIP3    H263858   2.755   0.464   1.174  0.2236 -0.3659  0.4713
14123TIP3   OH263859   6.438   2.112  16.004  0.0548 -0.5467 -0.1770
14123TIP3    H163860   6.484   2.193  16.027 -0.0004 -0.8281  1.0236
14123TIP3    H263861   6.375   2.138  15.937  1.9376 -0.1541 -1.8615
14124TIP3   OH263862   5.654   3.510   4.734  0.2434 -0.3133 -0.1424
14124TIP3    H163863   5.566   3.491   4.769  0.8876 -1.1461  1.1270
14124TIP3    H263864   5.686   3.583   4.787  1.2537 -1.6267  1.1571
14125TIP3   OH263865   1.185   0.840  10.579  0.3347  0.0112  0.7517
14125TIP3    H163866   1.261   0.893  10.603  0.2728 -0.1577  1.3171
14125TIP3    H263867   1.193   0.829  10.484  2.1633 -1.7400  1.0411
14126TIP3   OH263868   2.650   5.348   1.623  0.7488  0.4676 -0.3618
14126TIP3    H163869   2.620   5.436   1.648 -0.0377 -0.5030  2.4011
14126TIP3    H263870   2.570   5.302   1.597  0.7372 -0.2584  0.9361
14127TIP3   OH263871   1.741   3.803  14.289  0.2454  0.1066 -0.3412
14127TIP3    H163872   1.805   3.870  14.311 -0.1564  0.5620 -0.5171
14127TIP3    H263873   1.680   3.848  14.230 -0.3981 -0.2274  0.0591
14128TIP3   OH263874   4.478   4.415  12.815  0.5936 -0.1867 -0.8087
14128TIP3    H163875   4.421   4.351  12.771  0.3904 -0.4284 -0.1995
14128TIP3    H263876   4.512   4.368  12.891  1.1324  0.1574 -0.8392
14129TIP3   OH263877   1.741   2.649   2.956 -0.3359 -0.2840  0.7862
14129TIP3    H163878   1.817   2.617   3.005  1.5454  0.2131 -1.6313
14129TIP3    H263879   1.755   2.618   2.867 -3.4605 -0.8668  0.3746
14130TIP3   OH263880   0.122   3.696  15.118 -0.4921 -0.2839  0.3593
14130TIP3    H163881   0.177   3.659  15.049 -0.1707 -0.8560  0.9124
14130TIP3    H263882   0.036   3.708  15.077  0.4766  2.4716 -1.1144
14131TIP3   OH263883   1.729   6.146   3.469 -0.1568 -0.2632 -0.2321
14131TIP3    H163884   1.662   6.214   3.476 -0.1698 -0.1688 -1.1463
14131TIP3    H263885   1.730   6.105   3.555 -0.6568  0.4190  0.1103
14132TIP3   OH263886   0.587   1.683   5.529 -0.1866 -0.0915 -0.2620
14132TIP3    H163887   0.518   1.751   5.531 -0.0582  0.0312  0.0932
14132TIP3    H263888   0.539   1.601   5.540 -0.1574  0.0907  1.5470
14133TIP3   OH263889   0.127   1.891   4.040 -0.0166 -0.3529  0.2468
14133TIP3    H163890   0.114   1.799   4.015 -1.8496 -1.1158  3.3990
14133TIP3    H263891   0.040   1.922   4.063  1.0473  0.8425  3.1348
14134TIP3   OH263892   0.642   4.708   1.172  0.4620  0.2080 -0.1127
14134TIP3    H163893   0.649   4.755   1.089  0.6046 -2.0018 -1.4107
14134TIP3    H263894   0.560   4.739   1.211 -0.1845  0.4479 -1.6206
14135TIP3   OH263895   2.668   1.438  14.706  0.2839  0.2315 -0.0029
14135TIP3    H163896   2.672   1.474  14.617 -0.8541 -0.7919 -0.5096
14135TIP3    H263897   2.749   1.388  14.716 -0.6593 -1.7227 -1.4593
14136TIP3   OH263898   0.771   3.442   1.143  0.3345  0.1077  0.2312
14136TIP3    H163899   0.705   3.483   1.088 -0.2579  0.6818  1.3331
14136TIP3    H263900   0.812   3.376   1.087 -0.6640  0.2534 -0.6925
14137TIP3   OH263901   0.089   6.281  12.277 -0.5610  0.0689 -0.3700
14137TIP3    H163902   0.039   6.252  12.202 -1.0689  0.8814 -0.3591
14137TIP3    H263903   0.155   6.340  12.240  0.5106 -1.1138 -0.4049
14138TIP3   OH263904   1.631   4.155  13.277  0.6554  0.2310 -0.0102
14138TIP3    H163905   1.664   4.148  13.187 -0.8030 -3.4249 -0.4278
14138TIP3    H263906   1.709   4.173  13.329  2.3613 -1.9950 -1.5948
14139TIP3   OH263907   1.619   6.298   4.666  0.4677  0.2647  0.0610
14139TIP3    H163908   1.534   6.297   4.710 -0.6337  0.7591 -1.9404
14139TIP3    H263909   1.617   6.376   4.611  1.4431 -0.7616 -1.5012
14140TIP3   OH263910   4.138   2.349   1.493 -0.0024  0.0144 -0.2491
14140TIP3    H163911   4.141   2.374   1.585 -1.8877 -2.2162  0.5205
14140TIP3    H263912   4.127   2.431   1.445  1.5174  1.2586  1.4351
14141TIP3   OH263913   3.906   3.770  13.639  0.0350 -0.4013  0.5586
14141TIP3    H163914   3.927   3.749  13.730 -0.9338 -1.6076  0.5124
14141TIP3    H263915   3.945   3.700  13.588 -3.4451 -2.4442  0.4265
14142TIP3   OH263916   6.406   2.758  13.747 -0.9502  0.9980  0.2717
14142TIP3    H163917   6.470   2.717  13.804  0.3378  3.2676  0.5628
14142TIP3    H263918   6.458   2.814  13.689 -2.4995  1.1947 -1.0010
14143TIP3   OH263919   2.098   6.633  14.634  0.0326 -0.8307 -0.8450
14143TIP3    H163920   2.114   6.725  14.653  1.5415 -1.4309  1.2056
14143TIP3    H263921   2.165   6.610  14.569 -0.3900 -0.4850 -1.4101
14144TIP3   OH263922   4.630   3.571   1.016  0.1117  0.4915 -0.1739
14144TIP3    H163923   4.582   3.549   1.096  2.5336 -1.1667  0.9582
14144TIP3    H263924   4.590   3.652   0.985 -1.3675  0.8235  2.3503
14145TIP3   OH263925   3.241   2.381  13.631  0.0757 -0.3421  0.2093
14145TIP3    H163926   3.300   2.324  13.681 -1.2548 -0.9636  1.1606
14145TIP3    H263927   3.216   2.449  13.693 -0.6456 -0.4209  0.0136
14146TIP3   OH263928   5.936   3.585   4.472 -0.2949  0.0274  0.2901
14146TIP3    H163929   5.977   3.640   4.404  1.2029  0.7011  1.6694
14146TIP3    H263930   5.869   3.641   4.510  0.8277  0.7346  1.2905
14147TIP3   OH263931   5.452   1.796  15.562  0.0335  0.7695  0.1487
14147TIP3    H163932   5.468   1.890  15.568  2.1452  0.4990 -0.2289
14147TIP3    H263933   5.457   1.777  15.468  2.3256 -0.0591  0.3756
14148TIP3   OH263934   6.324   3.751  12.253 -0.3300 -0.3067  0.6013
14148TIP3    H163935   6.325   3.846  12.239 -0.0473 -0.4545 -0.5042
14148TIP3    H263936   6.339   3.740  12.347 -0.5064  0.7410  0.7669
14149TIP3   OH263937   4.406   6.707  10.230  0.0101 -0.3286  0.4434
14149TIP3    H163938   4.359   6.788  10.247  2.2821  1.3684 -0.8541
14149TIP3    H263939   4.487   6.715  10.279  1.6862 -0.3215 -2.1516
14150TIP3   OH263940   3.824   5.698   2.173 -0.1467  0.0530  0.1855
14150TIP3    H163941   3.779   5.622   2.136 -1.2535  1.2462 -1.0009
14150TIP3    H263942   3.914   5.691   2.139  0.2389 -1.5706  1.4128
14151TIP3   OH263943   6.578   0.806   4.147  0.3836  0.9953  0.2466
14151TIP3    H163944   6.619   0.860   4.080 -2.4046  2.2354 -0.5960
14151TIP3    H263945   6.553   0.726   4.102 -0.7855  1.5055 -0.0462
14152TIP3   OH263946   1.261   2.529   5.802  0.4897  0.0462 -0.0147
14152TIP3    H163947   1.239   2.500   5.714  0.7068  0.8913 -0.3638
14152TIP3    H263948   1.261   2.625   5.796  1.1058  0.1077  0.7444
14153TIP3   OH263949   1.431   3.932  16.324  0.4255  0.4992 -0.2517
14153TIP3    H163950   1.364   3.952  16.389  2.1024 -0.1095  1.7781
14153TIP3    H263951   1.410   3.843  16.295 -0.5311  0.9015 -0.8545
14154TIP3   OH263952   6.195   1.047  16.776  0.5088 -0.0893  0.3192
14154TIP3    H163953   6.186   1.140  16.759  1.6968  0.4555  2.2991
14154TIP3    H263954   6.279   1.039  16.822  0.7428 -2.2253 -0.3598
14155TIP3   OH263955   2.897   0.951   1.251 -0.0303  0.3742  0.5901
14155TIP3    H163956   2.880   1.040   1.219 -1.7406 -0.6701 -1.6616
14155TIP3    H263957   2.983   0.929   1.214 -1.3297 -0.2711 -2.3730
14156TIP3   OH263958   1.834   2.668   5.966  0.3915  0.0226 -0.2306
14156TIP3    H163959   1.785   2.610   5.907  1.1607 -1.6408  0.6989
14156TIP3    H263960   1.787   2.661   6.050 -0.4537  2.0427 -0.4838
14157TIP3   OH263961   5.764   5.008  13.803  1.0295  0.1242  0.1245
14157TIP3    H163962   5.830   4.958  13.851  1.4666 -0.1261 -0.7100
14157TIP3    H263963   5.704   4.942  13.767  0.6081  0.3186  0.4590
14158TIP3   OH263964   3.704   0.163  16.242 -0.1369 -0.3507  0.2725
14158TIP3    H163965   3.767   0.212  16.189 -1.5800  1.3855  0.0217
14158TIP3    H263966   3.695   0.215  16.322 -1.5475 -0.2956  0.1065
14159TIP3   OH263967   1.886   5.098  16.172 -0.3829 -0.2569 -0.6108
14159TIP3    H163968   1.912   5.017  16.127  1.4837  0.8218 -1.5523
14159TIP3    H263969   1.910   5.168  16.112 -0.3742  1.0997  0.9164
14160TIP3   OH263970   1.567   0.448   4.569  0.0058  0.0506  0.8151
14160TIP3    H163971   1.611   0.364   4.571 -1.0047 -0.5821 -1.0489
14160TIP3    H263972   1.604   0.493   4.493 -1.3772  0.1569  0.1726
14161TIP3   OH263973   6.555   1.778   1.485 -0.8934 -0.1833 -0.0539
14161TIP3    H163974   6.517   1.738   1.563 -1.1910 -0.6230 -0.4215
14161TIP3    H263975   6.481   1.789   1.425 -0.4958 -0.7931 -0.6684
14162TIP3   OH263976   1.716   3.766  15.428 -0.1080 -0.2843 -0.0946
14162TIP3    H163977   1.784   3.743  15.365 -0.8792 -0.1803 -0.9988
14162TIP3    H263978   1.647   3.701  15.413 -1.0019  0.7198 -0.5393
14163TIP3   OH263979   1.127   6.225  13.509  0.0138 -0.3304  0.2027
14163TIP3    H163980   1.101   6.200  13.420  1.1730 -2.6707  0.4485
14163TIP3    H263981   1.222   6.208  13.511  0.1757  0.6060  1.6154
14164TIP3   OH263982   0.346   4.436   1.538  0.5960 -0.6537  0.0056
14164TIP3    H163983   0.420   4.399   1.488  0.4498 -2.4282  0.9944
14164TIP3    H263984   0.369   4.418   1.629 -0.1548  0.5697  0.4415
14165TIP3   OH263985   2.770   6.267   4.324 -0.0298  0.2097 -0.3024
14165TIP3    H163986   2.799   6.268   4.415  1.3576 -1.0155 -0.6885
14165TIP3    H263987   2.675   6.283   4.328 -0.0718 -0.3195  1.3824
14166TIP3   OH263988   3.158   4.664  11.860 -0.5802  0.3259  0.4200
14166TIP3    H163989   3.093   4.727  11.828 -0.7280  1.1019  2.1204
14166TIP3    H263990   3.242   4.700  11.830 -0.4336  2.6751  3.1941
14167TIP3   OH263991   3.333   5.990   1.466 -0.2887 -0.0233 -0.4923
14167TIP3    H163992   3.407   5.945   1.505  1.0001  0.8876 -1.7936
14167TIP3    H263993   3.272   5.920   1.443  0.0416 -0.7650  0.7923
14168TIP3   OH263994   6.480   4.822  12.595  0.3814  0.1407  0.3394
14168TIP3    H163995   6.559   4.837  12.647  0.4333 -0.2478  0.3769
14168TIP3    H263996   6.428   4.902  12.606  0.7750  0.4044  0.3043
14169TIP3   OH263997   0.889   1.913   0.691 -0.2496 -0.5095  0.1303
14169TIP3    H163998   0.918   1.868   0.612  0.7884  0.2943  0.0324
14169TIP3    H263999   0.800   1.879   0.707 -0.9102  0.0844 -1.9632
14170TIP3   OH264000   2.651   5.050  14.704  0.6474 -0.9537  0.3959
14170TIP3    H164001   2.666   4.962  14.669 -0.9290 -0.8366 -0.6565
14170TIP3    H264002   2.586   5.039  14.773 -0.9409 -0.4396 -0.9566
14171TIP3   OH264003   0.130   4.227   0.514 -0.1636  0.2143 -0.6711
14171TIP3    H164004   0.175   4.193   0.436 -0.4076 -2.4043  0.2504
14171TIP3    H264005   0.041   4.192   0.508 -1.5454  3.4026 -1.2509
14172TIP3   OH264006   4.013   5.346   3.613  0.1949  0.1398  0.0406
14172TIP3    H164007   4.062   5.421   3.579 -0.0214 -0.4431 -1.6275
14172TIP3    H264008   3.940   5.335   3.552 -2.4983  1.3783  2.7613
14173TIP3   OH264009   3.464   2.468  14.762  0.0248 -0.1538 -0.0751
14173TIP3    H164010   3.528   2.493  14.695  1.6908 -2.0973  0.7018
14173TIP3    H264011   3.475   2.534  14.831  0.1258  0.3614 -0.5722
14174TIP3   OH264012   4.057   0.481   2.068 -0.0857 -0.0585 -0.2186
14174TIP3    H164013   4.078   0.573   2.087  1.5698 -0.4432 -0.0030
14174TIP3    H264014   4.024   0.483   1.978 -0.1644  0.7674 -0.1818
14175TIP3   OH264015   5.282   5.366  13.982 -0.2405 -0.4433  0.5839
14175TIP3    H164016   5.367   5.358  13.939 -0.8191  0.3062 -0.7346
14175TIP3    H264017   5.272   5.459  14.000 -0.9463 -0.4774  0.3963
14176TIP3   OH264018   5.738   0.879   3.320 -0.3304  0.1426 -0.2426
14176TIP3    H164019   5.719   0.973   3.320  2.0884  0.7377  1.2907
14176TIP3    H264020   5.665   0.840   3.369 -1.1963  1.2449 -0.6015
14177TIP3   OH264021   1.502   4.888   2.484  0.6223  0.5491 -0.2466
14177TIP3    H164022   1.442   4.900   2.410 -0.7589  0.4216  0.8105
14177TIP3    H264023   1.526   4.795   2.480  0.7739  0.6053 -0.6891
14178TIP3   OH264024   3.666   0.947   5.783  0.1199  0.1123  0.7298
14178TIP3    H164025   3.702   0.927   5.869 -2.6403  0.8038  2.1593
14178TIP3    H264026   3.608   1.021   5.797 -1.4737 -0.5909 -1.4390
14179TIP3   OH264027   5.075   2.620  11.068  0.6620 -0.0124 -0.1898
14179TIP3    H164028   5.109   2.532  11.051  0.3723 -0.2999  0.6777
14179TIP3    H264029   5.045   2.651  10.983  2.2023 -0.1266 -0.8166
14180TIP3   OH264030   2.247   4.840   3.670 -0.4560 -0.1259  0.5867
14180TIP3    H164031   2.329   4.889   3.679 -0.7795  0.3711  0.8837
14180TIP3    H264032   2.274   4.748   3.669  0.2085  0.0603 -0.5590
14181TIP3   OH264033   1.108   4.827  10.795  0.6013  0.2267 -0.4336
14181TIP3    H164034   1.199   4.839  10.825  0.5637  0.7372 -0.5100
14181TIP3    H264035   1.106   4.738  10.760  0.7679 -0.2166  0.6341
14182TIP3   OH264036   2.105   6.766  15.576  0.1419 -0.1054  0.3635
14182TIP3    H164037   2.010   6.777  15.585 -0.1019 -1.6107 -0.1348
14182TIP3    H264038   2.133   6.846  15.531 -0.5749  1.2637  2.2236
14183TIP3   OH264039   1.801   1.778   2.954 -0.2132 -0.2643 -0.5640
14183TIP3    H164040   1.842   1.857   2.989  1.2757 -0.5997 -1.4727
14183TIP3    H264041   1.796   1.718   3.029  1.8867 -0.5576 -0.5923
14184TIP3   OH264042   3.396   3.228  15.619 -0.2542  0.4620 -0.8616
14184TIP3    H164043   3.334   3.296  15.647  0.4268  1.0297 -0.7010
14184TIP3    H264044   3.482   3.269  15.630  0.3021 -1.0916  1.1850
14185TIP3   OH264045   5.590   4.908  16.965  0.0995  0.1676 -0.4196
14185TIP3    H164046   5.653   4.948  16.905  0.6693 -0.9736 -0.6166
14185TIP3    H264047   5.535   4.853  16.909 -2.0623  2.2282 -0.4798
14186TIP3   OH264048   2.003   6.019  14.384 -0.4836 -0.5276 -0.0025
14186TIP3    H164049   2.043   6.020  14.297  1.2621 -0.2226  0.7620
14186TIP3    H264050   1.951   5.939  14.386  0.7585 -1.3877 -0.7727
14187TIP3   OH264051   2.656   6.387  15.914  0.2629  0.0489  0.2160
14187TIP3    H164052   2.613   6.456  15.964 -1.1213 -0.8467  0.3084
14187TIP3    H264053   2.748   6.393  15.940  0.0621  1.4166  0.7094
14188TIP3   OH264054   0.536   4.286  12.897  0.5795  0.0634 -0.4808
14188TIP3    H164055   0.600   4.226  12.936  2.6221  1.1167 -2.0417
14188TIP3    H264056   0.518   4.248  12.811 -0.9328 -0.1905 -0.0855
14189TIP3   OH264057   2.218   1.513   3.861 -0.2027  0.3026 -0.2229
14189TIP3    H164058   2.260   1.560   3.932  1.2326 -0.4103 -0.5636
14189TIP3    H264059   2.225   1.572   3.786  1.9619 -0.5145 -0.7541
14190TIP3   OH264060   3.854   1.378  17.118 -0.0367 -0.1025 -0.5391
14190TIP3    H164061   3.878   1.285  17.109 -0.7255 -0.2846 -0.5519
14190TIP3    H264062   3.863   1.396  17.211  0.5576 -0.0499 -0.6020
14191TIP3   OH264063   2.397   4.419  12.837  0.3040  0.5462 -0.3579
14191TIP3    H164064   2.440   4.344  12.795 -0.0778  0.3206 -0.3540
14191TIP3    H264065   2.428   4.416  12.928  0.9925  0.9306 -0.5710
14192TIP3   OH264066   6.119   6.671   4.442 -0.1015 -0.1168  0.2305
14192TIP3    H164067   6.036   6.655   4.486  0.6846  1.2936  2.3726
14192TIP3    H264068   6.183   6.618   4.489  0.2909 -1.0451 -1.2716
14193TIP3   OH264069   1.721   2.554  16.418 -0.2429  0.3666 -0.3395
14193TIP3    H164070   1.769   2.634  16.395 -1.2248  1.2632  0.6676
14193TIP3    H264071   1.661   2.580  16.487 -2.3527 -0.6795 -1.6865
14194TIP3   OH264072   1.210   4.168   6.417  0.3593 -0.2992 -0.1797
14194TIP3    H164073   1.154   4.136   6.488 -0.0461 -1.2379 -0.8971
14194TIP3    H264074   1.299   4.154   6.450  0.1792 -0.5159  0.2328
14195TIP3   OH264075   3.029   0.125  10.148 -0.5835  0.2998 -0.8929
14195TIP3    H164076   3.059   0.150  10.235  1.3613  0.6896 -1.6139
14195TIP3    H264077   3.006   0.033  10.156 -0.2939  0.2984  0.0062
14196TIP3   OH264078   3.050   5.176  14.380  0.4791  0.5588  0.1823
14196TIP3    H164079   3.132   5.226  14.388  1.1844 -0.4840 -0.2921
14196TIP3    H264080   3.040   5.133  14.464  1.0532 -0.2212 -0.1300
14197TIP3   OH264081   6.084   2.266  11.402 -0.0431 -0.1274  0.6461
14197TIP3    H164082   6.040   2.320  11.468 -2.1263 -0.0016 -0.7764
14197TIP3    H264083   6.096   2.181  11.446 -0.6434  0.1936  1.4639
14198TIP3   OH264084   4.588   3.576   5.113 -0.1115  0.0612 -0.1870
14198TIP3    H164085   4.575   3.588   5.019  0.8112  0.3532 -0.2906
14198TIP3    H264086   4.576   3.664   5.150  0.5537  0.1536 -0.1718
14199TIP3   OH264087   1.206   0.636  10.795  0.1178 -0.0105 -0.8267
14199TIP3    H164088   1.120   0.672  10.773  1.4660  2.1366 -3.1015
14199TIP3    H264089   1.250   0.705  10.844  1.3512 -0.0684 -1.7940
14200TIP3   OH264090   2.401   2.598  15.993  0.1005 -0.2111  0.4065
14200TIP3    H164091   2.393   2.644  16.077  1.1479  0.0797  0.3683
14200TIP3    H264092   2.400   2.669  15.928 -3.4898 -0.5662 -0.1055
14201TIP3   OH264093   1.852   2.832   0.350  0.4127  0.4669 -0.2662
14201TIP3    H164094   1.919   2.872   0.405  0.5846  0.5645 -0.5478
14201TIP3    H264095   1.815   2.763   0.405  0.8718  0.2899 -0.1733
14202TIP3   OH264096   3.778   6.154   0.784 -0.2691 -0.0112 -0.2075
14202TIP3    H164097   3.791   6.240   0.823  0.3375 -0.6637  1.1107
14202TIP3    H264098   3.858   6.137   0.734 -1.5094  1.3056 -2.8006
14203TIP3   OH264099   6.417   4.813  16.844 -0.2587 -0.0766  0.9076
14203TIP3    H164100   6.432   4.850  16.930  1.7132 -0.9656  0.9974
14203TIP3    H264101   6.484   4.853  16.788 -0.5963 -0.5753  0.1221
14204TIP3   OH264102   1.288   2.342   0.539 -0.2885 -0.1113  0.1893
14204TIP3    H164103   1.285   2.260   0.589 -2.7406 -0.6183 -0.6239
14204TIP3    H264104   1.303   2.315   0.449 -0.5924  0.3656 -0.0101
14205TIP3   OH264105   1.436   5.142   2.874  0.6479  0.0561 -0.4561
14205TIP3    H164106   1.453   5.048   2.873 -1.8418 -0.4769 -2.1457
14205TIP3    H264107   1.521   5.182   2.855  1.6645 -1.8454 -0.1303
14206TIP3   OH264108   1.232   2.952  12.010 -0.0538  0.2829 -0.4847
14206TIP3    H164109   1.327   2.958  12.023 -0.3667  0.9018  1.8663
14206TIP3    H264110   1.212   2.860  12.026 -0.0604  0.4990  0.8328
14207TIP3   OH264111   1.005   5.695  14.590  0.2925 -0.2141  0.2975
14207TIP3    H164112   1.011   5.790  14.585 -0.3422  0.0241  2.7037
14207TIP3    H264113   1.094   5.667  14.611  0.1624  0.0210  1.2013
14208TIP3   OH264114   2.352   1.604   1.570  0.0983  0.4750 -0.0858
14208TIP3    H164115   2.275   1.567   1.525  1.3345 -1.0548 -1.0694
14208TIP3    H264116   2.360   1.693   1.535 -1.1258  0.6158 -0.0619
14209TIP3   OH264117   5.695   3.083   1.688 -0.2880  0.1106  0.0952
14209TIP3    H164118   5.753   3.150   1.723  0.4030 -0.2401 -0.3625
14209TIP3    H264119   5.613   3.129   1.670 -0.4391  0.4468  1.4921
14210TIP3   OH264120   3.849   1.713   4.796 -0.3418 -0.3504  0.2887
14210TIP3    H164121   3.832   1.657   4.872 -0.5534 -0.7723 -0.0625
14210TIP3    H264122   3.840   1.654   4.721 -0.3631  0.1135 -0.0743
14211TIP3   OH264123   1.632   1.101   2.625  0.6398 -0.3674 -0.4043
14211TIP3    H164124   1.694   1.048   2.675  0.9546  0.0013 -0.3887
14211TIP3    H264125   1.624   1.056   2.541 -1.1289 -1.8643  0.5219
14212TIP3   OH264126   4.619   6.372   1.979  0.1475  0.0453 -0.7101
14212TIP3    H164127   4.524   6.380   1.984  0.0442 -0.2774 -1.9942
14212TIP3    H264128   4.636   6.337   1.892  1.4143 -0.4808 -0.2703
14213TIP3   OH264129   3.680   5.123  13.144 -0.2513 -0.3990  0.1391
14213TIP3    H164130   3.772   5.119  13.170  0.2950  0.2055 -1.6053
14213TIP3    H264131   3.648   5.033  13.155  0.5299 -0.6094  0.7560
14214TIP3   OH264132   3.508   5.423   2.681 -0.2230  0.3713 -0.2669
14214TIP3    H164133   3.522   5.518   2.681 -1.9536  0.6627 -0.6516
14214TIP3    H264134   3.509   5.399   2.773  0.9454  0.6272 -0.1965
14215TIP3   OH264135   0.036   3.922  12.330  0.0134 -0.0183 -0.5901
14215TIP3    H164136   0.027   3.986  12.259  2.9015  0.9405 -0.2413
14215TIP3    H264137   0.004   3.968  12.408 -1.3374 -0.3749 -0.9082
14216TIP3   OH264138   2.232   1.253  11.763  0.5931 -0.4771  0.3758
14216TIP3    H164139   2.204   1.245  11.672 -1.1656  0.7612  0.7557
14216TIP3    H264140   2.304   1.316  11.761 -2.1685  2.9239  0.2062
14217TIP3   OH264141   2.644   2.217  13.241  0.0349 -0.1874 -0.3924
14217TIP3    H164142   2.585   2.195  13.313 -0.8984  0.1015 -1.0466
14217TIP3    H264143   2.588   2.261  13.177  1.0213  0.3450 -0.9128
14218TIP3   OH264144   6.330   5.026  10.829  0.3900  0.1312 -0.0503
14218TIP3    H164145   6.235   5.041  10.836  0.3537 -0.1684  0.0957
14218TIP3    H264146   6.351   5.052  10.739 -0.0352 -0.8617 -0.4540
14219TIP3   OH264147   0.487   1.881   1.436  0.0950 -0.0719 -0.0507
14219TIP3    H164148   0.459   1.802   1.391 -1.2069  1.4048 -2.0072
14219TIP3    H264149   0.557   1.917   1.382 -0.4904  0.9755 -0.1326
14220TIP3   OH264150   1.104   0.683  14.461  0.0220  0.1426 -0.4253
14220TIP3    H164151   1.077   0.596  14.432  0.7483 -0.0049 -0.6847
14220TIP3    H264152   1.043   0.742  14.418 -1.2292 -0.2902  0.6817
14221TIP3   OH264153   4.451   3.756   4.295  0.2030 -0.8005 -0.6545
14221TIP3    H164154   4.499   3.706   4.360 -3.0895 -1.6725  1.3449
14221TIP3    H264155   4.465   3.848   4.319  1.4386 -0.9765 -0.6449
14222TIP3   OH264156   2.231   1.073   5.044 -0.0995 -0.3105  0.1443
14222TIP3    H164157   2.211   1.141   4.979  0.9277 -0.8959 -0.8068
14222TIP3    H264158   2.294   1.115   5.103  1.0157 -0.6051 -0.8036
14223TIP3   OH264159   1.119   6.703   4.517 -0.1643 -0.3614  0.5083
14223TIP3    H164160   1.038   6.657   4.539 -2.5656  3.4577  0.7339
14223TIP3    H264161   1.153   6.733   4.601  0.1243  0.0373  0.2548
14224TIP3   OH264162   3.134   3.136  12.791 -0.7879  0.4046 -0.1217
14224TIP3    H164163   3.043   3.165  12.778 -0.4470  0.3243 -3.5139
14224TIP3    H264164   3.185   3.193  12.734  0.7328 -2.3740 -1.7237
14225TIP3   OH264165   4.000   0.848  16.914  0.4723  0.1729  0.1425
14225TIP3    H164166   4.006   0.755  16.890  0.6114  0.0418  0.6837
14225TIP3    H264167   4.061   0.858  16.987  3.3752  1.5342 -2.2752
14226TIP3   OH264168   2.401   2.494   4.876  0.3724 -0.7098 -0.0204
14226TIP3    H164169   2.352   2.483   4.957 -0.3009  1.9734  0.0279
14226TIP3    H264170   2.359   2.434   4.814  0.0721 -1.8442  1.2510
14227TIP3   OH264171   4.893   4.849   5.528 -0.2883 -0.3142  0.3999
14227TIP3    H164172   4.915   4.940   5.507  0.7815 -0.1719  1.9506
14227TIP3    H264173   4.963   4.821   5.587 -1.7086 -1.4801  1.6010
14228TIP3   OH264174   5.734   6.390   4.330  0.4675 -0.0112 -0.0244
14228TIP3    H164175   5.681   6.445   4.273 -0.0501  1.3602  1.6821
14228TIP3    H264176   5.822   6.426   4.324  0.3561  0.3102  0.2426
14229TIP3   OH264177   2.356   2.569  14.605  0.2110  0.5921  0.6213
14229TIP3    H164178   2.392   2.492  14.561  1.1308  1.0670  0.5071
14229TIP3    H264179   2.432   2.623  14.625 -0.5248  2.4590 -1.1779
14230TIP3   OH264180   2.033   4.375  14.181  0.0617  0.3934 -0.4258
14230TIP3    H164181   2.125   4.397  14.172 -0.0501  0.7682 -0.6872
14230TIP3    H264182   1.998   4.441  14.241  0.1654 -0.3155  0.4191
14231TIP3   OH264183   2.449   3.925  14.532 -0.3899  0.1148  0.7946
14231TIP3    H164184   2.386   3.854  14.544  0.2117 -0.7997 -1.1849
14231TIP3    H264185   2.401   3.993  14.484 -0.2102 -0.0733  0.3483
14232TIP3   OH264186   2.101   5.532   4.976 -0.0601 -0.3605 -0.2197
14232TIP3    H164187   2.014   5.503   5.003  0.0882  0.8566  1.7698
14232TIP3    H264188   2.134   5.462   4.920 -2.2570 -0.8994 -0.9094
14233TIP3   OH264189   5.766   4.183  15.523 -0.5084  0.1711  0.5816
14233TIP3    H164190   5.814   4.249  15.573  0.4996 -0.8855  1.0470
14233TIP3    H264191   5.834   4.127  15.485 -1.0876  1.8699 -3.4824
14234TIP3   OH264192   1.118   3.881   4.723 -0.1997 -0.1003  0.6417
14234TIP3    H164193   1.081   3.935   4.653  2.3002  1.5277  0.4288
14234TIP3    H264194   1.074   3.913   4.802 -1.8247 -0.7792  0.0498
14235TIP3   OH264195   0.443   1.905  16.151 -0.4746 -0.4802  0.4556
14235TIP3    H164196   0.476   1.920  16.239 -1.1810 -0.0357  0.6529
14235TIP3    H264197   0.513   1.857  16.107  0.0369 -0.3806  1.1420
14236TIP3   OH264198   0.353   4.414  13.625 -0.5673  0.1768 -0.2147
14236TIP3    H164199   0.275   4.382  13.670 -0.3037  1.0850  0.9366
14236TIP3    H264200   0.411   4.338  13.620 -1.6913 -0.6506 -1.5529
14237TIP3   OH264201   1.697   5.633   6.352 -0.8570 -0.1898 -0.0756
14237TIP3    H164202   1.661   5.616   6.438  0.5156 -1.6197  0.2701
14237TIP3    H264203   1.666   5.721   6.330  0.9383  1.4105  3.0547
14238TIP3   OH264204   6.101   2.558   1.959  0.4673 -0.1712 -0.4434
14238TIP3    H164205   6.117   2.647   1.929 -0.5124 -0.3507 -1.5892
14238TIP3    H264206   6.185   2.513   1.949  0.7022  0.3532 -0.8525
14239TIP3   OH264207   1.818   6.151  15.401 -0.2194 -0.1629 -0.3031
14239TIP3    H164208   1.885   6.198  15.451 -0.0006  0.5799 -1.2642
14239TIP3    H264209   1.850   6.152  15.311 -2.2852  1.7134 -1.1119
14240TIP3   OH264210   1.579   0.281  11.886 -0.1024  0.3357 -0.6331
14240TIP3    H164211   1.586   0.346  11.815  0.9632  0.3706 -0.5037
14240TIP3    H264212   1.653   0.300  11.943 -2.4288  2.1484  2.0858
14241TIP3   OH264213   1.192   5.521   0.605 -0.4411  0.0289  0.6250
14241TIP3    H164214   1.275   5.475   0.588 -0.8381 -0.0568 -1.3461
14241TIP3    H264215   1.132   5.452   0.631 -0.2228 -0.1057  0.7801
14242TIP3   OH264216   4.619   5.509  13.821  0.8520 -0.1125 -0.1423
14242TIP3    H164217   4.649   5.455  13.747  1.5188 -1.3478  0.9880
14242TIP3    H264218   4.589   5.590  13.780  1.2221 -0.7453 -1.7712
14243TIP3   OH264219   6.485   6.477  13.827  0.2863 -0.2700  0.4202
14243TIP3    H164220   6.510   6.504  13.739  0.5880  0.7297  0.8013
14243TIP3    H264221   6.565   6.440  13.864  0.8767  1.6040  1.1302
14244TIP3   OH264222   1.996   2.499   5.115 -0.1106 -0.3865  0.4314
14244TIP3    H164223   1.917   2.535   5.075 -0.1218  0.2839  1.0490
14244TIP3    H264224   1.962   2.440   5.184 -0.0895  0.7428  1.4429
14245TIP3   OH264225   5.687   5.921  16.405 -0.3687 -0.3087 -0.0395
14245TIP3    H164226   5.690   5.825  16.404  1.2218 -0.3125 -2.0196
14245TIP3    H264227   5.764   5.948  16.355 -0.7710  2.0196  0.4700
14246TIP3   OH264228   2.187   3.466   3.226 -0.3303  0.2045  0.5722
14246TIP3    H164229   2.264   3.411   3.212 -1.3270 -1.1381  0.1283
14246TIP3    H264230   2.190   3.531   3.157  1.0529  0.9393  1.3029
14247TIP3   OH264231   2.431   1.013  13.751  0.0230 -0.7724 -0.2016
14247TIP3    H164232   2.420   1.016  13.656 -0.5377 -0.4393 -0.1327
14247TIP3    H264233   2.345   1.037  13.786  0.4834  0.1247  0.3783
14248TIP3   OH264234   1.195   2.708   5.457 -0.3819  0.4670 -0.4711
14248TIP3    H164235   1.165   2.761   5.383 -1.6065  0.5168  0.0284
14248TIP3    H264236   1.161   2.753   5.534  1.1164  0.5686  0.1500
14249TIP3   OH264237   3.500   0.224   1.217 -0.2673  0.6223 -0.3337
14249TIP3    H164238   3.551   0.293   1.175  0.4790 -0.2106 -0.8243
14249TIP3    H264239   3.471   0.168   1.145 -1.6618  0.9143 -0.0441
14250TIP3   OH264240   6.598   6.736  14.405  0.5265 -0.0851 -0.0968
14250TIP3    H164241   6.538   6.671  14.368 -1.0777  1.3536 -0.1582
14250TIP3    H264242   6.616   6.704  14.493 -1.6637  0.2243  0.5186
14251TIP3   OH264243   6.053   4.959   2.229 -0.5335 -0.2791  0.3235
14251TIP3    H164244   5.974   5.011   2.215  0.3872  1.3345  0.8179
14251TIP3    H264245   6.034   4.908   2.308 -0.6872  0.9360  1.0912
14252TIP3   OH264246   5.818   5.531  12.107  0.1945 -0.4726 -0.0890
14252TIP3    H164247   5.891   5.498  12.055 -0.1402 -0.4258 -0.6077
14252TIP3    H264248   5.756   5.458  12.111  0.1282 -0.4082  0.0666
14253TIP3   OH264249   3.719   4.605  15.449 -0.5847 -0.4380  0.1770
14253TIP3    H164250   3.719   4.574  15.540  1.3247 -0.3658  0.2545
14253TIP3    H264251   3.790   4.670  15.446 -0.9147 -0.1077 -1.2621
14254TIP3   OH264252   1.598   5.928   2.884 -0.1378 -0.4271 -0.9691
14254TIP3    H164253   1.595   6.020   2.859 -0.3586 -0.2686 -0.3662
14254TIP3    H264254   1.689   5.911   2.905  0.1039 -0.6278 -2.0970
14255TIP3   OH264255   0.181   0.675   3.634  0.4857  0.1762  0.2109
14255TIP3    H164256   0.258   0.713   3.676  2.2812 -1.7305 -1.1495
14255TIP3    H264257   0.172   0.589   3.675 -0.8056  0.2825  0.1863
14256TIP3   OH264258   0.035   5.098  11.966  0.2280  0.0093  0.1431
14256TIP3    H164259   0.066   5.020  11.921  1.9476  1.4224 -1.2764
14256TIP3    H264260   0.101   5.165  11.947 -0.6802  1.5688  2.0925
14257TIP3   OH264261   0.013   6.334   6.531  0.5914 -0.2676  0.0209
14257TIP3    H164262   0.091   6.300   6.575  0.9025 -0.6974 -0.8486
14257TIP3    H264263   0.023   6.306   6.440 -0.7583 -0.6328 -0.0220
14258TIP3   OH264264   0.541   4.380   2.170 -0.0607 -0.3702  0.9698
14258TIP3    H164265   0.572   4.469   2.189  1.0850 -0.6007  0.2933
14258TIP3    H264266   0.589   4.325   2.232  0.2338 -0.6454  0.5028
14259TIP3   OH264267   5.117   6.705  10.287  0.2957  0.1556  0.1227
14259TIP3    H164268   5.129   6.795  10.318  0.8437  0.9062 -2.0600
14259TIP3    H264269   5.022   6.697  10.275  0.3756  1.2401 -1.6673
14260TIP3   OH264270   4.774   4.850  11.675 -0.2541 -0.0588 -0.0721
14260TIP3    H164271   4.837   4.811  11.735 -1.1230  1.3185  1.8331
14260TIP3    H264272   4.821   4.856  11.592  1.2946 -1.2200  0.6632
14261TIP3   OH264273   6.389   1.277  14.012  0.7048  0.1425  0.0560
14261TIP3    H164274   6.452   1.305  13.946 -0.3042  0.5411 -0.7670
14261TIP3    H264275   6.305   1.308  13.980 -0.0148 -0.9491  0.7929
14262TIP3   OH264276   6.354   6.511  12.478 -1.1572 -0.1482 -0.2739
14262TIP3    H164277   6.419   6.453  12.439 -2.7885 -0.7325 -2.2637
14262TIP3    H264278   6.403   6.560  12.545  1.1497 -0.9973 -1.2414
14263TIP3   OH264279   3.545   2.978  15.615  0.1676 -0.0081  0.0934
14263TIP3    H164280   3.492   3.055  15.598  1.0284  0.8877  1.3576
14263TIP3    H264281   3.635   3.009  15.615  0.5164 -0.9465  0.9025
14264TIP3   OH264282   1.563   1.263  16.529 -0.1605 -0.3255  0.9842
14264TIP3    H164283   1.642   1.317  16.522 -0.1282 -0.3412  1.2145
14264TIP3    H264284   1.491   1.325  16.527 -0.1221 -0.2704  1.2767
14265TIP3   OH264285   0.894   2.033  15.768 -0.0029  0.2978 -0.0740
14265TIP3    H164286   0.923   2.044  15.858  3.0547  1.5840 -1.0481
14265TIP3    H264287   0.880   1.939  15.758  1.9938 -0.2093  1.1869
14266TIP3   OH264288   1.056   0.034   5.819  0.1348 -0.6561  0.0022
14266TIP3    H164289   1.034   0.113   5.868 -1.6579 -1.0368 -0.1054
14266TIP3    H264290   1.083   0.065   5.733  0.4713 -0.1172  0.3001
14267TIP3   OH264291   5.066   6.633  15.230  0.6713  0.1032  0.2144
14267TIP3    H164292   4.974   6.606  15.238  0.6277  0.5368  1.3337
14267TIP3    H264293   5.115   6.552  15.240  0.4013 -0.3035 -1.4516
14268TIP3   OH264294   3.047   5.783   4.643  0.1664 -0.1020 -0.1277
14268TIP3    H164295   2.955   5.800   4.622  0.0327 -1.4488 -0.7407
14268TIP3    H264296   3.090   5.867   4.631 -1.1682  0.8555  1.3514
14269TIP3   OH264297   1.301   2.279  16.462 -0.0429  0.3464 -0.3660
14269TIP3    H164298   1.230   2.217  16.479 -0.6603  0.7285 -1.4260
14269TIP3    H264299   1.377   2.242  16.507  0.0319 -2.0894 -2.2489
14270TIP3   OH264300   3.011   4.291  14.130  0.1681 -0.1647 -0.7217
14270TIP3    H164301   2.938   4.315  14.073  0.4268  0.8032 -0.6624
14270TIP3    H264302   2.976   4.300  14.219  0.5299  0.9373 -0.6754
14271TIP3   OH264303   2.430   4.780  16.756  0.0868  0.0898  0.3891
14271TIP3    H164304   2.341   4.803  16.730  0.0505 -1.4736 -1.0196
14271TIP3    H264305   2.478   4.772  16.673  1.0524 -0.9904  1.0217
14272TIP3   OH264306   3.755   6.657   1.083 -0.0047  0.3881  0.2548
14272TIP3    H164307   3.780   6.612   1.163  2.9021  0.3672 -0.5619
14272TIP3    H264308   3.752   6.750   1.107  0.0640  0.3112  0.5558
14273TIP3   OH264309   3.217   0.800  11.551  0.0678 -0.2683  0.0518
14273TIP3    H164310   3.204   0.769  11.461  2.9868 -1.2060 -0.1484
14273TIP3    H264311   3.251   0.889  11.540  0.5063 -0.4148  0.2285
14274TIP3   OH264312   5.851   6.657  13.212 -0.5803 -0.1639 -0.5162
14274TIP3    H164313   5.839   6.675  13.119  1.3138 -1.0513 -0.9892
14274TIP3    H264314   5.938   6.616  13.217 -1.1306 -1.1965  1.4992
14275TIP3   OH264315   1.063   4.134   0.100  0.8869 -0.1629  0.1257
14275TIP3    H164316   0.971   4.157   0.113  0.8102 -0.3595 -0.0600
14275TIP3    H264317   1.112   4.202   0.147  0.7282  1.4394 -1.9118
14276TIP3   OH264318   5.545   0.591   3.749  0.6392  0.4425 -0.9369
14276TIP3    H164319   5.530   0.617   3.840  0.4016  0.4775 -0.9833
14276TIP3    H264320   5.480   0.522   3.733 -0.1782  1.2954 -1.4468
14277TIP3   OH264321   6.683   0.537  12.947 -0.0873  0.0346 -0.0649
14277TIP3    H164322   6.624   0.472  12.909 -3.6410  1.6052  2.2260
14277TIP3    H264323   6.671   0.615  12.892  0.4183  0.1402 -0.0231
14278TIP3   OH264324   4.362   5.228  16.555 -0.4937  0.2678 -0.5700
14278TIP3    H164325   4.405   5.176  16.487  0.6482 -0.4719  0.6765
14278TIP3    H264326   4.278   5.254  16.516  0.6357  0.9502 -2.7257
14279TIP3   OH264327   4.868   4.657   3.030  0.1815 -0.4019  0.1372
14279TIP3    H164328   4.794   4.667   2.971 -0.6060 -0.3573  1.1002
14279TIP3    H264329   4.883   4.745   3.066  0.9579 -0.3309 -0.3320
14280TIP3   OH264330   4.269   0.236  14.152 -0.0498  0.4611 -0.5575
14280TIP3    H164331   4.300   0.300  14.217 -0.7775  1.5321 -1.2337
14280TIP3    H264332   4.238   0.290  14.079 -0.2356 -0.6969 -1.3482
14281TIP3   OH264333   5.417   5.503   0.527 -0.2419 -0.1651 -0.7004
14281TIP3    H164334   5.373   5.485   0.444 -0.3091  1.0457 -0.9479
14281TIP3    H264335   5.384   5.589   0.553  0.8792  0.1091 -0.1455
14282TIP3   OH264336   6.499   3.161  11.312  0.2323  0.4401  0.1605
14282TIP3    H164337   6.428   3.143  11.250 -0.4356  2.8016  0.1347
14282TIP3    H264338   6.576   3.120  11.273 -0.4692  0.6048 -1.4805
14283TIP3   OH264339   5.655   1.121  12.452 -0.4486 -0.0590  0.1709
14283TIP3    H164340   5.735   1.087  12.413 -0.4763  0.1034 -0.0300
14283TIP3    H264341   5.650   1.212  12.423  0.6239  0.7288  2.2679
14284TIP3   OH264342   3.889   0.361   0.590  0.4211 -0.5383  0.3362
14284TIP3    H164343   3.828   0.366   0.517  1.6941  0.5187 -0.7102
14284TIP3    H264344   3.838   0.325   0.662 -1.1874 -0.4837 -0.7363
14285TIP3   OH264345   4.525   6.384   0.991 -0.2748 -0.0245  0.3116
14285TIP3    H164346   4.611   6.408   1.025  0.2730 -1.1052 -0.2384
14285TIP3    H264347   4.466   6.451   1.024  0.8944  1.1315  0.1297
14286TIP3   OH264348   1.753   5.074   0.495 -0.1018 -0.2870  0.1318
14286TIP3    H164349   1.761   4.979   0.494  1.3840 -0.1818 -1.5282
14286TIP3    H264350   1.814   5.105   0.428  0.0172  1.8894  1.1498
14287TIP3   OH264351   6.461   0.603   4.051  0.5540 -0.4470 -0.5234
14287TIP3    H164352   6.374   0.643   4.041  0.7234  0.3696  1.0005
14287TIP3    H264353   6.443   0.518   4.091  0.4950  0.1576  0.7861
14288TIP3   OH264354   2.712   3.751  15.399 -0.4874 -0.5328  0.4170
14288TIP3    H164355   2.662   3.670  15.402 -1.1434 -0.1287  0.5685
14288TIP3    H264356   2.676   3.800  15.325 -0.2237 -0.2962  0.4403
14289TIP3   OH264357   2.666   0.294  14.578 -0.1463 -0.4251 -0.2378
14289TIP3    H164358   2.701   0.241  14.506  1.8745  2.7759 -1.8309
14289TIP3    H264359   2.743   0.318  14.629 -0.7498  1.9609 -0.3444
14290TIP3   OH264360   1.746   2.614  13.819 -0.1974  0.4662  0.2274
14290TIP3    H164361   1.776   2.554  13.751 -2.1067  1.1369 -1.3020
14290TIP3    H264362   1.786   2.698  13.796 -0.7677  0.6711 -0.0426
14291TIP3   OH264363   3.548   5.013   5.572  0.6995 -0.4398  0.0748
14291TIP3    H164364   3.520   4.923   5.583 -0.4841 -0.1108 -0.1301
14291TIP3    H264365   3.478   5.065   5.613  1.2438  0.3881 -0.0193
14292TIP3   OH264366   2.353   6.524   6.308  0.0712  0.2724  0.4762
14292TIP3    H164367   2.444   6.523   6.277  0.8281  1.4605  2.5103
14292TIP3    H264368   2.303   6.558   6.233  1.1158 -1.2673 -1.0022
14293TIP3   OH264369   6.784   4.177   3.990 -0.0432  0.0906  0.3956
14293TIP3    H164370   6.793   4.263   4.030  0.8575  0.3164 -0.2629
14293TIP3    H264371   6.866   4.164   3.942 -0.8900 -0.3854 -0.9629
14294TIP3   OH264372   4.771   0.641  11.680 -0.2610 -0.2494  0.7155
14294TIP3    H164373   4.737   0.553  11.695  0.9313 -1.5095 -2.8748
14294TIP3    H264374   4.861   0.639  11.713 -0.3576 -0.2616  0.9764
14295TIP3   OH264375   1.343   4.770   1.282  0.4620  0.1476 -0.0757
14295TIP3    H164376   1.319   4.795   1.193  1.0002 -1.0003 -0.5646
14295TIP3    H264377   1.262   4.735   1.319  0.5277 -0.5462 -0.5588
14296TIP3   OH264378   1.388   5.654   5.025  0.2081 -0.1327 -0.2153
14296TIP3    H164379   1.313   5.609   5.064  0.2339 -0.0264 -0.0449
14296TIP3    H264380   1.463   5.624   5.076  0.0060  1.5657  1.1604
14297TIP3   OH264381   0.293   5.579   0.926  0.2583  0.1922 -0.2592
14297TIP3    H164382   0.279   5.606   0.835  1.0289  2.3318  0.1997
14297TIP3    H264383   0.208   5.591   0.967 -0.2893 -1.5062 -0.8262
14298TIP3   OH264384   6.158   1.082   6.113  0.2827  0.2856  0.2311
14298TIP3    H164385   6.173   1.080   6.019  1.0499  1.2652  0.3145
14298TIP3    H264386   6.181   1.171   6.139 -0.6490  0.2520  1.2352
14299TIP3   OH264387   3.734   2.796   1.886  0.1531  0.0936  0.3103
14299TIP3    H164388   3.728   2.723   1.948 -1.9941 -2.2374 -2.3536
14299TIP3    H264389   3.827   2.818   1.883  1.1377 -3.4955  0.2672
14300TIP3   OH264390   6.415   5.061   1.660  0.5657 -0.2656  0.1859
14300TIP3    H164391   6.414   4.992   1.726 -1.4253  0.0110  0.5098
14300TIP3    H264392   6.505   5.093   1.660  0.8091 -0.8201  2.1962
14301TIP3   OH264393   4.328   2.615  16.788 -0.0886 -0.0903 -0.1789
14301TIP3    H164394   4.304   2.613  16.880  1.1191 -0.1220  0.1437
14301TIP3    H264395   4.292   2.534  16.752 -0.5143 -0.1005  0.2649
14302TIP3   OH264396   0.641   0.609   3.525 -0.1303 -0.0455 -0.4955
14302TIP3    H164397   0.609   0.640   3.440  0.2038 -0.6078 -0.8272
14302TIP3    H264398   0.725   0.569   3.506 -0.8065 -1.7050 -0.1789
14303TIP3   OH264399   2.846   1.130  16.506 -0.4070 -0.0170  0.4871
14303TIP3    H164400   2.807   1.188  16.440 -0.6677  0.5454  1.1309
14303TIP3    H264401   2.932   1.108  16.470 -0.0687  1.2340  0.5065
14304TIP3   OH264402   5.463   1.172  16.609 -0.1973 -0.0847 -0.3513
14304TIP3    H164403   5.464   1.250  16.664  0.6722  0.3520 -0.9697
14304TIP3    H264404   5.493   1.101  16.666 -3.2854 -0.5357  0.9532
14305TIP3   OH264405   2.850   6.139   5.688 -0.3623 -0.5184  0.0803
14305TIP3    H164406   2.935   6.132   5.645 -1.5042 -1.8972 -2.1056
14305TIP3    H264407   2.844   6.061   5.743 -0.2334 -0.4104  0.2508
14306TIP3   OH264408   6.821   6.582   4.160  0.2847  0.5489 -0.1930
14306TIP3    H164409   6.891   6.535   4.114 -0.0606 -1.6009  1.3327
14306TIP3    H264410   6.868   6.636   4.224  0.6017  0.4544 -0.3420
14307TIP3   OH264411   0.516   5.788   2.382  0.5082 -0.1395  0.0941
14307TIP3    H164412   0.539   5.767   2.291 -0.8537 -2.6134  0.2177
14307TIP3    H264413   0.420   5.797   2.380  0.4953  0.0781  1.2405
14308TIP3   OH264414   5.234   3.248  16.491  0.2143 -0.3141 -0.2546
14308TIP3    H164415   5.142   3.234  16.513  0.3460 -1.6544 -0.4597
14308TIP3    H264416   5.273   3.283  16.570 -0.4893  0.3421 -0.1910
14309TIP3   OH264417   2.506   1.773   4.655 -0.3732 -0.2754 -0.6774
14309TIP3    H164418   2.526   1.806   4.743 -1.2472 -1.7020  0.1077
14309TIP3    H264419   2.427   1.821   4.630  0.2560  0.6179 -0.9811
14310TIP3   OH264420   1.650   5.909   4.628 -0.1290 -0.0772  0.1478
14310TIP3    H164421   1.593   5.851   4.679 -1.2767  1.1414  0.2945
14310TIP3    H264422   1.711   5.945   4.693  0.1494 -0.5686  0.1699
14311TIP3   OH264423   0.651   4.737   5.464 -0.0752 -0.2478  0.1589
14311TIP3    H164424   0.720   4.698   5.518  1.1886  0.2420 -1.0211
14311TIP3    H264425   0.651   4.829   5.488  0.9870  0.1153 -1.1212
14312TIP3   OH264426   0.545   4.669   3.158  0.1796  0.3596  0.0449
14312TIP3    H164427   0.482   4.661   3.087  0.9248  0.4071 -0.6469
14312TIP3    H264428   0.524   4.752   3.200 -1.1462 -0.3153  0.7749
14313TIP3   OH264429   5.795   5.440   2.368  0.0209  0.3452 -0.4209
14313TIP3    H164430   5.720   5.381   2.378  0.8690 -0.3981  2.7605
14313TIP3    H264431   5.755   5.526   2.352 -1.2559 -0.7697 -4.4642
14314TIP3   OH264432   5.397   2.315   1.394 -0.2377  0.7441  0.3050
14314TIP3    H164433   5.335   2.253   1.355 -0.1658 -0.1725  1.5716
14314TIP3    H264434   5.480   2.267   1.396 -0.0994  1.0089  0.9844
14315TIP3   OH264435   0.780   3.415   5.463  0.0657 -0.1526 -0.7776
14315TIP3    H164436   0.732   3.335   5.485 -1.5306  0.8666 -0.3565
14315TIP3    H264437   0.796   3.457   5.548 -1.7645  1.3904 -1.1159
14316TIP3   OH264438   2.173   4.468  16.349 -0.0398  0.5300  0.1122
14316TIP3    H164439   2.141   4.467  16.259 -1.9368  0.6236  0.7431
14316TIP3    H264440   2.268   4.459  16.341 -0.3128 -1.1635 -1.8137
14317TIP3   OH264441   3.780   5.889  14.441 -0.6502  0.1033 -0.5665
14317TIP3    H164442   3.848   5.841  14.490  0.1973  0.6518 -1.1691
14317TIP3    H264443   3.731   5.820  14.395 -0.3033 -0.2818 -0.3693
14318TIP3   OH264444   4.776   4.705  15.467  0.3497  0.5508  0.1730
14318TIP3    H164445   4.858   4.671  15.431  0.0314 -0.3583  0.2723
14318TIP3    H264446   4.721   4.722  15.391 -0.2083 -1.0727  0.1629
14319TIP3   OH264447   5.765   1.923   3.423  0.1342 -0.1268 -0.1782
14319TIP3    H164448   5.833   1.901   3.488  0.2177  0.9783  0.1298
14319TIP3    H264449   5.785   1.867   3.348  0.6284 -0.7288  0.3845
14320TIP3   OH264450   5.963   5.243   0.657  0.4804 -0.0611 -0.5068
14320TIP3    H164451   6.017   5.264   0.733  0.4441  0.8774 -0.7216
14320TIP3    H264452   5.956   5.148   0.658  1.6156 -0.1570 -0.1252
14321TIP3   OH264453   2.570   1.552   3.208  0.2018 -0.4782  0.1199
14321TIP3    H164454   2.630   1.558   3.282  0.3998  1.0135 -0.1211
14321TIP3    H264455   2.556   1.643   3.182 -2.3513 -0.7676  0.2902
14322TIP3   OH264456   4.434   4.213   1.408  0.6003 -0.0448 -0.4607
14322TIP3    H164457   4.366   4.260   1.360  1.0782 -0.5626 -1.6881
14322TIP3    H264458   4.391   4.185   1.489  0.4626  2.9895  0.6583
14323TIP3   OH264459   2.054   6.680   0.740 -0.2322 -0.4616 -0.1915
14323TIP3    H164460   2.119   6.737   0.699  0.0374  0.0512  0.8958
14323TIP3    H264461   2.068   6.594   0.700  2.1066 -0.7173  0.9864
14324TIP3   OH264462   5.133   1.794   0.184  0.1221  0.2217  0.0429
14324TIP3    H164463   5.164   1.864   0.242  0.4709  0.6906 -0.7009
14324TIP3    H264464   5.042   1.780   0.209 -0.2781  1.6870 -0.5132
14325TIP3   OH264465   6.706   5.077   1.588  0.1195  0.3043 -0.4090
14325TIP3    H164466   6.713   5.084   1.492  0.7666  0.2122 -0.3743
14325TIP3    H264467   6.728   5.165   1.620 -1.8364  0.8396 -0.4060
14326TIP3   OH264468   0.830   1.772  13.363 -0.1704 -0.2880 -0.5579
14326TIP3    H164469   0.769   1.787  13.291 -2.1068 -1.0836  0.8199
14326TIP3    H264470   0.774   1.749  13.437  1.7736 -0.1079  1.0550
14327TIP3   OH264471   0.720   5.517  11.037  0.5665 -0.3148 -0.0705
14327TIP3    H164472   0.774   5.458  10.985  0.1815  0.1922 -1.0650
14327TIP3    H264473   0.783   5.568  11.088  0.9797 -0.4138 -0.4719
14328TIP3   OH264474   0.300   2.802   3.301  0.3640 -0.5107 -0.0580
14328TIP3    H164475   0.302   2.775   3.392  0.9589 -1.8188 -0.4317
14328TIP3    H264476   0.207   2.798   3.277  0.1852  0.0093  0.5248
14329TIP3   OH264477   1.692   2.400  11.154 -0.6653  0.5463  0.2630
14329TIP3    H164478   1.724   2.386  11.065 -2.4482  3.4336 -0.9852
14329TIP3    H264479   1.759   2.454  11.196 -1.3400  2.0501 -0.5319
14330TIP3   OH264480   6.215   5.691  13.698 -1.1970  0.4759  0.1704
14330TIP3    H164481   6.168   5.759  13.746 -3.1199  0.1499 -1.1508
14330TIP3    H264482   6.224   5.619  13.761 -2.2112  0.6726  0.5643
14331TIP3   OH264483   1.097   4.311   4.952  0.6115  0.8647 -0.0121
14331TIP3    H164484   1.177   4.317   5.004  0.1554  0.9393  0.6977
14331TIP3    H264485   1.027   4.296   5.017  0.0076  1.1635 -0.5828
14332TIP3   OH264486   2.832   2.572   4.525 -0.7922 -0.2410 -1.0527
14332TIP3    H164487   2.817   2.639   4.459  0.3340  1.3910  0.2795
14332TIP3    H264488   2.744   2.551   4.558 -1.0459  2.7149  0.4849
14333TIP3   OH264489   3.759   3.022   0.653 -0.5612 -0.4225 -0.3816
14333TIP3    H164490   3.736   3.088   0.588 -0.8040 -1.3823 -1.3050
14333TIP3    H264491   3.855   3.016   0.648 -0.3180  1.2336  1.1284
14334TIP3   OH264492   5.361   3.188  15.804  0.0973 -0.0896 -0.3353
14334TIP3    H164493   5.383   3.175  15.896 -1.2479 -3.7810 -0.3629
14334TIP3    H264494   5.266   3.178  15.800  0.0451  0.6592 -2.0868
14335TIP3   OH264495   6.075   0.287  12.609  0.0143  0.2090  0.1401
14335TIP3    H164496   6.101   0.319  12.523 -0.2794 -1.3714 -0.5772
14335TIP3    H264497   5.981   0.301  12.613 -0.1419 -0.6554 -0.2423
14336TIP3   OH264498   3.759   3.754   2.771 -0.1596 -0.1607  0.0751
14336TIP3    H164499   3.839   3.758   2.823 -0.8408  2.7251  1.1107
14336TIP3    H264500   3.788   3.727   2.684  1.3900 -2.4424  1.1990
14337TIP3   OH264501   4.775   5.422   0.582  0.7801  1.0238 -0.6081
14337TIP3    H164502   4.766   5.336   0.541 -0.9133  0.3731  1.0037
14337TIP3    H264503   4.835   5.407   0.656 -0.3278  0.9517  0.3006
14338TIP3   OH264504   0.761   3.435   1.453 -0.3035  0.1636  0.0917
14338TIP3    H164505   0.847   3.438   1.496  0.1874 -1.3763 -0.6883
14338TIP3    H264506   0.781   3.442   1.360 -1.1682  1.2683 -0.0207
14339TIP3   OH264507   4.109   2.892   0.021  0.0459 -0.3252 -0.0397
14339TIP3    H164508   4.047   2.857  -0.043 -2.3554  0.1513  1.8730
14339TIP3    H264509   4.188   2.909  -0.030 -1.5808 -0.3166 -2.8006
14340TIP3   OH264510   0.201   3.149  14.018 -0.1267  0.0686 -0.4509
14340TIP3    H164511   0.196   3.124  14.111 -0.1324 -0.3441 -0.5606
14340TIP3    H264512   0.259   3.083  13.979 -1.3905 -0.7075 -1.0666
14341TIP3   OH264513   3.699   1.831  13.790 -0.2331  1.0919 -0.8691
14341TIP3    H164514   3.732   1.767  13.853  0.3553  0.1245 -2.1206
14341TIP3    H264515   3.649   1.893  13.843  2.3494  1.7838  0.9315
14342TIP3   OH264516   3.562   6.230   3.849 -0.5106 -0.2200  0.0450
14342TIP3    H164517   3.602   6.226   3.762  1.0520  0.0210  0.7136
14342TIP3    H264518   3.514   6.313   3.850 -0.9764 -0.4731 -0.7520
14343TIP3   OH264519   6.027   3.408   2.421  0.2168  0.1298  0.3872
14343TIP3    H164520   6.099   3.437   2.478  0.4459  1.2086 -0.4006
14343TIP3    H264521   6.065   3.338   2.368  0.9953  1.2940 -0.6468
14344TIP3   OH264522   0.897   2.930  14.368 -0.3923 -0.0357  0.1915
14344TIP3    H164523   0.979   2.904  14.410 -0.7291 -1.0461  0.2578
14344TIP3    H264524   0.845   2.849  14.365 -0.1358 -0.1932 -2.7375
14345TIP3   OH264525   0.248   1.791  15.963 -0.2540 -0.1473  1.0790
14345TIP3    H164526   0.197   1.863  15.926  0.9007 -0.0508 -0.3889
14345TIP3    H264527   0.323   1.834  16.004  0.3318 -0.4800  0.3804
14346TIP3   OH264528   6.195   4.679  14.853 -0.1048  0.5707  0.0512
14346TIP3    H164529   6.155   4.690  14.767  0.9117  0.5920 -0.4388
14346TIP3    H264530   6.257   4.752  14.860  0.2818  0.2010  0.5354
14347TIP3   OH264531   5.921   3.187  14.312 -0.3501 -0.3701  0.1430
14347TIP3    H164532   6.016   3.193  14.301 -0.1823 -0.3775  1.3530
14347TIP3    H264533   5.899   3.261  14.369 -1.3927  0.8280 -1.7204
14348TIP3   OH264534   4.379   1.891   4.589  0.2822 -0.0840  0.5651
14348TIP3    H164535   4.447   1.881   4.524  0.9098  1.1065  1.0123
14348TIP3    H264536   4.334   1.973   4.566  0.4789  0.3279  1.5703
14349TIP3   OH264537   5.847   4.923   5.722  0.0369 -0.5185  0.3338
14349TIP3    H164538   5.881   4.989   5.782 -0.8091  1.1121 -0.8763
14349TIP3    H264539   5.769   4.889   5.766  0.2872 -0.4629  0.8271
14350TIP3   OH264540   5.306   3.734   4.232 -0.6485  0.3061  0.2132
14350TIP3    H164541   5.351   3.818   4.225 -1.2124  0.6730  0.8605
14350TIP3    H264542   5.273   3.732   4.322 -1.3274 -0.2555 -0.0409
14351TIP3   OH264543   1.617   2.211  12.263 -0.0835  0.1878 -0.3948
14351TIP3    H164544   1.598   2.304  12.278  2.2057  0.7964 -0.8040
14351TIP3    H264545   1.671   2.186  12.338 -1.7689 -1.2258  0.3946
14352TIP3   OH264546   5.352   1.984  12.917 -0.0314  0.0972 -0.6470
14352TIP3    H164547   5.417   1.917  12.937 -0.7699 -0.6619 -0.7115
14352TIP3    H264548   5.364   2.003  12.824  1.1016  1.0979 -0.3281
14353TIP3   OH264549   3.629   1.379   2.729 -0.1545  0.0700  0.1197
14353TIP3    H164550   3.612   1.471   2.709 -1.8889 -0.3617 -0.5538
14353TIP3    H264551   3.724   1.374   2.740 -0.1632  2.2506  1.8700
14354TIP3   OH264552   0.093   3.148  12.911  0.7680  0.6983 -0.1646
14354TIP3    H164553   0.149   3.214  12.870 -0.5058  0.4569 -2.5207
14354TIP3    H264554   0.006   3.189  12.912  0.3848 -0.1056  0.4548
14355TIP3   OH264555   5.296   3.616  12.066  0.3628 -0.0558  0.4188
14355TIP3    H164556   5.388   3.630  12.088  0.4617  0.5690 -0.3461
14355TIP3    H264557   5.285   3.520  12.068  0.9114 -0.1144  0.9436
14356TIP3   OH264558   2.582   6.264   1.210 -0.5072  0.0634 -0.1038
14356TIP3    H164559   2.504   6.229   1.253  0.6737 -0.7680  1.4831
14356TIP3    H264560   2.639   6.188   1.199  0.2811  0.7338 -0.7768
14357TIP3   OH264561   3.776   3.904   4.863 -0.2990 -0.3637 -0.7196
14357TIP3    H164562   3.686   3.918   4.834 -1.4955  1.8619  3.3242
14357TIP3    H264563   3.771   3.831   4.925  1.2228 -1.7680 -2.1432
14358TIP3   OH264564   5.917   5.108  11.869 -0.4513  0.1243  0.1862
14358TIP3    H164565   5.874   5.147  11.945 -1.1373  0.9814 -0.6081
14358TIP3    H264566   5.866   5.028  11.851  0.0129 -0.3443  0.8989
14359TIP3   OH264567   1.972   2.591  13.666 -0.2260  0.4956 -0.4724
14359TIP3    H164568   2.029   2.654  13.622  2.1177 -1.9030 -1.0439
14359TIP3    H264569   2.019   2.568  13.746 -0.7213 -1.0185 -0.6001
14360TIP3   OH264570   0.949   2.162   0.406  0.0869  0.0014  0.0719
14360TIP3    H164571   0.975   2.189   0.494  3.5089  0.2716 -0.8768
14360TIP3    H264572   0.896   2.235   0.373  0.6822  0.9351  1.1335
14361TIP3   OH264573   6.585   0.726  13.357  0.0513  0.5000  0.4089
14361TIP3    H164574   6.635   0.648  13.333 -0.7669 -0.4881  1.7716
14361TIP3    H264575   6.606   0.741  13.449 -0.0313  1.7264  0.2421
14362TIP3   OH264576   1.961   4.711   5.238 -0.1689  0.1124 -0.0847
14362TIP3    H164577   2.039   4.731   5.185  0.9782 -0.3088  1.3698
14362TIP3    H264578   1.979   4.752   5.322 -1.1163 -0.7720  0.5663
14363TIP3   OH264579   2.928   2.397   2.223  0.2056  0.4652  0.2273
14363TIP3    H164580   2.952   2.371   2.312 -0.2713  2.6455  1.0606
14363TIP3    H264581   2.977   2.477   2.207 -0.0773  0.3637 -1.3083
14364TIP3   OH264582   2.559   4.367  16.473 -1.2312  0.1051  0.1280
14364TIP3    H164583   2.557   4.452  16.430 -1.1372 -0.3541 -0.8124
14364TIP3    H264584   2.470   4.333  16.462 -0.5556 -1.1803 -2.1808
14365TIP3   OH264585   5.950   1.228  12.934 -0.4784  0.3726 -0.1044
14365TIP3    H164586   5.988   1.157  12.883 -1.2357  0.6756 -1.1106
14365TIP3    H264587   5.858   1.231  12.907 -0.4880  1.6595  0.0067
14366TIP3   OH264588   6.429   0.594   6.122 -0.4914  0.1228 -0.0438
14366TIP3    H164589   6.377   0.618   6.045  0.0958 -0.6240 -0.6856
14366TIP3    H264590   6.493   0.531   6.090 -0.3683 -0.3684  1.0994
14367TIP3   OH264591   6.311   2.717   2.969  0.2464  0.1609 -0.3593
14367TIP3    H164592   6.291   2.805   2.939  1.2658  0.8264  0.8364
14367TIP3    H264593   6.371   2.682   2.903 -1.5752 -0.3902 -1.8386
14368TIP3   OH264594   4.129   4.900  16.168  0.8104  0.8251 -0.3716
14368TIP3    H164595   4.150   4.846  16.245  0.0397  1.8393  0.5880
14368TIP3    H264596   4.053   4.858  16.130 -0.8134  2.0549  1.3210
14369TIP3   OH264597   2.866   1.099  10.575 -0.3014 -0.0635  0.3800
14369TIP3    H164598   2.910   1.080  10.492  0.3046 -0.4137  0.7740
14369TIP3    H264599   2.911   1.176  10.609  1.7318 -1.8059  1.9588
14370TIP3   OH264600   4.429   0.985  11.220  0.2601 -0.4396 -0.3184
14370TIP3    H164601   4.510   0.941  11.246  0.2680 -0.0783  0.2799
14370TIP3    H264602   4.362   0.917  11.232  0.3978 -0.5700 -0.2701
14371TIP3   OH264603   6.440   2.431  12.889 -0.7898  0.2704 -0.1026
14371TIP3    H164604   6.445   2.492  12.963  0.3961 -0.8470  0.7857
14371TIP3    H264605   6.367   2.373  12.909 -0.9850  0.4760 -0.2182
14372TIP3   OH264606   1.424   1.075   3.028  0.3682 -0.1305 -0.4753
14372TIP3    H164607   1.331   1.076   3.052  0.8612  1.2292  1.6074
14372TIP3    H264608   1.448   0.983   3.029 -0.5110 -0.3768  0.9513
14373TIP3   OH264609   2.057   6.355   5.856  0.6469 -0.0494  0.5244
14373TIP3    H164610   1.973   6.370   5.813  0.0050 -0.1841  1.6825
14373TIP3    H264611   2.037   6.292   5.925  1.6656  0.0510  0.9268
14374TIP3   OH264612   2.645   3.792  16.297  0.3010  0.0981  0.5342
14374TIP3    H164613   2.699   3.870  16.284 -0.1213  0.6118  1.7418
14374TIP3    H264614   2.564   3.825  16.335 -1.2083 -0.5629 -1.9065
14375TIP3   OH264615   1.638   4.120  11.898  0.0160  0.4074  0.1536
14375TIP3    H164616   1.692   4.130  11.976 -2.4852 -0.7838  2.1987
14375TIP3    H264617   1.646   4.027  11.876  1.5219  0.9237 -1.7517
14376TIP3   OH264618   3.165   0.292   3.997  0.2206 -0.3181  0.3534
14376TIP3    H164619   3.122   0.217   4.038 -1.7956  0.2614 -0.5549
14376TIP3    H264620   3.102   0.323   3.932  0.0296  3.4714  2.1129
14377TIP3   OH264621   0.839   6.264  16.461  0.9131  0.2504 -0.0395
14377TIP3    H164622   0.889   6.241  16.539 -1.9882  2.4384  2.6726
14377TIP3    H264623   0.820   6.357  16.470 -0.4106  0.3668 -2.8595
14378TIP3   OH264624   1.251   1.392   6.567  0.5312  0.4102  0.1146
14378TIP3    H164625   1.343   1.409   6.590  0.3068  0.5497  0.9066
14378TIP3    H264626   1.248   1.298   6.549  0.4587  0.0416  1.8924
14379TIP3   OH264627   2.336   5.340  11.879 -0.2073 -0.5261 -0.2627
14379TIP3    H164628   2.269   5.404  11.902  1.1608  0.7542  0.2734
14379TIP3    H264629   2.417   5.391  11.869  0.7060 -2.0173 -0.9128
14380TIP3   OH264630   1.956   4.959  12.157 -0.0952 -0.0786 -0.1746
14380TIP3    H164631   1.997   5.037  12.120 -0.8749  0.1937 -0.4739
14380TIP3    H264632   1.993   4.886  12.108 -1.0585  0.2678 -1.4560
14381TIP3   OH264633   2.496   2.824  11.350 -0.1718  0.1792 -0.3809
14381TIP3    H164634   2.560   2.893  11.369 -1.4855  0.8353  1.9479
14381TIP3    H264635   2.421   2.871  11.314 -0.9021 -0.0534  0.7959
14382TIP3   OH264636   3.990   4.813  13.505 -0.7848 -0.3381  0.2738
14382TIP3    H164637   4.002   4.794  13.412 -0.6311  0.0481  0.2119
14382TIP3    H264638   3.895   4.813  13.517 -0.7818 -1.9126  0.4496
14383TIP3   OH264639   5.632   3.429   4.162  0.1046  0.1427 -0.6382
14383TIP3    H164640   5.666   3.514   4.188 -1.0001  0.2865  0.4606
14383TIP3    H264641   5.550   3.449   4.115  0.4818 -0.2700 -1.5033
14384TIP3   OH264642   4.205   5.760  12.938 -0.4173 -0.0904  0.2093
14384TIP3    H164643   4.153   5.834  12.907  1.7684  2.2942  1.9032
14384TIP3    H264644   4.154   5.723  13.010 -1.0779  0.3931 -0.0045
14385TIP3   OH264645   4.119   4.164  14.122 -0.0642 -0.0465  0.4880
14385TIP3    H164646   4.181   4.186  14.053 -0.4005  2.2691  0.8326
14385TIP3    H264647   4.040   4.136  14.076 -0.2660  1.4295 -0.1179
14386TIP3   OH264648   2.515   2.323  13.818 -0.3553  0.5620  0.1722
14386TIP3    H164649   2.437   2.327  13.762  0.1995  0.9161 -0.5853
14386TIP3    H264650   2.574   2.262  13.774 -0.9966 -1.3473  1.7956
14387TIP3   OH264651   0.071   2.142  16.434  0.1551 -0.6199 -0.1261
14387TIP3    H164652  -0.004   2.135  16.493 -0.7754 -0.9464 -1.3061
14387TIP3    H264653   0.106   2.229  16.451 -2.1022  0.6364 -1.3477
14388TIP3   OH264654   4.715   2.159   3.111  0.3067  0.5472 -0.8649
14388TIP3    H164655   4.629   2.154   3.069  0.3217  2.0704 -1.1299
14388TIP3    H264656   4.695   2.171   3.204  0.2062  1.6226 -1.0151
14389TIP3   OH264657   1.694   3.776   5.048 -0.1796  0.1567 -0.0491
14389TIP3    H164658   1.667   3.855   5.002 -0.9546 -0.6198 -0.9649
14389TIP3    H264659   1.640   3.706   5.011  0.7287 -0.8700  0.4885
14390TIP3   OH264660   4.107   5.101  14.873 -0.7234  0.9791  0.4914
14390TIP3    H164661   4.123   5.194  14.887 -2.8524  2.0028 -2.8238
14390TIP3    H264662   4.025   5.084  14.919 -0.0545  0.5601  1.5562
14391TIP3   OH264663   1.362   5.612   2.429 -0.7244 -0.0145  0.1955
14391TIP3    H164664   1.370   5.620   2.524 -1.1623  0.0061  0.2348
14391TIP3    H264665   1.349   5.518   2.414 -0.6871 -0.0135  0.1581
14392TIP3   OH264666   2.507   2.011  11.591  0.5070  0.2847 -0.5037
14392TIP3    H164667   2.571   1.975  11.652 -0.9176 -0.2148  0.7681
14392TIP3    H264668   2.540   2.098  11.570  0.7822  0.7213  1.4805
14393TIP3   OH264669   5.945   5.896   3.224  0.4963 -0.1041 -0.5606
14393TIP3    H164670   5.934   5.971   3.283  1.3153 -0.7153  0.3881
14393TIP3    H264671   6.017   5.922   3.166 -0.3267  0.5059 -1.3559
14394TIP3   OH264672   5.111   5.194   2.872  0.2861  0.1617  0.0853
14394TIP3    H164673   5.109   5.099   2.860  1.0396  0.1663 -0.1531
14394TIP3    H264674   5.103   5.206   2.967  0.0719 -0.1322  0.1066
14395TIP3   OH264675   3.475   0.774   1.585 -0.1205 -0.0611  0.5089
14395TIP3    H164676   3.446   0.751   1.674  2.2653 -1.1095  1.0915
14395TIP3    H264677   3.394   0.779   1.534 -1.5090 -0.0315  2.5906
14396TIP3   OH264678   6.335   5.277  14.826 -0.4581 -0.3537 -0.3025
14396TIP3    H164679   6.385   5.196  14.820  0.4062  0.1017  0.5504
14396TIP3    H264680   6.276   5.263  14.900  0.5868  0.2495  0.6738
14397TIP3   OH264681   6.047   1.494   1.808 -0.1017  0.0316 -0.0692
14397TIP3    H164682   6.103   1.437   1.755  0.4644  0.2832  0.2531
14397TIP3    H264683   6.096   1.575   1.818 -0.7541  0.4571 -0.2267
14398TIP3   OH264684   2.392   0.278   6.295 -0.3183  0.1698  0.2580
14398TIP3    H164685   2.331   0.339   6.255  0.1436 -0.8340 -2.1161
14398TIP3    H264686   2.467   0.331   6.320 -0.7239  0.8696 -0.0040
14399TIP3   OH264687   5.898   4.265   5.205  0.1249  0.1300  0.6840
14399TIP3    H164688   5.890   4.353   5.241  0.3757  0.0057  1.0547
14399TIP3    H264689   5.879   4.275   5.112  0.4774  0.6303  0.6617
14400TIP3   OH264690   4.465   0.764   3.575 -0.1910  0.4125  0.4547
14400TIP3    H164691   4.377   0.797   3.592 -0.9476 -1.2129 -0.0984
14400TIP3    H264692   4.452   0.691   3.514  1.5931  0.4468 -0.0240
14401TIP3   OH264693   2.666   5.652  11.163 -0.0718 -0.4776 -0.6747
14401TIP3    H164694   2.744   5.596  11.153  0.1381 -0.5383  1.0466
14401TIP3    H264695   2.631   5.660  11.074  2.6155  0.6248 -1.7412
14402TIP3   OH264696   4.573   1.109   3.266  0.0302 -0.3444  0.3936
14402TIP3    H164697   4.584   1.199   3.236  1.2688 -0.3820  0.6652
14402TIP3    H264698   4.662   1.073   3.264 -0.5382 -1.7504 -0.3021
14403TIP3   OH264699   2.351   4.981   4.512 -0.3240  0.1649  0.3365
14403TIP3    H164700   2.259   4.989   4.536 -0.3070 -0.1583  0.5109
14403TIP3    H264701   2.361   5.040   4.437 -1.5150 -2.4387 -2.0403
14404TIP3   OH264702   2.885   2.172  11.884 -0.0412  0.1813  0.3464
14404TIP3    H164703   2.863   2.217  11.965 -1.8502 -0.8718  0.4858
14404TIP3    H264704   2.960   2.222  11.849  0.6333  0.8034  2.4916
14405TIP3   OH264705   3.302   1.118  14.070  0.2018  0.5088 -0.3563
14405TIP3    H164706   3.319   1.061  14.145 -1.5958  0.5801  0.1490
14405TIP3    H264707   3.216   1.092  14.038  0.1921  1.6259 -1.3323
14406TIP3   OH264708   1.991   1.329  16.571  0.1736  0.0032 -0.7508
14406TIP3    H164709   2.084   1.335  16.594  0.0846  1.8681 -0.6974
14406TIP3    H264710   1.946   1.317  16.654  0.2619  0.9466 -0.5519
14407TIP3   OH264711   6.192   0.586  16.182 -0.2424  0.2078  0.0713
14407TIP3    H164712   6.145   0.547  16.256  1.6622  2.5029  2.7494
14407TIP3    H264713   6.226   0.512  16.133 -1.9145 -1.4464  1.2612
14408TIP3   OH264714   3.277   3.635  15.310 -1.0010  0.7433  0.0478
14408TIP3    H164715   3.373   3.631  15.314 -1.0787 -0.1348  1.3657
14408TIP3    H264716   3.253   3.567  15.247 -0.8184  0.2360  0.5296
14409TIP3   OH264717   2.942   6.015   4.517 -0.5098  0.1935 -0.1210
14409TIP3    H164718   2.894   5.996   4.597 -1.1226  1.2696 -0.1979
14409TIP3    H264719   2.938   6.111   4.509  2.4169  0.4352  0.3159
14410TIP3   OH264720   0.019   1.511  16.894  0.0866 -0.0908 -0.0482
14410TIP3    H164721   0.098   1.477  16.937  0.0913 -0.4527 -0.3335
14410TIP3    H264722   0.045   1.596  16.860  0.4043 -0.2771 -0.2767
14411TIP3   OH264723   0.832   0.571  17.021  0.2055  0.2972 -0.2749
14411TIP3    H164724   0.783   0.653  17.008 -0.7814 -0.5724 -2.4741
14411TIP3    H264725   0.836   0.531  16.935 -0.1290 -2.4514  0.8742
14412TIP3   OH264726   5.597   0.854  12.388  0.7635  0.3948 -0.1154
14412TIP3    H164727   5.529   0.813  12.442  0.8749  0.4262  0.0517
14412TIP3    H264728   5.606   0.942  12.425 -0.7804  1.2460 -1.6184
14413TIP3   OH264729   3.885   6.328  11.063  0.0436  0.3182  0.0063
14413TIP3    H164730   3.935   6.372  11.133 -1.2371  1.4102  0.2797
14413TIP3    H264731   3.918   6.238  11.063  1.2326  0.7219  0.9032
14414TIP3   OH264732   4.109   4.386   0.551 -0.1847  0.2773 -0.3722
14414TIP3    H164733   4.193   4.340   0.550  2.8351  5.0645 -0.6510
14414TIP3    H264734   4.062   4.349   0.626  1.9050 -2.8464 -0.4065
14415TIP3   OH264735   3.715   6.596   2.692  0.0535 -0.0791  0.4093
14415TIP3    H164736   3.809   6.614   2.692  0.2212 -0.9006 -0.0436
14415TIP3    H264737   3.700   6.548   2.610 -0.5145 -1.1904  1.1442
14416TIP3   OH264738   3.565   3.393  15.326  0.2437 -0.5955 -0.4749
14416TIP3    H164739   3.611   3.468  15.288 -0.2271 -0.2328 -0.3525
14416TIP3    H264740   3.563   3.412  15.420 -1.8331  0.4044 -0.6415
14417TIP3   OH264741   2.177   1.738   5.556  0.3449  0.1651  0.0091
14417TIP3    H164742   2.123   1.817   5.550  0.0855 -0.1015 -1.2992
14417TIP3    H264743   2.116   1.666   5.541  0.6862 -0.2746  0.6460
14418TIP3   OH264744   3.113   4.128  13.539  0.2196 -0.4748 -0.4390
14418TIP3    H164745   3.183   4.177  13.497  0.1081 -0.7218 -0.9227
14418TIP3    H264746   3.033   4.162  13.500  0.1830 -1.6982 -1.5212
14419TIP3   OH264747   0.099   0.748   6.336  0.1470  0.0853 -0.7009
14419TIP3    H164748   0.175   0.768   6.391  0.2928  0.5369 -1.0571
14419TIP3    H264749   0.027   0.798   6.374  0.1358  0.0156 -0.6315
14420TIP3   OH264750   1.870   0.646   3.796 -0.0584  0.3350 -0.2555
14420TIP3    H164751   1.863   0.732   3.837 -0.1903 -0.9245  2.6241
14420TIP3    H264752   1.963   0.625   3.798 -0.2685 -0.7717  1.9997
14421TIP3   OH264753   2.209   1.597   4.724 -1.0337  0.1815 -0.2118
14421TIP3    H164754   2.261   1.661   4.675 -0.7250 -1.4002 -2.0898
14421TIP3    H264755   2.231   1.513   4.684 -2.2209 -0.9914  1.4688
14422TIP3   OH264756   2.825   2.179  16.370 -0.4274 -0.1728  0.3383
14422TIP3    H164757   2.737   2.148  16.392  0.1255 -0.8458  1.7764
14422TIP3    H264758   2.812   2.263  16.326 -1.8367 -0.9171 -0.7381
14423TIP3   OH264759   1.778   5.799  14.900 -0.1225  0.4324 -0.0363
14423TIP3    H164760   1.746   5.740  14.968 -0.9000 -0.6840 -1.3051
14423TIP3    H264761   1.865   5.765  14.878 -0.3075  0.1284 -0.3183
14424TIP3   OH264762   2.788   1.195  14.494 -0.0203  0.1651 -0.1390
14424TIP3    H164763   2.755   1.106  14.479 -0.6287 -0.4715  3.8604
14424TIP3    H264764   2.711   1.244  14.522  0.7077  1.3934 -0.2466
14425TIP3   OH264765   1.985   6.526  15.301 -0.2770 -0.0881  0.4136
14425TIP3    H164766   1.913   6.579  15.336 -1.8599 -1.2826 -0.8359
14425TIP3    H264767   2.051   6.527  15.370 -1.1769  1.6490  1.3297
14426TIP3   OH264768   4.948   3.418   4.967  0.0021 -0.0581 -0.1463
14426TIP3    H164769   5.034   3.435   5.005 -0.6262  1.9251  0.4698
14426TIP3    H264770   4.888   3.416   5.042 -0.8023  0.8343 -0.7431
14427TIP3   OH264771   5.687   2.155   6.269 -0.0232 -0.2415  0.5066
14427TIP3    H164772   5.734   2.210   6.206 -0.3007 -1.4539 -0.7985
14427TIP3    H264773   5.596   2.156   6.240 -0.3796  0.1078  1.5856
14428TIP3   OH264774   3.634   4.853  16.641  0.2539 -0.1010  0.2283
14428TIP3    H164775   3.635   4.843  16.545  0.0206 -1.1212  0.3229
14428TIP3    H264776   3.669   4.941  16.656 -0.1015  0.2334 -0.8135
14429TIP3   OH264777   1.153   3.372   5.387 -0.2757 -0.1702  0.6540
14429TIP3    H164778   1.203   3.376   5.469 -1.5631 -0.2374  1.4693
14429TIP3    H264779   1.082   3.311   5.405 -0.3207 -0.5392 -0.6812
14430TIP3   OH264780   1.190   1.438  15.034  0.2595  0.5212 -0.1554
14430TIP3    H164781   1.234   1.508  15.081 -1.1079 -0.0324  2.0961
14430TIP3    H264782   1.197   1.362  15.092 -1.0785 -0.3402 -1.0579
14431TIP3   OH264783   2.791   6.588  17.087 -0.5774 -0.0153  0.1546
14431TIP3    H164784   2.711   6.591  17.139 -0.9398 -1.0266 -0.3105
14431TIP3    H264785   2.861   6.612  17.148 -1.1533  0.1683  0.7498
14432TIP3   OH264786   4.329   2.047   5.507 -0.2140 -0.1632  0.3252
14432TIP3    H164787   4.402   2.033   5.445 -1.4610 -3.9747 -0.5871
14432TIP3    H264788   4.362   2.013   5.590 -0.6267 -1.2819  0.0628
14433TIP3   OH264789   5.360   2.373  16.849 -0.0350  0.0810 -0.1867
14433TIP3    H164790   5.376   2.296  16.903  2.9862  0.1062 -0.8826
14433TIP3    H264791   5.316   2.435  16.908  0.2892 -1.0350  1.2755
14434TIP3   OH264792   1.061   6.597   0.992  0.5102 -0.7850  0.4046
14434TIP3    H164793   1.062   6.506   0.962 -0.4320 -1.1521  1.4030
14434TIP3    H264794   1.037   6.647   0.915  1.7003 -1.2908 -0.3273
14435TIP3   OH264795   6.346   4.677  15.594 -0.4150 -0.0508  0.2929
14435TIP3    H164796   6.395   4.609  15.640  0.6149  0.5188  0.0681
14435TIP3    H264797   6.323   4.740  15.662  0.9335  0.6907  0.0855
14436TIP3   OH264798   1.828   2.070  14.161  0.1376 -0.0836  0.1966
14436TIP3    H164799   1.803   2.010  14.091 -1.6248  0.4722  0.3017
14436TIP3    H264800   1.879   2.138  14.117  0.4061 -0.5786 -0.2667
14437TIP3   OH264801   6.014   5.266   4.274  0.1323 -0.6660  0.3379
14437TIP3    H164802   5.997   5.353   4.309  1.3842  0.3616 -1.4135
14437TIP3    H264803   6.075   5.227   4.337 -2.0691 -1.1857  2.2675
14438TIP3   OH264804   6.107   4.646   5.194 -0.3197  0.1657  0.4773
14438TIP3    H164805   6.033   4.686   5.240 -0.2660  0.9136 -0.0546
14438TIP3    H264806   6.131   4.711   5.128  0.6956 -0.1546  0.5207
14439TIP3   OH264807   2.567   5.894   5.495  0.2458 -0.4262  0.2270
14439TIP3    H164808   2.634   5.890   5.427 -0.8643  0.6195 -0.9757
14439TIP3    H264809   2.592   5.826   5.557  2.0850 -0.4500 -0.4851
14440TIP3   OH264810   1.526   1.623  11.751 -0.2709  0.6850 -0.4233
14440TIP3    H164811   1.462   1.581  11.695 -0.0192  0.4416 -0.5330
14440TIP3    H264812   1.500   1.599  11.840 -0.1957  0.3932 -0.4797
14441TIP3   OH264813   0.033   5.466   0.993 -0.0767 -0.2847  0.1402
14441TIP3    H164814  -0.016   5.385   0.980 -1.4249  0.3900  0.7704
14441TIP3    H264815   0.047   5.501   0.905  1.0200 -1.4519 -0.1820
14442TIP3   OH264816   6.752   6.809   1.093  0.1911  0.4351  0.3051
14442TIP3    H164817   6.783   6.881   1.148  0.4050  0.9204 -0.4394
14442TIP3    H264818   6.691   6.850   1.032  0.6470  0.0654 -0.4150
14443TIP3   OH264819   3.324   5.017   3.704 -0.2416  0.0940 -0.4709
14443TIP3    H164820   3.403   4.989   3.750  0.4406 -0.9637 -2.1724
14443TIP3    H264821   3.290   4.937   3.663 -2.2870  0.5132  0.3119
14444TIP3   OH264822   5.205   0.996   3.786 -0.0178  0.7630 -0.5171
14444TIP3    H164823   5.201   0.905   3.816  0.7460  0.4307 -1.3683
14444TIP3    H264824   5.125   1.037   3.822  0.2239  0.0828  0.8653
14445TIP3   OH264825   2.341   2.084  10.342  0.4027 -0.5965  0.1848
14445TIP3    H164826   2.372   1.995  10.326  0.9178 -0.6334  1.3067
14445TIP3    H264827   2.406   2.140  10.299 -0.0620 -0.7507 -0.7478
14446TIP3   OH264828   4.608   5.949  16.440 -0.1803  0.6539 -0.0826
14446TIP3    H164829   4.514   5.932  16.438 -0.1699  0.0536  2.1560
14446TIP3    H264830   4.648   5.862  16.450  0.6266  0.9092 -0.9426
14447TIP3   OH264831   6.362   3.669  15.250 -0.0637 -0.4158 -0.3935
14447TIP3    H164832   6.291   3.631  15.302 -0.0127 -0.6269 -0.4768
14447TIP3    H264833   6.344   3.642  15.160 -0.2565  0.1111 -0.5142
14448TIP3   OH264834   5.252   0.969  17.121  0.1752  0.3040 -0.1680
14448TIP3    H164835   5.240   0.880  17.152  3.0489 -0.0110  0.2370
14448TIP3    H264836   5.261   1.021  17.201  3.6452  0.0817 -0.2691
14449TIP3   OH264837   4.159   2.050   5.270  0.1828 -0.5608 -0.2073
14449TIP3    H164838   4.117   1.998   5.339 -0.7217 -0.2022 -0.4722
14449TIP3    H264839   4.250   2.058   5.299 -0.0626 -0.8437  0.6919
14450TIP3   OH264840   0.776   6.405   0.066 -0.6863 -0.5504  0.3237
14450TIP3    H164841   0.781   6.500   0.082 -2.3123 -0.4327  0.2087
14450TIP3    H264842   0.690   6.391   0.029  0.3614 -1.7948 -1.8280
14451TIP3   OH264843   5.720   4.092  17.004  0.1163  0.6202 -0.0704
14451TIP3    H164844   5.683   4.078  17.091 -0.7009  1.3845 -0.2657
14451TIP3    H264845   5.806   4.130  17.020  0.0030  0.6825  0.4116
14452TIP3   OH264846   4.708   4.035  10.801 -0.6034  0.0051 -0.3085
14452TIP3    H164847   4.635   3.987  10.763 -0.2995 -1.9508  1.3640
14452TIP3    H264848   4.754   4.072  10.727 -1.2339 -1.8190 -1.6870
14453TIP3   OH264849   0.766   3.726  12.239  0.4475 -0.0066 -0.5416
14453TIP3    H164850   0.714   3.649  12.260 -0.3780  1.0887  1.6503
14453TIP3    H264851   0.762   3.780  12.317  2.9128  1.2350 -1.1844
14454TIP3   OH264852   1.850   5.201   0.771  0.0532  0.4405  0.2440
14454TIP3    H164853   1.810   5.178   0.687  0.3126 -1.2979  0.5663
14454TIP3    H264854   1.784   5.180   0.837  0.3356  0.5496  0.5670
14455TIP3   OH264855   3.460   1.373  16.528  0.7498 -0.0360 -0.0380
14455TIP3    H164856   3.388   1.411  16.577 -0.3929 -1.2055 -0.7477
14455TIP3    H264857   3.502   1.447  16.486  1.1356  0.8696  1.8492
14456TIP3   OH264858   3.591   0.567  11.906  0.6403  0.1603 -0.2364
14456TIP3    H164859   3.542   0.533  11.981  1.2088  0.9903  0.5248
14456TIP3    H264860   3.532   0.630  11.866  0.7848  0.6030  0.2341
14457TIP3   OH264861   3.501   0.402  12.570  0.0837  0.4751 -0.2213
14457TIP3    H164862   3.447   0.324  12.579  0.0252  0.5498  0.1254
14457TIP3    H264863   3.590   0.373  12.589  0.3460  0.1284 -1.8573
14458TIP3   OH264864   5.828   3.478  16.106  0.1086 -0.0858 -0.0008
14458TIP3    H164865   5.857   3.548  16.165 -0.4402  0.3031 -0.1933
14458TIP3    H264866   5.741   3.454  16.138 -0.8629  1.1888 -1.5637
14459TIP3   OH264867   2.150   2.262   3.998  0.5788  0.1189 -0.7122
14459TIP3    H164868   2.130   2.170   3.978 -0.1924 -0.0969  0.8863
14459TIP3    H264869   2.230   2.280   3.950 -0.3247 -0.7769 -2.6600
14460TIP3   OH264870   6.377   1.813  12.501 -0.2175 -0.5559 -0.2007
14460TIP3    H164871   6.410   1.747  12.562 -0.8351 -0.5300  0.1716
14460TIP3    H264872   6.442   1.815  12.430  0.4994 -0.5961  0.4424
14461TIP3   OH264873   4.213   3.646   4.197  0.2475  0.2367 -0.3777
14461TIP3    H164874   4.262   3.710   4.248  0.0723  1.1282 -1.3141
14461TIP3    H264875   4.279   3.587   4.161  0.4904  0.4573 -0.2926
14462TIP3   OH264876   4.516   1.601   5.313 -0.3131 -0.3598 -0.3484
14462TIP3    H164877   4.438   1.560   5.351 -0.7532  0.3821 -0.4445
14462TIP3    H264878   4.526   1.683   5.361 -0.0266 -0.1021 -0.8444
14463TIP3   OH264879   2.114   1.212   0.526  0.5192 -0.3394  0.4568
14463TIP3    H164880   2.191   1.224   0.583  1.3655 -0.0853 -0.7074
14463TIP3    H264881   2.143   1.241   0.440 -0.7256 -0.7628 -0.1303
14464TIP3   OH264882   1.923   6.414  16.866  0.3262  0.3679  0.1069
14464TIP3    H164883   2.002   6.392  16.816  1.1040 -1.3688  1.9925
14464TIP3    H264884   1.856   6.425  16.799  1.7580  0.1824 -1.4437
14465TIP3   OH264885   3.512   4.830   5.127 -0.5705 -0.1922 -0.3261
14465TIP3    H164886   3.578   4.802   5.063 -0.2624 -1.7403  0.6264
14465TIP3    H264887   3.558   4.895   5.181 -0.4518  0.2029 -0.8939
14466TIP3   OH264888   3.592   6.020  16.742 -0.1098  0.4195  0.1098
14466TIP3    H164889   3.676   5.986  16.711  0.0570 -0.0537  1.0562
14466TIP3    H264890   3.527   5.979  16.685  0.3510  1.7323 -1.4507
14467TIP3   OH264891   3.406   5.607  12.555  0.1448  0.2912 -0.3264
14467TIP3    H164892   3.319   5.604  12.516 -0.4113  0.9238  0.8152
14467TIP3    H264893   3.426   5.700  12.564 -0.1047  0.2095  1.5736
14468TIP3   OH264894   6.175   6.043   3.156  0.8812  0.1259  0.2880
14468TIP3    H164895   6.113   6.107   3.194 -2.2286 -1.6936 -1.3341
14468TIP3    H264896   6.256   6.093   3.145 -1.1435  3.6826 -0.3218
14469TIP3   OH264897   3.824   6.537   1.307 -0.2406  0.3497 -0.3082
14469TIP3    H164898   3.809   6.449   1.273  0.0258  0.1924 -0.0178
14469TIP3    H264899   3.848   6.524   1.399  2.9473  0.4802 -1.0071
14470TIP3   OH264900   0.040   2.353   3.658 -0.1948  0.0497 -0.1725
14470TIP3    H164901   0.108   2.332   3.723 -0.9297 -0.5928  0.4064
14470TIP3    H264902   0.017   2.444   3.675  0.1026  0.0919  0.0109
14471TIP3   OH264903   1.834   0.873   3.960  0.7988  0.1142 -0.4557
14471TIP3    H164904   1.856   0.945   3.901 -0.8023  1.4861  0.5180
14471TIP3    H264905   1.900   0.876   4.028 -0.3744  2.0807  0.7001
14472TIP3   OH264906   4.199   2.841  12.098  0.4140  0.7435 -0.0195
14472TIP3    H164907   4.260   2.775  12.063  0.2033  0.8202 -0.5492
14472TIP3    H264908   4.112   2.810  12.069  0.3486  1.4521 -0.6070
14473TIP3   OH264909   1.829   6.498  16.025  0.3843 -0.0284  0.1355
14473TIP3    H164910   1.871   6.455  15.951 -0.5729  1.8075 -1.5645
14473TIP3    H264911   1.850   6.442  16.100  1.7342 -1.7415 -1.4178
14474TIP3   OH264912   6.674   4.682  13.372 -0.0975  0.1624  0.7934
14474TIP3    H164913   6.635   4.604  13.411 -1.2704 -0.2963 -1.1761
14474TIP3    H264914   6.684   4.660  13.279 -0.2419  2.2733  0.2336
14475TIP3   OH264915   1.734   3.742   1.828  0.5297 -0.4071  0.1088
14475TIP3    H164916   1.778   3.790   1.898 -1.4036 -1.1827  1.9541
14475TIP3    H264917   1.665   3.802   1.799  0.4256 -0.6556 -0.1524
14476TIP3   OH264918   1.629   0.366  14.553  0.1514  0.0893 -0.2841
14476TIP3    H164919   1.713   0.373  14.507  0.3348 -1.5104 -0.2485
14476TIP3    H264920   1.648   0.391  14.643  0.0955  1.8532 -0.7267
14477TIP3   OH264921   5.826   2.490  11.152 -0.2755  0.4661  0.5451
14477TIP3    H164922   5.912   2.523  11.126 -0.6726  0.3303 -1.0452
14477TIP3    H264923   5.775   2.491  11.071 -1.2733 -1.0114  1.1117
14478TIP3   OH264924   3.449   0.829   6.019 -0.4542 -0.0129 -0.4508
14478TIP3    H164925   3.504   0.841   6.096 -1.1754 -2.1575  0.4902
14478TIP3    H264926   3.378   0.893   6.029  0.2806  0.7562 -0.1345
14479TIP3   OH264927   2.125   1.240   0.184 -0.1956 -0.5159  0.3276
14479TIP3    H164928   2.079   1.255   0.101  0.1318 -1.6614 -0.0823
14479TIP3    H264929   2.070   1.282   0.250 -0.4688  0.3969 -0.4650
14480TIP3   OH264930   4.582   1.186  14.661 -0.2550 -0.1463  0.2608
14480TIP3    H164931   4.536   1.267  14.639  1.2430  0.4497 -0.8860
14480TIP3    H264932   4.553   1.165  14.749 -1.0268  1.4005  0.4066
14481TIP3   OH264933   0.386   1.028  16.068 -0.7627  0.2200  0.2984
14481TIP3    H164934   0.441   1.045  16.145 -1.1824 -1.4229  0.9988
14481TIP3    H264935   0.416   1.092  16.003 -0.1624  1.4207  1.6920
14482TIP3   OH264936   1.435   2.779  13.150 -0.3335  0.2712  0.1270
14482TIP3    H164937   1.367   2.712  13.149 -0.5552  0.4729  0.9667
14482TIP3    H264938   1.517   2.730  13.158 -0.5155  0.1017  1.0966
14483TIP3   OH264939   5.474   6.094   4.904  0.2262  0.1011 -0.3171
14483TIP3    H164940   5.416   6.086   4.980  2.0272  1.5220  1.2796
14483TIP3    H264941   5.469   6.008   4.861 -1.1778 -0.5869  1.1259
14484TIP3   OH264942   1.353   0.299   2.306 -0.1793 -0.3916 -0.1709
14484TIP3    H164943   1.383   0.388   2.324  0.2480 -0.3466 -1.0492
14484TIP3    H264944   1.355   0.292   2.210  3.1014 -2.4357 -0.1069
14485TIP3   OH264945   4.162   2.532  14.487  0.0930 -0.3030 -0.5136
14485TIP3    H164946   4.160   2.564  14.397  1.1070  0.6953 -0.1883
14485TIP3    H264947   4.124   2.603  14.539 -1.1910 -1.1685 -0.2114
14486TIP3   OH264948   0.755   4.659   4.353 -0.9861 -0.2172  0.1708
14486TIP3    H164949   0.702   4.739   4.353 -2.5617 -1.2025 -0.8401
14486TIP3    H264950   0.743   4.623   4.441  1.4807  1.6812  1.3964
14487TIP3   OH264951   5.047   4.715   5.304 -0.5636  0.1387 -0.1955
14487TIP3    H164952   5.048   4.620   5.304  2.3488  0.0924 -0.3962
14487TIP3    H264953   4.973   4.738   5.360 -0.0366 -2.2867  1.6620
14488TIP3   OH264954   4.162   1.868   1.356 -0.6037 -0.3547 -0.2513
14488TIP3    H164955   4.188   1.960   1.356 -0.0376 -0.4058  2.7328
14488TIP3    H264956   4.067   1.870   1.344 -0.4357  0.4779 -1.6471
14489TIP3   OH264957   2.301   5.492  11.299  0.1142 -0.4739 -0.2933
14489TIP3    H164958   2.366   5.560  11.286 -0.5948  0.2653 -0.0510
14489TIP3    H264959   2.349   5.419  11.338  0.7385  0.1622  0.1393
14490TIP3   OH264960   0.887   6.411   5.243  0.1771 -0.0438 -0.9598
14490TIP3    H164961   0.793   6.414   5.224  0.2360  0.5130 -1.1570
14490TIP3    H264962   0.905   6.317   5.252 -0.4199 -0.1520 -0.7999
14491TIP3   OH264963   2.617   6.368  13.506 -0.1335 -0.3662 -0.2084
14491TIP3    H164964   2.560   6.442  13.526  0.2761  0.4691 -1.8595
14491TIP3    H264965   2.682   6.367  13.576 -0.1286  0.8925 -0.1735
14492TIP3   OH264966   4.079   4.869   0.653 -0.3869  0.1818  0.1919
14492TIP3    H164967   4.174   4.859   0.664 -0.0368  0.6032 -1.9753
14492TIP3    H264968   4.047   4.781   0.635  0.0399  0.3735 -1.6985
14493TIP3   OH264969   4.960   0.313   4.760 -0.0203 -0.1165  0.1390
14493TIP3    H164970   4.886   0.284   4.814  0.1906  1.8167  1.5594
14493TIP3    H264971   4.919   0.358   4.687 -0.2728 -1.5097 -0.6175
14494TIP3   OH264972   5.241   3.275  12.415  0.2668 -0.8229 -0.3539
14494TIP3    H164973   5.151   3.307  12.411  0.4190 -0.3081  0.1500
14494TIP3    H264974   5.246   3.206  12.348 -1.0565 -2.2818  0.9770
14495TIP3   OH264975   6.570   1.979   0.490 -0.8287  0.1744  0.3529
14495TIP3    H164976   6.633   1.972   0.418 -2.3937 -0.8657 -0.9987
14495TIP3    H264977   6.536   2.068   0.484 -1.0036  0.0694 -0.2414
14496TIP3   OH264978   3.808   2.632   5.561  0.1550  0.0962 -0.7978
14496TIP3    H164979   3.735   2.692   5.542 -0.0185 -0.2048 -1.0913
14496TIP3    H264980   3.834   2.654   5.650 -1.9809 -1.5291  0.3031
14497TIP3   OH264981   1.526   5.738   0.458 -0.6061 -0.7327  0.6702
14497TIP3    H164982   1.519   5.685   0.378 -1.4849  0.0765  0.1759
14497TIP3    H264983   1.567   5.681   0.522  0.6560 -1.2239 -0.5287
14498TIP3   OH264984   2.800   2.962   3.968  0.3310  0.4839  0.5599
14498TIP3    H164985   2.732   3.025   3.948  0.3980  0.9901  1.8034
14498TIP3    H264986   2.819   2.976   4.061  1.1513 -0.5896  0.5792
14499TIP3   OH264987   6.127   0.170  14.358  0.0960  0.3690  0.2680
14499TIP3    H164988   6.084   0.249  14.391 -0.3095  0.2259  0.1021
14499TIP3    H264989   6.062   0.101  14.372 -0.7400  0.5487 -2.2162
14500TIP3   OH264990   3.102   2.895   4.222 -0.2852 -0.2975  0.0786
14500TIP3    H164991   3.023   2.932   4.262  0.1114 -1.0381  1.6482
14500TIP3    H264992   3.164   2.968   4.222 -1.1091  0.4627 -1.7230
14501TIP3   OH264993   5.686   6.380  16.014  0.3338  0.2475 -0.1305
14501TIP3    H164994   5.591   6.387  16.004  0.4837 -0.0459 -1.9612
14501TIP3    H264995   5.717   6.470  16.005  0.2978  0.2544 -0.1832
14502TIP3   OH264996   4.223   4.927  15.903 -0.6589  0.0799 -1.2987
14502TIP3    H164997   4.276   4.848  15.910  0.5537  0.8452 -1.4314
14502TIP3    H264998   4.186   4.939  15.990  0.7830  0.4457 -0.7032
14503TIP3   OH264999   2.317   0.759  11.441  0.0740 -0.8128 -0.0505
14503TIP3    H165000   2.405   0.725  11.455 -0.3950 -1.9757  0.1808
14503TIP3    H265001   2.305   0.758  11.346  1.7534  3.2233 -0.5185
14504TIP3   OH265002   4.476   3.853   1.933 -0.0435  0.4758  0.2157
14504TIP3    H165003   4.517   3.841   2.018  1.1470 -0.0983 -0.4147
14504TIP3    H265004   4.530   3.919   1.889 -1.0803  1.3153  0.1699
14505TIP3   OH265005   5.173   6.109  12.037 -0.2420 -0.1516  0.3918
14505TIP3    H165006   5.099   6.165  12.061  0.0332  0.1355  0.5832
14505TIP3    H265007   5.136   6.044  11.977 -0.6396  0.0150  0.4556
14506TIP3   OH265008   6.112   5.729   6.023 -0.0256 -0.3186  1.1487
14506TIP3    H165009   6.083   5.695   6.107  0.4233 -3.5777  0.1589
14506TIP3    H265010   6.202   5.757   6.038  0.6102 -2.3473  1.5262
14507TIP3   OH265011   1.760   4.150  13.023 -0.0088  0.7009  0.1687
14507TIP3    H165012   1.823   4.088  13.059  0.4692  2.4416  2.5548
14507TIP3    H265013   1.723   4.105  12.947  2.2565 -1.3715  0.1784
14508TIP3   OH265014   5.009   1.399  10.577  0.2556  0.3594  0.8763
14508TIP3    H165015   5.074   1.469  10.584  0.4271  0.4743 -1.1049
14508TIP3    H265016   5.035   1.335  10.643  2.3987  0.4182  0.1543
14509TIP3   OH265017   4.514   6.277  13.973  0.4106  0.1935 -0.7380
14509TIP3    H165018   4.544   6.271  14.063  0.0425 -1.0206 -0.6865
14509TIP3    H265019   4.512   6.371  13.955 -0.5590  0.5174  0.8637
14510TIP3   OH265020   3.432   1.173  13.288 -0.0154  0.1333 -0.0168
14510TIP3    H165021   3.398   1.173  13.378 -0.6737  0.8620 -0.2533
14510TIP3    H265022   3.356   1.193  13.234  0.5130  0.3749 -0.6787
14511TIP3   OH265023   1.041   2.239  10.929  0.4123 -0.3340 -0.2508
14511TIP3    H165024   1.132   2.252  10.956  0.2046 -1.2960  0.9847
14511TIP3    H265025   1.004   2.328  10.925  1.5646  0.1201 -1.4605
14512TIP3   OH265026   2.488   1.106  16.231 -0.2407  0.2864 -0.2858
14512TIP3    H165027   2.461   1.097  16.323 -1.1780  0.6275 -0.5189
14512TIP3    H265028   2.513   1.198  16.223 -3.8403  1.3094 -1.2812
14513TIP3   OH265029   2.427   4.663   4.241  0.5365  0.0018  0.0228
14513TIP3    H165030   2.517   4.654   4.208  0.1405  0.2295 -1.1858
14513TIP3    H265031   2.380   4.589   4.203  0.1272  0.0820  0.3656
14514TIP3   OH265032   1.966   4.633   2.753  0.3927 -0.0199  0.1312
14514TIP3    H165033   1.979   4.715   2.800 -0.7200  1.7266 -2.3933
14514TIP3    H265034   1.872   4.616   2.760  0.1890  0.3210 -1.4276
14515TIP3   OH265035   0.074   5.580   6.278 -0.1950 -0.3008  0.0610
14515TIP3    H165036   0.139   5.517   6.246  1.0360  1.7765 -1.7846
14515TIP3    H265037  -0.010   5.536   6.266  0.6631 -1.9605 -0.1679
14516TIP3   OH265038   4.623   3.275  12.042 -0.1633 -0.1093 -0.6811
14516TIP3    H165039   4.546   3.241  11.997  0.5225  0.3465 -2.2545
14516TIP3    H265040   4.697   3.246  11.989  0.6629  0.6977 -0.0020
14517TIP3   OH265041   6.561   2.916   3.098 -0.0664  0.7552 -0.1471
14517TIP3    H165042   6.472   2.941   3.072 -1.0688 -1.0098  1.3368
14517TIP3    H265043   6.578   2.834   3.051  0.8645  1.1672 -0.5570
14518TIP3   OH265044   2.902   0.302   1.852  0.6101  0.0940  0.5443
14518TIP3    H165045   2.921   0.368   1.784  1.2609 -0.1258  0.4987
14518TIP3    H265046   2.849   0.348   1.916 -1.3497 -0.0995 -0.8490
14519TIP3   OH265047   0.498   4.392  10.677 -0.2712  0.1250  0.3100
14519TIP3    H165048   0.571   4.330  10.676  0.9031  1.4077  2.0917
14519TIP3    H265049   0.534   4.472  10.638 -1.1437  0.3713 -0.0179
14520TIP3   OH265050   2.128   6.097   1.255 -0.2844  0.5343  0.0675
14520TIP3    H165051   2.124   6.105   1.160  0.5364 -0.9236 -0.1175
14520TIP3    H265052   2.037   6.080   1.281 -0.6295  1.6713 -0.3665
14521TIP3   OH265053   2.465   3.740  11.375 -0.9304  0.2462 -0.2197
14521TIP3    H165054   2.529   3.765  11.309 -0.5599 -0.0894  0.0128
14521TIP3    H265055   2.517   3.706  11.448 -1.1088  2.9490  1.3183
14522TIP3   OH265056   2.461   4.312   5.652 -0.5233 -0.4810  0.3134
14522TIP3    H165057   2.393   4.330   5.717 -1.7633  0.9967 -1.2778
14522TIP3    H265058   2.485   4.399   5.618 -1.1958 -1.2684 -2.4011
14523TIP3   OH265059   3.991   2.513   5.386  0.3851 -0.0988 -0.1223
14523TIP3    H165060   3.909   2.517   5.435  0.8586  0.7673  0.6129
14523TIP3    H265061   3.993   2.423   5.351  0.4311 -1.0438  2.1397
14524TIP3   OH265062   1.710   5.339   3.239  0.1035  0.1101 -0.1620
14524TIP3    H165063   1.715   5.298   3.326 -0.5701  0.2480 -0.0519
14524TIP3    H265064   1.755   5.278   3.182  0.3300 -0.1096  0.2438
14525TIP3   OH265065   3.671   5.346  14.034  0.4283  0.0218 -0.3701
14525TIP3    H165066   3.743   5.284  14.028  0.4373 -0.3443  2.2196
14525TIP3    H265067   3.713   5.431  14.050  0.3651 -0.1944  1.1566
14526TIP3   OH265068   2.403   0.332   0.196  0.3235 -0.4517 -0.4432
14526TIP3    H165069   2.451   0.270   0.251  1.3164 -0.0128 -0.7921
14526TIP3    H265070   2.349   0.276   0.140 -0.1070 -0.9307  0.4245
14527TIP3   OH265071   4.503   0.867   4.252  0.0097  0.1260  0.4910
14527TIP3    H165072   4.469   0.802   4.191 -0.1057  0.6820 -0.0493
14527TIP3    H265073   4.553   0.816   4.316  0.2184 -0.4595 -0.1263
14528TIP3   OH265074   2.218   0.047   5.181  0.1576  0.1801 -0.7742
14528TIP3    H165075   2.254   0.042   5.270  0.2082 -0.6687 -0.8291
14528TIP3    H265076   2.295   0.062   5.125 -0.0794  2.7121 -0.5348
14529TIP3   OH265077   0.762   5.831  15.460  0.4037 -0.4873  0.2697
14529TIP3    H165078   0.706   5.883  15.402  1.4564 -0.9446 -1.2403
14529TIP3    H265079   0.795   5.894  15.524  1.3070  0.6758 -1.2585
14530TIP3   OH265080   0.576   0.984   4.720 -0.4151 -0.0428  0.2588
14530TIP3    H165081   0.647   1.044   4.696  0.5596 -1.4775 -0.5925
14530TIP3    H265082   0.617   0.923   4.782 -1.0394 -0.5720  0.1554
14531TIP3   OH265083   2.885   6.625  10.559  0.1203  0.3596 -0.5506
14531TIP3    H165084   2.885   6.713  10.598  0.0125 -0.3668  1.1524
14531TIP3    H265085   2.799   6.589  10.581  0.9518 -0.9542  0.6426
14532TIP3   OH265086   0.266   2.939   2.482  0.2341  0.5176  0.2760
14532TIP3    H165087   0.226   2.929   2.568  0.9100 -1.3834  0.4217
14532TIP3    H265088   0.350   2.982   2.500  1.1425 -1.3589  0.8599
14533TIP3   OH265089   2.469   5.595   3.292 -0.3262  0.4279 -0.1657
14533TIP3    H165090   2.562   5.616   3.281 -0.3382  1.1246  0.9501
14533TIP3    H265091   2.454   5.524   3.229  1.1965 -0.3682  0.3084
14534TIP3   OH265092   5.205   0.893   1.228 -0.1149  0.4524 -0.6397
14534TIP3    H165093   5.258   0.973   1.223 -0.3468  0.8692  1.9443
14534TIP3    H265094   5.148   0.907   1.304 -1.5550 -1.3949 -1.2905
14535TIP3   OH265095   0.163   2.860  12.827  0.0978  0.5304 -0.4475
14535TIP3    H165096   0.192   2.799  12.759  0.8055  0.6606 -0.2704
14535TIP3    H265097   0.224   2.846  12.900 -2.1534 -1.4693  1.2327
14536TIP3   OH265098   3.903   6.836   3.328 -0.4255 -1.0193  0.3230
14536TIP3    H165099   3.825   6.822   3.381  0.1680  1.3668  1.9782
14536TIP3    H265100   3.880   6.907   3.268  0.0273 -1.2865 -0.1789
14537TIP3   OH265101   1.813   6.511   2.497 -0.1416 -0.0771 -0.4487
14537TIP3    H165102   1.771   6.453   2.560  0.4449  0.7229  0.7161
14537TIP3    H265103   1.890   6.463   2.468  0.0629 -0.0958  0.1144
14538TIP3   OH265104   0.040   5.124  12.968  0.4157  0.3567 -0.0403
14538TIP3    H165105  -0.032   5.125  13.031 -0.2908 -1.0057 -0.7680
14538TIP3    H265106   0.050   5.031  12.945  1.0889  0.7418 -1.4217
14539TIP3   OH265107   5.810   2.068  13.665 -0.0108 -0.0479  0.2685
14539TIP3    H165108   5.769   2.054  13.751 -0.8384  2.2519  0.3303
14539TIP3    H265109   5.840   2.159  13.668  2.1036 -0.6282 -1.0600
14540TIP3   OH265110   0.013   3.532  10.349  0.5100  0.3420 -0.0405
14540TIP3    H165111   0.108   3.518  10.355  0.3605  0.0240  2.0581
14540TIP3    H265112   0.002   3.577  10.265  2.4084 -0.4178 -0.7726
14541TIP3   OH265113   1.623   0.306  16.189  0.1727 -0.4430  0.1474
14541TIP3    H165114   1.566   0.307  16.111  1.0262 -0.4860 -0.4946
14541TIP3    H265115   1.654   0.216  16.195  0.2326 -0.4033  0.4525
14542TIP3   OH265116   5.009   4.297   0.643  0.1772  0.6071  0.1979
14542TIP3    H165117   5.050   4.371   0.687 -0.5014  0.0157  1.8873
14542TIP3    H265118   4.922   4.291   0.681  0.6060 -1.7758  1.0019
14543TIP3   OH265119   4.113   2.703  13.946  0.1474 -0.1461 -0.1758
14543TIP3    H165120   4.066   2.669  13.870 -1.0589  0.4142  0.2824
14543TIP3    H265121   4.182   2.758  13.910 -0.6765  0.4450 -0.8710
14544TIP3   OH265122   0.183   1.365  15.742  0.4393 -0.3151  0.8006
14544TIP3    H165123   0.177   1.367  15.646 -0.0465 -1.7108  0.7839
14544TIP3    H265124   0.093   1.366  15.772  0.5952  0.6053  1.2850
14545TIP3   OH265125   3.398   6.435  15.595 -0.1050  0.5471  0.0693
14545TIP3    H165126   3.313   6.459  15.631  0.6133  1.8741  0.9802
14545TIP3    H265127   3.387   6.440  15.500 -1.2249 -0.0103  0.1588
14546TIP3   OH265128   2.030   4.253   3.696  0.6810  0.4379 -0.0255
14546TIP3    H165129   2.014   4.161   3.678  0.8747  0.5623 -0.8859
14546TIP3    H265130   2.058   4.256   3.787 -2.8919  0.0523  1.2535
14547TIP3   OH265131   4.780   6.281   3.605 -0.6545  0.3296  0.2933
14547TIP3    H165132   4.862   6.233   3.602 -0.4426  0.6494  0.8743
14547TIP3    H265133   4.714   6.218   3.574 -0.0918  0.3051 -0.8864
14548TIP3   OH265134   2.065   5.513  15.133  0.3455 -0.3661 -0.3308
14548TIP3    H165135   2.138   5.473  15.087 -0.4872 -0.8409 -1.2805
14548TIP3    H265136   2.082   5.607  15.128  0.5773 -0.4438 -1.0716
14549TIP3   OH265137   6.118   2.026  13.566 -0.3308 -0.7488 -0.0098
14549TIP3    H165138   6.032   2.054  13.599  0.8043  2.4373  0.5430
14549TIP3    H265139   6.176   2.031  13.642  1.0989  0.9385 -1.1507
14550TIP3   OH265140   4.316   2.283  13.984  0.5484  0.5959  0.1909
14550TIP3    H165141   4.409   2.304  13.992  0.7111 -0.0759  0.0956
14550TIP3    H265142   4.314   2.190  13.962 -0.2057  0.2162  1.7575
14551TIP3   OH265143   1.404   3.969   0.442  0.0802 -0.6702 -0.1287
14551TIP3    H165144   1.312   3.992   0.427  0.5303  0.4840 -1.3154
14551TIP3    H265145   1.413   3.881   0.407 -1.0290 -1.6899  1.9394
14552TIP3   OH265146   5.120   4.105  15.204 -0.4662 -0.3415  0.5565
14552TIP3    H165147   5.077   4.181  15.243  0.2923  0.7339 -0.6454
14552TIP3    H265148   5.145   4.051  15.280 -3.0807 -0.6060  1.3323
14553TIP3   OH265149   0.078   2.514   4.084 -0.5135 -0.0509 -0.4556
14553TIP3    H165150   0.090   2.598   4.129 -0.5444  0.3150 -1.1059
14553TIP3    H265151   0.135   2.520   4.007 -1.2672 -0.2130 -1.0432
14554TIP3   OH265152   0.343   6.287  12.409 -0.3395  0.5090 -0.0678
14554TIP3    H165153   0.340   6.310  12.502  1.0071 -1.3268  0.5030
14554TIP3    H265154   0.269   6.333  12.370 -1.0673  1.1524  1.9558
14555TIP3   OH265155   0.774   5.592   3.720 -0.0797  0.1923  0.0085
14555TIP3    H165156   0.792   5.658   3.787  0.6319  1.3147 -1.2241
14555TIP3    H265157   0.861   5.559   3.695 -0.4255 -1.2738  0.6242
14556TIP3   OH265158   6.050   1.648   0.671 -0.6894  0.2005 -0.1510
14556TIP3    H165159   6.020   1.562   0.642 -1.7829  0.1982  0.9225
14556TIP3    H265160   6.002   1.710   0.615  0.3615  0.1401 -1.1671
14557TIP3   OH265161   1.993   0.281   4.973  0.4227 -0.1267 -0.5831
14557TIP3    H165162   1.989   0.186   4.961  0.2155 -0.1290 -0.4967
14557TIP3    H265163   1.901   0.309   4.973  0.4476 -0.0328  0.2253
14558TIP3   OH265164   5.872   0.745   1.123  0.5795  0.0013  0.1429
14558TIP3    H165165   5.923   0.822   1.096  0.6867 -0.6910 -1.7943
14558TIP3    H265166   5.803   0.738   1.057  0.8817 -1.8611 -0.0168
14559TIP3   OH265167   6.154   6.242  14.192 -0.6847  0.1655  0.7305
14559TIP3    H165168   6.246   6.216  14.191 -0.7685 -0.1242  0.5744
14559TIP3    H265169   6.131   6.242  14.285 -0.9702 -1.3398  0.6770
14560TIP3   OH265170   2.920   2.208  15.115 -0.0644 -0.1025 -0.2259
14560TIP3    H165171   2.952   2.266  15.046 -1.0798  0.3675 -0.3204
14560TIP3    H265172   2.898   2.267  15.187 -1.1053 -0.3547 -0.3204
14561TIP3   OH265173   0.419   4.023   0.408 -0.3385 -0.0759  0.6826
14561TIP3    H165174   0.514   4.036   0.397 -0.6461  1.5065 -0.4214
14561TIP3    H265175   0.412   3.948   0.468  1.5929 -0.9831 -0.1350
14562TIP3   OH265176   5.676   0.785  12.887 -0.0614  0.1632  0.0446
14562TIP3    H165177   5.609   0.812  12.949  2.5022  2.6316  2.0025
14562TIP3    H265178   5.658   0.836  12.808 -2.3053 -1.6928 -0.7702
14563TIP3   OH265179   6.453   1.039   6.067 -1.1221  0.3057  0.0833
14563TIP3    H165180   6.408   1.118   6.096 -1.0652  0.6855 -0.8292
14563TIP3    H265181   6.481   0.996   6.148  1.0402  2.4698  0.6029
14564TIP3   OH265182   6.810   3.183  13.605 -0.7217 -0.1373 -0.0706
14564TIP3    H165183   6.857   3.229  13.675 -0.4765 -2.1846  1.1957
14564TIP3    H265184   6.879   3.149  13.549 -0.8111 -0.5851  0.0881
14565TIP3   OH265185   3.111   2.861   2.549 -0.2062  0.0607  0.1679
14565TIP3    H165186   3.203   2.862   2.576 -0.2287  0.7488  0.2266
14565TIP3    H265187   3.103   2.931   2.485 -0.5258 -0.4990 -0.4178
14566TIP3   OH265188   4.330   4.475   4.762 -0.2491 -0.1768 -0.2927
14566TIP3    H165189   4.350   4.394   4.715 -2.1076 -0.0852 -1.3455
14566TIP3    H265190   4.302   4.446   4.849  2.3117 -0.4073  0.5243
14567TIP3   OH265191   5.701   1.510  12.283  0.4191  0.1254 -0.2020
14567TIP3    H165192   5.718   1.592  12.236 -1.0223  0.2496 -0.5438
14567TIP3    H265193   5.658   1.454  12.219 -0.0251 -0.3305  0.4850
14568TIP3   OH265194   5.540   1.728   4.541  0.5282  0.3879 -0.1472
14568TIP3    H165195   5.497   1.809   4.512  3.1896  1.5440 -1.1387
14568TIP3    H265196   5.533   1.669   4.466 -0.8884 -0.1705  0.3704
14569TIP3   OH265197   1.409   6.641   6.233 -0.9791  0.0135 -0.2927
14569TIP3    H165198   1.344   6.582   6.271 -1.8284  0.8969 -0.3367
14569TIP3    H265199   1.479   6.644   6.298 -0.5006 -1.7096 -0.6759
14570TIP3   OH265200   1.299   4.401  16.829  0.1672 -0.0449 -0.5391
14570TIP3    H165201   1.309   4.431  16.919  1.2297  1.5432 -1.1437
14570TIP3    H265202   1.205   4.405  16.812  0.0409  0.4315  0.2426
14571TIP3   OH265203   0.177   5.285   6.801 -0.2159  0.4898  0.1742
14571TIP3    H165204   0.216   5.261   6.717 -0.3038  0.3930  0.1604
14571TIP3    H265205   0.148   5.375   6.790 -1.7641 -0.0484 -0.4736
14572TIP3   OH265206   3.720   2.088  15.954 -0.1023  0.0528 -0.4100
14572TIP3    H165207   3.776   2.013  15.976 -0.4879 -0.3719 -0.8280
14572TIP3    H265208   3.652   2.088  16.022  0.5391  0.7265  0.2465
14573TIP3   OH265209   4.019   4.174   5.183  0.1054  0.6795  0.1473
14573TIP3    H165210   4.085   4.207   5.244 -0.2627  3.3715 -0.7364
14573TIP3    H265211   3.939   4.221   5.207 -0.4281  0.5834 -1.3463
14574TIP3   OH265212   0.437   4.983  14.280 -0.6464  0.9294  0.4486
14574TIP3    H165213   0.468   5.019  14.363  3.0056 -2.7134  0.9914
14574TIP3    H265214   0.361   4.929  14.305  0.2889  0.0347  1.4586
14575TIP3   OH265215   4.936   4.001   1.797  0.1216  0.0476  0.1017
14575TIP3    H165216   4.953   3.914   1.833 -0.9142  0.0118  0.5598
14575TIP3    H265217   4.939   3.989   1.703  0.6620 -0.3385  0.1637
14576TIP3   OH265218   6.120   4.216   2.977  0.2003 -0.4471 -0.1606
14576TIP3    H165219   6.153   4.131   3.007 -1.5637 -0.2866  2.5705
14576TIP3    H265220   6.069   4.195   2.899 -0.7376 -2.0501  0.8260
14577TIP3   OH265221   4.400   4.921   2.447 -0.8028 -0.2088 -0.3641
14577TIP3    H165222   4.398   4.957   2.358  2.0561 -0.0567 -0.4671
14577TIP3    H265223   4.360   4.989   2.501  0.2666  1.1228 -1.1667
14578TIP3   OH265224   1.719   1.854  14.408 -0.2133  0.1930  0.4844
14578TIP3    H165225   1.746   1.808  14.487 -1.9046  0.6635  1.3704
14578TIP3    H265226   1.677   1.787  14.354  0.6737 -0.0647  0.1032
14579TIP3   OH265227   1.727   0.749  15.010  0.1296  0.1579  0.2781
14579TIP3    H165228   1.813   0.706  15.008  0.5711  0.9951  0.5896
14579TIP3    H265229   1.712   0.776  14.919  1.1477  1.7938  0.5591
14580TIP3   OH265230   3.826   0.054   5.310 -0.9585 -0.1310 -0.0386
14580TIP3    H165231   3.785   0.110   5.377 -1.1367 -0.5223  0.1797
14580TIP3    H265232   3.826   0.108   5.231  1.5959  1.3608  0.8425
14581TIP3   OH265233   6.728   2.853  14.036 -0.1825 -0.4687 -0.3763
14581TIP3    H165234   6.733   2.866  14.131  0.0359  0.3561 -0.4913
14581TIP3    H265235   6.758   2.936  13.999  0.5202 -1.0667 -1.1764
14582TIP3   OH265236   1.472   0.243   0.328 -0.3171 -0.1967  0.1995
14582TIP3    H165237   1.389   0.202   0.303 -0.5265  0.4479 -0.1848
14582TIP3    H265238   1.448   0.302   0.400 -0.5444  1.3368 -1.0667
14583TIP3   OH265239   1.452   0.850  16.179  0.2926  0.0524  0.5572
14583TIP3    H165240   1.449   0.807  16.264 -1.6807  0.3928  0.7111
14583TIP3    H265241   1.446   0.944  16.199 -0.3183  0.1297  0.0541
14584TIP3   OH265242   4.340   2.374   0.836  0.1004 -0.9523 -0.3716
14584TIP3    H165243   4.282   2.298   0.847  0.0915 -1.1245 -1.4822
14584TIP3    H265244   4.306   2.419   0.759  0.3542 -0.0339  0.0385
14585TIP3   OH265245   5.199   5.081  11.279  0.1464 -0.2054 -0.0980
14585TIP3    H165246   5.171   5.032  11.202 -0.3900  0.6668 -0.4738
14585TIP3    H265247   5.292   5.094  11.266  0.0088  0.1894 -0.7572
14586TIP3   OH265248   3.360   6.787   0.763 -0.5182 -0.5275  0.3370
14586TIP3    H165249   3.347   6.716   0.700  1.6269  0.5161 -1.4459
14586TIP3    H265250   3.430   6.756   0.820  0.1681 -0.0248 -0.2157
14587TIP3   OH265251   1.565   4.384   2.350 -0.1517 -0.2395 -0.1713
14587TIP3    H165252   1.620   4.357   2.277 -0.5032  0.7135 -0.8084
14587TIP3    H265253   1.490   4.427   2.310  0.3993  1.7063  0.7555
14588TIP3   OH265254   0.498   0.093  15.634 -0.1436 -0.2699  0.4546
14588TIP3    H165255   0.588   0.065  15.617  0.6000  1.6680  0.9769
14588TIP3    H265256   0.502   0.138  15.718 -0.8927  2.6972 -0.9771
14589TIP3   OH265257   5.591   2.157  11.513  0.1986 -0.0092 -0.0455
14589TIP3    H165258   5.622   2.068  11.529 -1.1382 -0.3470  0.7769
14589TIP3    H265259   5.496   2.148  11.504  0.1308  1.2311 -0.7362
14590TIP3   OH265260   4.898   5.701  14.551 -0.1976 -0.2463  0.4227
14590TIP3    H165261   4.817   5.684  14.599 -0.9874  0.7281 -0.5014
14590TIP3    H265262   4.884   5.786  14.509  1.7970  0.5331  1.2209
14591TIP3   OH265263   6.366   3.628  14.956 -0.0238 -0.2001 -0.0603
14591TIP3    H165264   6.403   3.555  14.907 -3.1444 -0.8523 -1.7272
14591TIP3    H265265   6.426   3.701  14.940  1.8889 -1.7549 -0.3355
14592TIP3   OH265266   5.721   6.070   5.584 -0.3286 -0.7668 -0.0354
14592TIP3    H165267   5.638   6.086   5.539 -1.1285  2.6077  2.2264
14592TIP3    H265268   5.788   6.088   5.518 -1.3118 -2.4439 -1.5840
14593TIP3   OH265269   2.081   1.568  16.186 -0.0138 -0.5126 -0.0058
14593TIP3    H165270   2.030   1.609  16.255  0.0993  0.0552 -0.2535
14593TIP3    H265271   2.042   1.481  16.176 -0.8739 -0.1260 -0.1192
14594TIP3   OH265272   3.296   1.483  16.715 -0.6367  0.2171  0.0764
14594TIP3    H165273   3.231   1.538  16.760 -1.0669 -0.3425  0.1473
14594TIP3    H265274   3.380   1.513  16.749 -1.0124 -2.1770  3.6413
14595TIP3   OH265275   5.209   3.591  11.778  0.2280 -0.4457  0.0967
14595TIP3    H165276   5.229   3.685  11.771 -0.7027 -0.1869  0.7598
14595TIP3    H265277   5.265   3.559  11.849  0.8949 -0.5122 -0.4401
14596TIP3   OH265278   0.256   6.612   0.126  0.4166  0.2900 -0.7563
14596TIP3    H165279   0.169   6.585   0.158 -0.0741  1.0286 -1.4298
14596TIP3    H265280   0.240   6.641   0.036  1.2503  1.0671 -0.6619
14597TIP3   OH265281   4.172   4.359   1.604  0.0104  0.3857  0.1736
14597TIP3    H165282   4.192   4.274   1.564  0.8431  0.8243 -0.3844
14597TIP3    H265283   4.106   4.398   1.546 -1.5474 -0.4998  1.2764
14598TIP3   OH265284   2.200   5.274   4.475 -0.0950 -0.3608 -0.8046
14598TIP3    H165285   2.192   5.343   4.408 -0.4187  1.3601  0.9236
14598TIP3    H265286   2.272   5.303   4.531  0.7951 -2.2504 -0.8873
14599TIP3   OH265287   6.468   5.759  14.582  0.3200 -0.3511 -0.0240
14599TIP3    H165288   6.386   5.710  14.583  0.5341 -0.7184 -0.1345
14599TIP3    H265289   6.516   5.726  14.659  0.4682 -0.3248 -0.1056
14600TIP3   OH265290   6.584   5.990   0.540  0.0143 -0.1377 -0.7323
14600TIP3    H165291   6.547   6.077   0.524  0.4622  0.1731 -0.1226
14600TIP3    H265292   6.511   5.930   0.525 -0.3375  0.3515 -1.0110
14601TIP3   OH265293   2.997   3.358   5.216 -0.1002  0.0081 -0.1418
14601TIP3    H165294   2.908   3.339   5.184  0.3671 -0.6173 -1.1303
14601TIP3    H265295   3.001   3.454   5.219 -1.1248  0.0456  0.8910
14602TIP3   OH265296   6.600   4.248   6.263 -0.2973  0.4431 -0.1843
14602TIP3    H165297   6.645   4.330   6.282 -2.0705  2.0177 -2.3027
14602TIP3    H265298   6.586   4.250   6.168  0.1937 -2.6722 -0.4269
14603TIP3   OH265299   1.927   1.517  14.010  0.1958 -0.3792  0.3387
14603TIP3    H165300   1.878   1.597  13.991 -0.5886 -0.7459  0.7633
14603TIP3    H265301   1.982   1.504  13.933 -0.6648 -0.1637 -0.3231
14604TIP3   OH265302   0.928   3.743   2.767 -0.3113  0.7963 -0.0211
14604TIP3    H165303   0.838   3.776   2.761 -0.1751  1.5017  1.3686
14604TIP3    H265304   0.982   3.822   2.763  0.1935  0.4678  0.2414
14605TIP3   OH265305   5.843   3.970  13.967  0.0463  0.0133 -0.0728
14605TIP3    H165306   5.814   4.052  14.005 -1.2947 -0.6270  0.3513
14605TIP3    H265307   5.911   3.995  13.904 -1.5991  1.6393 -1.2942
14606TIP3   OH265308   1.766   6.287   0.321 -0.4987  0.3254  0.0827
14606TIP3    H165309   1.794   6.344   0.249  2.5111 -0.0662  0.8390
14606TIP3    H265310   1.760   6.200   0.281 -0.7538  0.4289 -0.1073
14607TIP3   OH265311   3.952   0.882   5.017  0.2040  0.1602 -0.3838
14607TIP3    H165312   3.939   0.788   5.002  0.1936  0.4518 -2.4632
14607TIP3    H265313   3.865   0.920   5.003  0.2646  0.5288  0.1988
14608TIP3   OH265314   4.558   4.541  16.218  0.1370  0.1524  0.0009
14608TIP3    H165315   4.611   4.490  16.157 -1.0505 -2.1954  0.8219
14608TIP3    H265316   4.612   4.548  16.296  0.6661  0.9969 -0.4262
14609TIP3   OH265317   1.421   1.377   6.044  0.3710  0.2676 -0.4114
14609TIP3    H165318   1.476   1.314   6.091 -0.4401 -1.0777 -1.1923
14609TIP3    H265319   1.336   1.371   6.088 -0.0987 -0.2267 -1.3575
14610TIP3   OH265320   1.751   5.526  11.938  0.0212 -0.1375  0.0038
14610TIP3    H165321   1.836   5.569  11.925 -0.3157  0.2789 -0.9194
14610TIP3    H265322   1.751   5.455  11.873 -0.8504  0.6635 -0.9033
14611TIP3   OH265323   5.361   6.292  17.036 -1.3190 -0.5617  0.4551
14611TIP3    H165324   5.444   6.259  17.001 -0.9013  0.2809  0.6270
14611TIP3    H265325   5.341   6.233  17.109 -0.4549 -0.3080  0.9198
14612TIP3   OH265326   4.066   2.000   4.999  0.2656 -0.2751  0.2243
14612TIP3    H165327   4.107   2.019   5.083  0.6000 -1.9879  0.4679
14612TIP3    H265328   3.978   2.038   5.007  0.6551  0.5303  0.9199
14613TIP3   OH265329   6.037   4.344  15.431  0.0356 -0.2184  0.0936
14613TIP3    H165330   5.996   4.420  15.389  2.5583  1.4317  0.3938
14613TIP3    H265331   6.055   4.373  15.521  0.9257 -1.2088  0.2619
14614TIP3   OH265332   1.205   3.118  13.024 -0.3010 -0.2080 -0.8669
14614TIP3    H165333   1.190   3.195  13.078  1.1959 -0.5374  0.0930
14614TIP3    H265334   1.166   3.046  13.074 -0.8667 -0.2160 -1.3096
14615TIP3   OH265335   3.922   6.337   4.268  0.6107  0.0054 -0.5679
14615TIP3    H165336   3.997   6.283   4.243  1.0266  0.3488 -0.0654
14615TIP3    H265337   3.949   6.427   4.250 -0.5385  0.0051 -2.6154
14616TIP3   OH265338   5.913   4.501   1.567  0.1988 -0.7003  0.7888
14616TIP3    H165339   5.905   4.411   1.598 -0.2966  0.5687  5.0937
14616TIP3    H265340   6.005   4.524   1.582 -0.1338  0.0659  1.7710
14617TIP3   OH265341   4.568   2.280  15.399 -0.1564  0.8468  0.2481
14617TIP3    H165342   4.592   2.191  15.423  3.4739  1.7148  0.4634
14617TIP3    H265343   4.501   2.306  15.462 -0.2005 -1.1963  1.0945
14618TIP3   OH265344   3.930   0.945  14.869 -0.2382  0.2681  0.7531
14618TIP3    H165345   3.970   0.960  14.955 -0.1217  0.1305  0.7226
14618TIP3    H265346   4.003   0.948  14.808 -0.1902 -0.5549  0.7577
14619TIP3   OH265347   6.556   4.168  12.185 -0.0587 -0.0622 -0.5294
14619TIP3    H165348   6.530   4.114  12.111 -1.1144  0.0816 -0.2923
14619TIP3    H265349   6.473   4.195  12.224  0.4762  0.1244  0.5126
14620TIP3   OH265350   1.148   2.974  13.865  0.1004  0.0819  0.4818
14620TIP3    H165351   1.193   2.965  13.950  1.5164 -1.4750 -0.3577
14620TIP3    H265352   1.075   2.912  13.870 -0.3998  0.6967  0.8995
14621TIP3   OH265353   5.586   4.853   5.869 -0.2428  0.1382 -0.2557
14621TIP3    H165354   5.580   4.944   5.839  0.5486 -0.6533 -3.2291
14621TIP3    H265355   5.509   4.811   5.831  0.2422 -0.7473 -0.2758
14622TIP3   OH265356   1.714   3.474  14.652  0.3303 -0.4319  0.3973
14622TIP3    H165357   1.710   3.495  14.559  1.3149  1.3371  0.7009
14622TIP3    H265358   1.648   3.406  14.665 -1.0526  0.5179 -1.2749
14623TIP3   OH265359   1.673   1.296   5.332 -0.3816 -0.0667 -0.1257
14623TIP3    H165360   1.631   1.369   5.379 -0.5896 -0.7993  0.8648
14623TIP3    H265361   1.757   1.331   5.303 -0.4317  0.5307  0.4258
14624TIP3   OH265362   6.802   5.703   4.717  0.3431 -0.5354 -0.2819
14624TIP3    H165363   6.781   5.794   4.696 -0.5067 -0.3901  1.1164
14624TIP3    H265364   6.886   5.709   4.763  0.7345 -0.5573 -0.9851
14625TIP3   OH265365   5.792   2.825   4.537 -0.4045  0.3293 -0.7565
14625TIP3    H165366   5.839   2.869   4.466 -1.1505  3.3498  0.4467
14625TIP3    H265367   5.825   2.867   4.617 -1.3039 -1.2585  0.4981
14626TIP3   OH265368   3.777   2.254  12.647 -0.4130 -0.3215 -0.2762
14626TIP3    H165369   3.710   2.299  12.699 -1.6209 -0.4226 -1.6826
14626TIP3    H265370   3.847   2.319  12.638 -1.0454  0.3862 -0.1851
14627TIP3   OH265371   4.859   0.079   0.788 -0.8335  0.1680  0.1616
14627TIP3    H165372   4.883  -0.009   0.818 -1.4240 -0.3505 -0.8358
14627TIP3    H265373   4.922   0.137   0.831 -0.0275 -0.8022  0.3322
14628TIP3   OH265374   4.718   3.251   1.787 -0.6023  0.1835  0.4700
14628TIP3    H165375   4.729   3.157   1.774 -2.2445 -0.1809  1.4819
14628TIP3    H265376   4.686   3.259   1.877  0.4008  1.7987  0.7219
14629TIP3   OH265377   5.561   4.537   2.655  0.2162 -0.7837  0.5300
14629TIP3    H165378   5.557   4.545   2.751 -0.8667  1.3591  0.3525
14629TIP3    H265379   5.495   4.599   2.623 -1.0058 -3.0089 -1.5745
14630TIP3   OH265380   5.284   6.342  11.434  0.1353 -0.0869  0.2034
14630TIP3    H165381   5.281   6.348  11.530 -0.5864  1.1029  0.1377
14630TIP3    H265382   5.209   6.288  11.411  0.5349 -0.6977  0.3225
14631TIP3   OH265383   4.484   1.182  11.688 -0.2083 -0.4631  0.3550
14631TIP3    H165384   4.512   1.223  11.770 -0.8811 -0.0491  0.3926
14631TIP3    H265385   4.442   1.253  11.639  0.0209 -0.7500 -0.2658
14632TIP3   OH265386   2.402   0.129   4.604 -0.2169 -0.4396  0.5747
14632TIP3    H165387   2.330   0.178   4.564  1.1604  1.6378  0.4856
14632TIP3    H265388   2.463   0.114   4.532  0.8159  0.5362  1.2123
14633TIP3   OH265389   4.181   2.683   4.671 -0.3011 -0.2897  0.4849
14633TIP3    H165390   4.168   2.777   4.682  0.5234 -0.2928  1.6166
14633TIP3    H265391   4.269   2.675   4.634 -0.4733 -0.6085  0.1358
14634TIP3   OH265392   1.150   4.450  10.922 -0.4487 -0.1394 -0.7732
14634TIP3    H165393   1.214   4.517  10.945 -2.3541  1.2692  0.8332
14634TIP3    H265394   1.119   4.475  10.835 -0.9466  0.9772 -0.3020
14635TIP3   OH265395   0.137   0.488   4.912 -0.0052  0.4510 -0.4710
14635TIP3    H165396   0.111   0.495   4.820  0.2297 -0.0651 -0.5840
14635TIP3    H265397   0.189   0.407   4.916 -1.0797 -0.2345  0.3497
14636TIP3   OH265398   3.007   1.655  13.124  0.0172  0.4501 -0.1588
14636TIP3    H165399   2.949   1.657  13.200 -0.5291  0.5081 -0.5773
14636TIP3    H265400   3.087   1.698  13.154 -0.1935  0.4647  0.3846
14637TIP3   OH265401   6.248   1.078  11.192 -0.5024 -0.0218 -0.2970
14637TIP3    H165402   6.333   1.042  11.215 -0.0834  0.5851 -0.8750
14637TIP3    H265403   6.218   1.026  11.118 -0.0216  0.6149 -0.9536
14638TIP3   OH265404   6.318   5.111  15.842 -0.1919  0.3191 -0.2864
14638TIP3    H165405   6.412   5.108  15.859  0.0536  0.0114 -1.5720
14638TIP3    H265406   6.281   5.157  15.917  0.7515 -1.2138  1.1930
14639TIP3   OH265407   4.315   0.228  14.653  0.1219  0.0414  0.2447
14639TIP3    H165408   4.395   0.178  14.673  0.6233  0.9194  0.5058
14639TIP3    H265409   4.278   0.249  14.738 -0.1713 -0.0218  0.1325
14640TIP3   OH265410   0.487   1.457  16.820 -0.2138 -0.1514  0.5644
14640TIP3    H165411   0.424   1.465  16.748  0.8933 -1.2360 -0.5861
14640TIP3    H265412   0.469   1.372  16.858  1.8919 -1.4938 -1.2016
14641TIP3   OH265413   4.251   0.450  16.196  0.3272  0.0200 -0.4719
14641TIP3    H165414   4.321   0.501  16.237 -0.2762  1.7404 -1.4892
14641TIP3    H265415   4.171   0.482  16.237 -0.0737 -0.0461 -1.1850
14642TIP3   OH265416   4.850   5.296   1.895 -0.5578 -0.1191  0.1703
14642TIP3    H165417   4.774   5.241   1.882  1.7984 -3.1801 -2.0958
14642TIP3    H265418   4.884   5.312   1.807 -0.0728  3.6086  0.8720
14643TIP3   OH265419   5.522   0.674   3.377 -0.0540 -0.8687 -0.2983
14643TIP3    H165420   5.480   0.626   3.306 -1.5490  2.1442 -1.6476
14643TIP3    H265421   5.450   0.713   3.426  1.0088 -1.6438  2.0505
14644TIP3   OH265422   3.433   6.703   3.567  0.2057  0.0776  0.6627
14644TIP3    H165423   3.430   6.791   3.529  0.9741  0.0849  0.6013
14644TIP3    H265424   3.353   6.661   3.537 -0.4852  0.9637  1.2154
14645TIP3   OH265425   0.666   2.570   4.183  0.8143  0.0606  0.3619
14645TIP3    H165426   0.632   2.629   4.115  1.7435  1.2759  0.9056
14645TIP3    H265427   0.642   2.614   4.265  0.1262 -1.1448  0.8347
14646TIP3   OH265428   6.174   5.677  11.928  0.0473 -0.5642  0.7842
14646TIP3    H165429   6.172   5.654  12.021 -0.5518 -2.4497  0.3454
14646TIP3    H265430   6.098   5.633  11.890  0.8368 -0.6824 -0.7672
14647TIP3   OH265431   5.509   3.901   1.008 -0.6301 -0.4951 -0.3720
14647TIP3    H165432   5.573   3.957   1.052 -1.8818 -1.0353  2.3636
14647TIP3    H265433   5.448   3.961   0.967 -0.7924  0.1514  0.7685
14648TIP3   OH265434   5.539   1.486  16.016 -0.0732 -0.3784  0.4808
14648TIP3    H165435   5.556   1.399  16.052 -2.0216 -1.2743 -0.5965
14648TIP3    H265436   5.472   1.523  16.074  1.0388  0.6104  1.1776
14649TIP3   OH265437   4.875   1.326   0.026 -0.4393 -0.2675 -0.1067
14649TIP3    H165438   4.859   1.232   0.036 -1.9979 -0.2548 -1.9807
14649TIP3    H265439   4.808   1.368   0.080 -1.4042 -0.2458 -1.2958
14650TIP3   OH265440   3.121   2.358   1.828  0.2016  0.6668  0.0950
14650TIP3    H165441   3.214   2.349   1.806  0.3207  0.3982  0.6783
14650TIP3    H265442   3.112   2.312   1.911 -0.8746 -1.0846 -0.9340
14651TIP3   OH265443   6.177   6.758  13.433 -0.4306  0.1087 -0.0867
14651TIP3    H165444   6.170   6.703  13.511  0.9831  0.5588  0.3835
14651TIP3    H265445   6.229   6.706  13.372  0.9908  0.9281  0.3926
14652TIP3   OH265446   2.336   0.736  14.326 -0.5605  0.4579  0.2126
14652TIP3    H165447   2.420   0.721  14.283 -0.4765  1.3679  0.0389
14652TIP3    H265448   2.349   0.814  14.379 -1.6413  1.3471 -0.7735
14653TIP3   OH265449   3.666   5.796  15.569 -0.4413  0.1875 -0.4381
14653TIP3    H165450   3.613   5.850  15.510  0.7576  1.6480 -0.2246
14653TIP3    H265451   3.656   5.836  15.655  1.7067  1.0750 -0.5539
14654TIP3   OH265452   2.792   0.741  10.337  0.3634  0.3023 -0.2612
14654TIP3    H165453   2.727   0.671  10.343 -0.6950  1.3371  0.6798
14654TIP3    H265454   2.747   0.812  10.291  1.5580  0.2637 -1.5791
14655TIP3   OH265455   4.660   4.196   1.070 -0.0083  0.4775 -0.5968
14655TIP3    H165456   4.661   4.160   0.982  0.6517  0.3309 -0.5374
14655TIP3    H265457   4.736   4.157   1.113 -1.3060 -0.8411  0.6119
14656TIP3   OH265458   3.053   2.760  14.019 -0.2169  0.5901 -0.3101
14656TIP3    H165459   3.128   2.817  14.035 -0.4639  0.6604  0.6344
14656TIP3    H265460   3.065   2.687  14.079 -0.1545 -0.1238 -1.1784
14657TIP3   OH265461   3.010   0.501  11.996 -0.5933  0.2865  0.0197
14657TIP3    H165462   2.989   0.550  12.075 -2.4596  1.2659 -1.0183
14657TIP3    H265463   2.946   0.430  11.994  0.7723 -1.0198  0.4266
14658TIP3   OH265464   3.388   3.221  16.337 -0.0385 -0.0911 -0.3090
14658TIP3    H165465   3.358   3.305  16.372  2.3973  1.1565 -0.9964
14658TIP3    H265466   3.309   3.183  16.297 -1.5062  1.2073  1.1863
14659TIP3   OH265467   0.144   3.397   5.512 -0.2945 -0.0402 -0.4238
14659TIP3    H165468   0.103   3.428   5.593 -0.2846 -0.9736 -0.0383
14659TIP3    H265469   0.237   3.386   5.535 -0.3726 -0.7559 -0.4047
14660TIP3   OH265470   3.152   3.052   1.096 -0.0469 -0.0945 -0.2385
14660TIP3    H165471   3.178   3.033   1.006  0.1252 -2.1624  0.2189
14660TIP3    H265472   3.057   3.042   1.096 -0.1019  0.3875 -0.2826
14661TIP3   OH265473   0.766   0.295   4.451  0.5147  0.1344 -0.4421
14661TIP3    H165474   0.757   0.368   4.512 -3.3640  1.3591 -2.1861
14661TIP3    H265475   0.830   0.325   4.387  0.8757  0.8799  0.2425
14662TIP3   OH265476   5.451   6.400  12.084  0.0835  0.0054 -0.4205
14662TIP3    H165477   5.484   6.382  11.996  0.8838 -0.6804  0.0061
14662TIP3    H265478   5.361   6.430  12.070  0.4941  0.7690 -1.5223
14663TIP3   OH265479   2.641   1.435   2.645  0.4632 -1.0403  0.6470
14663TIP3    H165480   2.624   1.448   2.739  1.2948 -1.5325  0.8772
14663TIP3    H265481   2.678   1.347   2.640  0.6680 -0.9142 -0.1116
14664TIP3   OH265482   3.419   0.491   0.027 -0.2142  0.1748 -0.0246
14664TIP3    H165483   3.475   0.423  -0.009 -0.4700 -0.6151  1.0244
14664TIP3    H265484   3.334   0.477  -0.016 -0.1910  0.0197 -0.0198
14665TIP3   OH265485   5.955   0.181   6.398  0.2266 -0.1417 -0.6873
14665TIP3    H165486   5.886   0.149   6.341  1.0695 -1.1321 -1.1923
14665TIP3    H265487   5.961   0.115   6.468 -1.0221  1.2193  0.7809
14666TIP3   OH265488   2.696   2.798  15.842  0.0224  0.2506  0.7559
14666TIP3    H165489   2.731   2.767  15.758  2.0640  1.1209  1.2190
14666TIP3    H265490   2.662   2.885  15.822  0.2698  0.3521  0.7734
14667TIP3   OH265491   2.742   0.888   3.473  0.1256 -0.6564 -0.2883
14667TIP3    H165492   2.803   0.926   3.536  1.5598 -1.8527 -0.9117
14667TIP3    H265493   2.683   0.961   3.450  1.9045  0.8226 -0.4041
14668TIP3   OH265494   2.704   2.200   0.269  0.3048  0.3585 -0.6399
14668TIP3    H165495   2.665   2.273   0.317 -5.0014 -1.5125 -1.3369
14668TIP3    H265496   2.708   2.229   0.178 -1.4675  0.0864 -0.8574
14669TIP3   OH265497   4.336   1.158  12.041 -0.1984  0.1111 -0.3208
14669TIP3    H165498   4.357   1.248  12.020 -1.5602  0.4187 -0.4490
14669TIP3    H265499   4.242   1.159  12.061 -0.0857 -1.1385  0.4090
14670TIP3   OH265500   1.929   0.568  13.448  0.4459  0.7489  0.3048
14670TIP3    H165501   1.942   0.550  13.355 -0.6810 -0.9212  0.4216
14670TIP3    H265502   2.016   0.593  13.479  1.9512 -2.9582 -0.3672
14671TIP3   OH265503   4.788   4.902  16.206  0.0594  0.1175 -0.2055
14671TIP3    H165504   4.713   4.931  16.257  0.3226 -0.3276  0.4442
14671TIP3    H265505   4.751   4.874  16.122 -0.7473 -1.7218  0.7080
14672TIP3   OH265506   5.144   0.121  11.480  0.4625 -0.3379  0.0990
14672TIP3    H165507   5.124   0.027  11.479  1.7402 -0.6599  1.4289
14672TIP3    H265508   5.215   0.131  11.416  1.3471 -0.5561  1.0254
14673TIP3   OH265509   2.787   5.233  16.581 -0.2250  0.5496 -0.3384
14673TIP3    H165510   2.870   5.207  16.621 -1.3167 -0.0517  1.6866
14673TIP3    H265511   2.804   5.319  16.542  1.4440  0.2158 -0.4018
14674TIP3   OH265512   3.719   2.409  11.103  0.2218  0.1269 -0.2928
14674TIP3    H165513   3.709   2.476  11.035  1.2891  0.1109 -0.4856
14674TIP3    H265514   3.659   2.435  11.172 -0.2454  0.6241 -0.8777
14675TIP3   OH265515   6.653   3.520   2.598  0.3666 -0.6236 -0.0915
14675TIP3    H165516   6.595   3.451   2.631 -0.5046  0.3589  0.4635
14675TIP3    H265517   6.644   3.591   2.661 -0.1790  0.7277 -1.6342
14676TIP3   OH265518   3.463   6.249   0.702 -0.1155  0.1926  0.6253
14676TIP3    H165519   3.502   6.308   0.767  0.9708 -1.2557  1.3299
14676TIP3    H265520   3.404   6.193   0.752 -0.1276 -0.2143  0.1639
14677TIP3   OH265521   2.977   2.735  13.237 -0.4589  0.1888 -0.0828
14677TIP3    H165522   2.884   2.727  13.258 -0.0938 -0.4419  1.4059
14677TIP3    H265523   2.991   2.829  13.223 -1.0385  0.4720  1.1326
14678TIP3   OH265524   2.626   1.326  16.327 -0.2289  0.6546 -0.2851
14678TIP3    H165525   2.696   1.353  16.267 -0.1247 -1.4829 -1.2064
14678TIP3    H265526   2.563   1.398  16.323 -0.7495  0.2192 -3.8348
14679TIP3   OH265527   3.510   4.283   4.417  0.5201  0.1943 -0.1894
14679TIP3    H165528   3.538   4.293   4.326  0.3666 -0.6306 -0.3372
14679TIP3    H265529   3.562   4.209   4.450 -1.9689 -1.9276 -0.7030
14680TIP3   OH265530   0.951   1.527  14.910  0.3623 -0.4122  0.0230
14680TIP3    H165531   0.896   1.448  14.915 -2.7787  1.4905 -1.5167
14680TIP3    H265532   1.030   1.503  14.958 -0.0003 -4.7745 -1.0799
14681TIP3   OH265533   0.868   2.757   6.016  0.2286 -0.4364 -0.6117
14681TIP3    H165534   0.946   2.809   5.996  1.0050 -1.0977  0.5563
14681TIP3    H265535   0.835   2.794   6.098  0.7787 -1.7194  0.2261
14682TIP3   OH265536   6.496   6.088  13.651  0.0321  0.2645  0.0972
14682TIP3    H165537   6.433   6.082  13.579  2.6433  1.4864 -2.5136
14682TIP3    H265538   6.509   5.998  13.680 -3.1097 -0.0008  1.0863
14683TIP3   OH265539   2.889   3.711  11.646 -0.8345 -0.2462  0.2342
14683TIP3    H165540   2.874   3.734  11.554 -0.6995  1.2729  0.5707
14683TIP3    H265541   2.908   3.617  11.644  4.3198  0.5191 -1.9882
14684TIP3   OH265542   1.189   4.226  13.306  0.0530  0.4659 -0.5643
14684TIP3    H165543   1.185   4.166  13.232 -1.4733  1.7241 -1.5828
14684TIP3    H265544   1.211   4.311  13.267  0.1936  0.9698  0.5576
14685TIP3   OH265545   3.581   1.399  17.034 -0.0225 -0.6476  0.1483
14685TIP3    H165546   3.666   1.405  17.076 -0.4923 -0.4269  1.0967
14685TIP3    H265547   3.555   1.307  17.043 -0.0725 -0.6239  0.2535
14686TIP3   OH265548   3.841   1.903  16.096  0.6277 -0.0897 -0.3368
14686TIP3    H165549   3.910   1.865  16.151 -0.6856 -3.3373 -0.6654
14686TIP3    H265550   3.765   1.847  16.112 -1.7441  2.7960 -0.6654
14687TIP3   OH265551   2.406   5.466  15.520 -0.3658 -0.1586  0.1815
14687TIP3    H165552   2.354   5.386  15.522 -0.8364  0.1291 -0.2987
14687TIP3    H265553   2.434   5.473  15.429  0.6012 -0.3606  0.4561
14688TIP3   OH265554   3.241   3.145  15.406  0.9287  0.6140  0.5246
14688TIP3    H165555   3.297   3.178  15.476 -0.2659  0.8897  1.4010
14688TIP3    H265556   3.301   3.116  15.338  2.1436  0.1407  1.7542
14689TIP3   OH265557   6.334   2.378   1.940  0.2981  0.7528 -0.2460
14689TIP3    H165558   6.430   2.377   1.931  0.2739  1.4443 -0.6812
14689TIP3    H265559   6.301   2.369   1.851 -0.0144  2.0975 -0.2925
14690TIP3   OH265560   6.321   4.917  14.833  0.0227  0.0777  0.0725
14690TIP3    H165561   6.411   4.945  14.814  0.9440 -1.4305  1.8764
14690TIP3    H265562   6.300   4.959  14.917 -0.0668 -1.3796  0.8058
14691TIP3   OH265563   0.158   6.348   1.921  0.5796  0.1337  0.0999
14691TIP3    H165564   0.159   6.428   1.869 -1.8069 -0.9865 -1.9034
14691TIP3    H265565   0.177   6.377   2.011  1.5834  2.6195 -0.8362
14692TIP3   OH265566   4.693   6.823   3.983  0.1093 -0.1306  0.0374
14692TIP3    H165567   4.715   6.828   3.889 -1.4504 -1.0749 -0.4072
14692TIP3    H265568   4.602   6.851   3.988 -0.9943 -3.3818  0.7377
14693TIP3   OH265569   3.697   6.491   0.664  0.1758 -0.5863 -0.4966
14693TIP3    H165570   3.673   6.488   0.756 -0.7869 -0.7989 -0.7471
14693TIP3    H265571   3.791   6.508   0.664 -0.1647  1.4762  0.4789
14694TIP3   OH265572   1.149   0.861  16.619  0.2109 -0.4117 -0.8416
14694TIP3    H165573   1.198   0.780  16.630 -0.9979 -1.3000 -1.7298
14694TIP3    H265574   1.166   0.887  16.528 -0.0495 -0.1147 -0.8068
14695TIP3   OH265575   4.458   4.880   4.653 -0.6113 -0.7027  0.1599
14695TIP3    H165576   4.473   4.941   4.725  0.3616 -1.4518  0.6120
14695TIP3    H265577   4.363   4.865   4.653 -0.5180 -1.6054  2.0793
14696TIP3   OH265578   3.847   5.259  11.976 -0.0722  0.0616  0.0290
14696TIP3    H165579   3.820   5.327  12.038 -0.5019 -0.8661  0.8811
14696TIP3    H265580   3.943   5.265  11.975  0.0652 -0.9211  2.0084
14697TIP3   OH265581   1.347   5.074  15.116 -0.2766 -0.3124 -0.2835
14697TIP3    H165582   1.258   5.040  15.108  0.4204 -2.3733  0.1501
14697TIP3    H265583   1.337   5.169  15.111 -2.5889 -0.4475  0.6286
14698TIP3   OH265584   0.372   1.920  12.753  0.7901  0.1102  0.0457
14698TIP3    H165585   0.305   1.988  12.751 -0.0536 -0.3772  3.8821
14698TIP3    H265586   0.454   1.968  12.769  0.6993  0.4112 -0.3637
14699TIP3   OH265587   1.319   0.641   0.770 -0.1347  0.2799 -0.6103
14699TIP3    H165588   1.368   0.621   0.690  0.2091 -2.3179  0.1557
14699TIP3    H265589   1.285   0.556   0.799  0.9831  0.8315  2.7717
14700TIP3   OH265590   6.685   1.413   0.707 -0.0614  0.6607 -0.0768
14700TIP3    H165591   6.757   1.387   0.764  0.0270  3.0667  1.0189
14700TIP3    H265592   6.616   1.442   0.767 -0.5882  1.7222 -1.1620
14701TIP3   OH265593   2.034   4.535   3.604  0.1077  0.0317  0.2994
14701TIP3    H165594   2.041   4.446   3.638  1.8874  0.3437  0.8216
14701TIP3    H265595   2.036   4.524   3.509 -0.6881 -0.5319  0.3308
14702TIP3   OH265596   1.691   2.476  16.134 -0.2992 -0.0606 -0.0241
14702TIP3    H165597   1.765   2.415  16.132 -0.9985 -1.0495  1.4257
14702TIP3    H265598   1.702   2.523  16.217  0.0714  1.6248 -1.0016
14703TIP3   OH265599   1.011   3.523   3.678  0.2818  0.1453 -0.1905
14703TIP3    H165600   0.921   3.493   3.665  0.9429 -3.2372  1.7884
14703TIP3    H265601   1.057   3.497   3.599 -0.2595  1.1641 -0.8667
14704TIP3   OH265602   2.415   4.519   1.294 -1.0710  0.5723 -0.3385
14704TIP3    H165603   2.393   4.586   1.230  0.2767 -0.5700 -2.0796
14704TIP3    H265604   2.346   4.453   1.285 -1.6207  1.0387  0.3710
14705TIP3   OH265605   5.964   4.045  14.302 -0.0948 -0.4526  0.1981
14705TIP3    H165606   6.004   4.015  14.220 -2.0129  2.5294 -2.0677
14705TIP3    H265607   6.022   4.116  14.332 -0.7306  0.1782 -0.0377
14706TIP3   OH265608   5.395   2.783  15.748 -0.8618 -0.2713 -0.5809
14706TIP3    H165609   5.435   2.856  15.794  0.8863 -2.0546  0.9259
14706TIP3    H265610   5.305   2.812  15.730 -0.6367  1.7165  1.1373
14707TIP3   OH265611   0.316   4.333  11.804 -0.4124  0.0446 -0.3760
14707TIP3    H165612   0.224   4.306  11.800 -0.0997 -1.2807  0.8817
14707TIP3    H265613   0.365   4.252  11.819  0.9706  0.7343 -0.9899
14708TIP3   OH265614   1.202   6.562   4.062  0.1830  0.1235  0.2428
14708TIP3    H165615   1.228   6.637   4.116  0.0189 -0.6940  1.5010
14708TIP3    H265616   1.256   6.489   4.095 -1.4589 -0.8947  0.8060
14709TIP3   OH265617   1.214   2.857   4.595  0.2170  0.5462  0.3059
14709TIP3    H165618   1.157   2.782   4.611  1.9217 -0.8881 -0.0239
14709TIP3    H265619   1.244   2.882   4.683 -0.1507  0.6903  0.3939
14710TIP3   OH265620   0.970   5.812   6.365  0.1702 -0.2179  0.2097
14710TIP3    H165621   0.934   5.724   6.376  2.0873 -1.1708 -0.7646
14710TIP3    H265622   0.895   5.866   6.341 -0.9874 -1.6275  0.5424
14711TIP3   OH265623   6.520   2.361  17.163 -0.3140  0.6329 -0.0945
14711TIP3    H165624   6.510   2.374  17.257 -0.3243 -0.0860  0.0098
14711TIP3    H265625   6.469   2.431  17.123 -1.0556  0.4007  0.4371
14712TIP3   OH265626   6.167   1.248  11.623  0.1840  0.0451 -0.3559
14712TIP3    H165627   6.167   1.288  11.536 -0.6745  1.1308  0.1203
14712TIP3    H265628   6.093   1.188  11.622  0.3248 -0.1300 -0.4449
14713TIP3   OH265629   3.425   0.700   5.777  0.2178  0.4098  0.1917
14713TIP3    H165630   3.437   0.760   5.851 -0.8218 -0.2800  0.9506
14713TIP3    H265631   3.399   0.617   5.817 -1.1577  0.2311 -0.9818
14714TIP3   OH265632   3.928   2.887  14.801 -0.9547  0.1126  0.1842
14714TIP3    H165633   3.927   2.891  14.897 -0.3735 -1.9854  0.3153
14714TIP3    H265634   3.837   2.902  14.776 -1.0746  0.9135  1.0380
14715TIP3   OH265635   6.531   1.711  17.015 -0.2036  0.3300 -0.5399
14715TIP3    H165636   6.553   1.623  17.048 -0.2572  0.1688 -0.9305
14715TIP3    H265637   6.438   1.705  16.993 -0.5960  0.9215  0.8278
14716TIP3   OH265638   5.552   4.370   1.467  0.5671  0.3328  0.0537
14716TIP3    H165639   5.581   4.425   1.540 -0.4668 -0.4851  1.1042
14716TIP3    H265640   5.632   4.356   1.416  0.9349  2.5264 -0.0980
14717TIP3   OH265641   0.210   5.096   4.838 -0.3410  0.3400  0.5069
14717TIP3    H165642   0.212   5.112   4.743  1.4045 -1.2546  0.2144
14717TIP3    H265643   0.119   5.072   4.856 -0.4827 -0.3701 -0.9796
14718TIP3   OH265644   4.648   6.757  16.334  0.5480  0.0118 -0.2957
14718TIP3    H165645   4.613   6.677  16.373 -0.0734 -0.5444 -1.9196
14718TIP3    H265646   4.741   6.738  16.319  0.3578 -0.4900 -0.8638
14719TIP3   OH265647   2.592   2.198   3.668  0.0016 -0.5397 -0.1574
14719TIP3    H165648   2.603   2.222   3.760 -1.2849 -1.9541  0.4180
14719TIP3    H265649   2.679   2.172   3.639  0.6174  0.8899  0.3552
14720TIP3   OH265650   3.206   5.424   1.468 -0.6262  0.4366  0.5395
14720TIP3    H165651   3.112   5.409   1.472 -0.6366  0.0738 -0.5577
14720TIP3    H265652   3.216   5.496   1.405 -0.0367 -1.4817 -1.6875
14721TIP3   OH265653   5.121   0.079   4.837 -0.1548  0.1796  0.1564
14721TIP3    H165654   5.116   0.121   4.923 -3.0215  2.2398 -0.8718
14721TIP3    H265655   5.042   0.107   4.791  0.0779 -2.7492 -2.3651
14722TIP3   OH265656   3.157   5.273   3.317  0.2373  0.5405  0.3405
14722TIP3    H165657   3.076   5.222   3.318  0.5230  0.0687  0.0547
14722TIP3    H265658   3.147   5.333   3.244  1.8501 -2.4242 -2.6143
14723TIP3   OH265659   5.309   3.579   0.687 -0.0718 -0.5806 -0.1425
14723TIP3    H165660   5.297   3.617   0.774  1.5969  1.6731 -0.8044
14723TIP3    H265661   5.228   3.599   0.640  0.0613  0.6345  0.1046
14724TIP3   OH265662   0.452   4.587  13.002  0.8675 -0.3470 -0.0184
14724TIP3    H165663   0.518   4.568  12.935  0.1265 -0.7089 -0.6527
14724TIP3    H265664   0.495   4.562  13.084  1.3302 -1.0800 -0.4710
14725TIP3   OH265665   6.805   2.835   1.195  0.1956 -0.1023  0.1199
14725TIP3    H165666   6.758   2.901   1.144  1.5755  0.7432 -0.0965
14725TIP3    H265667   6.792   2.861   1.286 -0.4642 -0.3803  0.1151
14726TIP3   OH265668   3.874   6.034  14.002 -0.3284  0.2509  0.5373
14726TIP3    H165669   3.950   5.982  14.029  0.1025  0.4467 -0.2426
14726TIP3    H265670   3.868   6.103  14.068  0.7256  0.7501  0.1422
14727TIP3   OH265671   4.559   1.619  11.197 -0.1541 -0.6031 -0.1336
14727TIP3    H165672   4.591   1.698  11.154 -0.0329 -0.6013 -0.0385
14727TIP3    H265673   4.624   1.600  11.265 -1.4073  0.5891  1.4828
14728TIP3   OH265674   4.902   5.431   2.313 -0.4123 -0.6059 -0.0631
14728TIP3    H165675   4.856   5.348   2.302 -1.1158 -0.1667 -0.4976
14728TIP3    H265676   4.919   5.462   2.224 -2.1041  0.7632  0.0412
14729TIP3   OH265677   0.280   2.433   6.552 -0.8546  0.4472  0.2654
14729TIP3    H165678   0.358   2.440   6.497 -1.2227  0.0533 -0.3268
14729TIP3    H265679   0.219   2.497   6.516 -2.4388 -2.1295 -2.1298
14730TIP3   OH265680   4.712   2.286   2.283  0.1523  0.0173 -0.1267
14730TIP3    H165681   4.796   2.241   2.293  0.5765  1.0743  1.4842
14730TIP3    H265682   4.717   2.359   2.345 -1.5279  0.7516 -0.8095
14731TIP3   OH265683   6.472   2.800   0.463  0.5591 -0.5450 -0.5655
14731TIP3    H165684   6.495   2.758   0.380  1.8189  1.3027 -1.2328
14731TIP3    H265685   6.442   2.887   0.438  1.0987  0.1044  0.9062
14732TIP3   OH265686   4.798   0.626   1.312 -0.3341 -0.1585 -0.5315
14732TIP3    H165687   4.763   0.539   1.334 -1.8626  0.4147 -0.5876
14732TIP3    H265688   4.872   0.608   1.254  0.4101 -1.4833  0.7690
14733TIP3   OH265689   4.061   1.626  14.561  0.0199 -0.0252  0.1305
14733TIP3    H165690   4.098   1.707  14.596  0.0130 -0.4649  1.1888
14733TIP3    H265691   3.973   1.650  14.532  0.6502  0.7452 -1.2694
14734TIP3   OH265692   2.076   0.332   5.241  0.0811  0.4139  0.6796
14734TIP3    H165693   2.047   0.323   5.151 -1.5424 -1.3392  1.3041
14734TIP3    H265694   2.056   0.423   5.264 -0.3325  0.6235 -0.4448
14735TIP3   OH265695   1.245   0.747   5.821  0.4942  0.0506  0.4045
14735TIP3    H165696   1.225   0.818   5.760 -0.6844 -0.3848  0.2549
14735TIP3    H265697   1.196   0.769   5.900 -1.4494 -1.4978 -0.2711
14736TIP3   OH265698   5.215   0.948   2.239 -0.0472  0.0421 -0.5962
14736TIP3    H165699   5.288   0.888   2.226 -0.1920 -0.0962 -0.7851
14736TIP3    H265700   5.139   0.903   2.200  0.0125  0.7030 -1.5349
14737TIP3   OH265701   0.814   2.917  13.944 -0.3235  0.3487  0.0989
14737TIP3    H165702   0.736   2.908  13.999  1.1605 -0.2868  2.2655
14737TIP3    H265703   0.883   2.943  14.006  1.3536  0.1249 -1.5872
14738TIP3   OH265704   1.562   0.500  15.022  0.1851 -0.1526 -0.0952
14738TIP3    H165705   1.512   0.476  15.100  1.1228 -2.5816 -0.1346
14738TIP3    H265706   1.627   0.562  15.053 -0.0192 -0.4078  0.8836
14739TIP3   OH265707   3.652   0.461   3.127 -0.4419 -0.6248 -0.1449
14739TIP3    H165708   3.733   0.445   3.077 -0.7473  2.0892 -1.7138
14739TIP3    H265709   3.582   0.436   3.067 -0.7744  0.5168 -0.2692
14740TIP3   OH265710   3.229   5.631  12.943 -0.4424  0.1890  0.2944
14740TIP3    H165711   3.224   5.704  12.882  0.7695  1.0606  1.1975
14740TIP3    H265712   3.157   5.646  13.005 -0.2603  0.5651  0.4160
14741TIP3   OH265713   2.754   0.498  16.002 -0.0678 -0.0743  0.3506
14741TIP3    H165714   2.750   0.514  15.907 -2.4607 -0.1280  0.3710
14741TIP3    H265715   2.696   0.564  16.039  0.1532 -0.6166  1.7086
14742TIP3   OH265716   3.563   5.171   2.074  0.5691  0.0826  0.8760
14742TIP3    H165717   3.489   5.231   2.062  0.5108 -0.1410 -0.0170
14742TIP3    H265718   3.635   5.212   2.025  0.6633 -0.3334  0.6616
14743TIP3   OH265719   1.429   2.866  13.999 -0.4348  0.2423  0.1218
14743TIP3    H165720   1.401   2.831  13.915 -2.5109  0.3569  0.7062
14743TIP3    H265721   1.480   2.794  14.039 -1.1653 -0.5710 -0.3846
14744TIP3   OH265722   3.831   2.664   1.633  0.1872  0.1157  0.0639
14744TIP3    H165723   3.765   2.669   1.702  1.3925 -0.2487  1.2974
14744TIP3    H265724   3.888   2.592   1.660  2.6804  2.1336  0.5360
14745TIP3   OH265725   5.376   5.276  11.555  0.3585 -0.0134 -0.2332
14745TIP3    H165726   5.404   5.364  11.577  0.9209 -0.0835 -0.6488
14745TIP3    H265727   5.449   5.239  11.506 -0.6946  0.0219 -1.8960
14746TIP3   OH265728   5.071   0.545   6.155 -0.6226  0.0312 -0.1348
14746TIP3    H165729   5.160   0.555   6.122 -0.7188 -1.1638 -0.7880
14746TIP3    H265730   5.066   0.454   6.184 -1.3566  0.3391  0.7531
14747TIP3   OH265731   5.308   5.626  13.964 -0.0219 -0.3584 -0.1350
14747TIP3    H165732   5.313   5.710  13.918 -0.1219 -1.9075 -3.2921
14747TIP3    H265733   5.398   5.607  13.989  0.1261  0.3385 -0.1201
14748TIP3   OH265734   2.861   3.643  16.367  0.0357 -0.2919  0.0929
14748TIP3    H165735   2.775   3.685  16.368  0.0036 -0.3634  1.1691
14748TIP3    H265736   2.914   3.699  16.311 -0.4494  0.2928  0.2086
14749TIP3   OH265737   4.364   2.686   0.095 -0.1598 -0.1264 -0.0413
14749TIP3    H165738   4.389   2.766   0.049 -0.7445 -0.3785 -0.8234
14749TIP3    H265739   4.442   2.661   0.144  0.8149 -0.3558 -1.6278
14750TIP3   OH265740   6.764   1.091  15.843  0.2157 -0.3296 -0.0742
14750TIP3    H165741   6.837   1.063  15.898  0.5848  1.3199  0.3203
14750TIP3    H265742   6.762   1.186  15.852 -1.2723 -0.2436 -0.9830
14751TIP3   OH265743   2.229   3.143  16.153 -0.9954  0.3510 -0.2445
14751TIP3    H165744   2.286   3.212  16.188 -0.2417 -0.2465 -0.2794
14751TIP3    H265745   2.195   3.099  16.231  0.0617 -0.4739 -0.2313
14752TIP3   OH265746   5.536   1.993   5.987  0.5803  0.2820  0.1767
14752TIP3    H165747   5.454   2.042   5.993  1.2163  1.2429  1.1708
14752TIP3    H265748   5.510   1.902   6.002 -0.0196  0.8262  2.8726
14753TIP3   OH265749   1.702   1.273  14.495 -0.3969  0.1917 -0.5638
14753TIP3    H165750   1.657   1.353  14.469 -1.4325 -0.3719 -0.5769
14753TIP3    H265751   1.681   1.210  14.425 -0.6593 -0.4421  0.0641
14754TIP3   OH265752   1.845   2.064   2.978  0.2170 -0.5817 -0.2919
14754TIP3    H165753   1.930   2.071   2.935  0.0391 -0.5693 -0.6449
14754TIP3    H265754   1.853   2.118   3.057  0.4113 -0.2693 -0.5249
14755TIP3   OH265755   6.513   4.969   5.181  0.0550 -0.3446 -0.7448
14755TIP3    H165756   6.513   4.880   5.217 -0.1902 -0.2492 -0.5007
14755TIP3    H265757   6.605   4.992   5.173  0.1170 -0.5446 -0.6185
14756TIP3   OH265758   4.359   1.350   0.609  0.7086  0.2656  0.0990
14756TIP3    H165759   4.332   1.398   0.531 -1.2918 -0.4089  0.3114
14756TIP3    H265760   4.284   1.293   0.629  1.3232  0.1165  2.2542
14757TIP3   OH265761   4.493   5.487   4.609 -0.5852  0.1336  0.4154
14757TIP3    H165762   4.539   5.495   4.526  0.1715 -0.5846  0.7522
14757TIP3    H265763   4.419   5.429   4.590 -1.4941  1.4380 -0.1687
14758TIP3   OH265764   2.018   3.329   0.429 -0.9159 -0.3396 -0.1634
14758TIP3    H165765   1.961   3.328   0.506  0.2067  1.2106  0.7591
14758TIP3    H265766   2.100   3.291   0.460  0.0422  1.6545 -0.1183
14759TIP3   OH265767   4.777   6.824  13.397  0.0300  0.2925 -0.0244
14759TIP3    H165768   4.780   6.893  13.330  1.6726  1.2719  0.9804
14759TIP3    H265769   4.778   6.872  13.480  0.0433 -0.9412  0.7074
14760TIP3   OH265770   6.109   3.020   3.140  0.1825  0.1773  0.4002
14760TIP3    H165771   6.173   3.033   3.070 -0.3521 -0.3499 -0.1952
14760TIP3    H265772   6.121   2.929   3.166 -0.7946 -0.1309 -0.1974
14761TIP3   OH265773   4.421   2.324  14.528  0.3816 -0.6421 -0.5496
14761TIP3    H165774   4.365   2.401  14.527 -0.0153 -0.8215  1.7538
14761TIP3    H265775   4.383   2.265  14.464  0.1242  0.6625 -1.6478
14762TIP3   OH265776   0.723   4.552  15.465 -0.2015  0.1009 -0.5736
14762TIP3    H165777   0.805   4.545  15.415 -0.6815 -0.2998 -1.3127
14762TIP3    H265778   0.656   4.520  15.406 -0.9224  0.5526 -0.0143
14763TIP3   OH265779   5.186   6.110  12.923  0.1316 -0.1914  0.0547
14763TIP3    H165780   5.251   6.169  12.961 -0.5554 -0.1285  1.1905
14763TIP3    H265781   5.106   6.128  12.973 -0.9039  0.0970 -1.6467
14764TIP3   OH265782   0.364   1.863  13.049 -0.0771 -0.0367  0.4295
14764TIP3    H165783   0.291   1.913  13.085 -0.3644  0.4411 -0.7828
14764TIP3    H265784   0.378   1.900  12.962  0.7092 -1.0526  0.1078
14765TIP3   OH265785   3.356   5.071  14.331 -0.0799  0.1981 -0.1156
14765TIP3    H165786   3.358   5.156  14.286 -3.4445  1.1899  1.2976
14765TIP3    H265787   3.308   5.014  14.272  1.1502 -0.4525 -0.5304
14766TIP3   OH265788   5.064   0.893   3.502 -0.3326  0.5049 -0.4828
14766TIP3    H165789   5.003   0.950   3.549  0.7559  2.3611 -1.2058
14766TIP3    H265790   5.089   0.826   3.566 -1.3099  1.0904  0.5474
14767TIP3   OH265791   3.853   6.444  15.035  0.2233  0.0847 -0.3406
14767TIP3    H165792   3.823   6.368  14.985  1.2619  0.3213 -1.3643
14767TIP3    H265793   3.826   6.519  14.983  0.3089  0.3791  0.0345
14768TIP3   OH265794   6.551   3.128  16.340 -0.1736 -0.1968  0.3043
14768TIP3    H165795   6.588   3.042  16.317  0.3323 -0.6095  2.4540
14768TIP3    H265796   6.627   3.185  16.349 -0.5241  0.6012 -1.3564
14769TIP3   OH265797   6.355   6.232   2.975 -0.4719 -0.1797 -0.6725
14769TIP3    H165798   6.351   6.280   2.893  2.4626 -0.0224 -0.8185
14769TIP3    H265799   6.424   6.167   2.962 -2.0107 -2.2114  0.6840
14770TIP3   OH265800   4.096   6.128  11.061 -0.0423 -0.2973 -0.3080
14770TIP3    H165801   4.135   6.061  11.117 -1.0978 -0.9862 -0.3828
14770TIP3    H265802   4.142   6.209  11.085 -0.4060 -0.5861  1.4786
14771TIP3   OH265803   1.075   4.688  16.380  0.3102 -0.0495  0.4707
14771TIP3    H165804   0.997   4.734  16.411 -0.6176 -1.9497  1.0801
14771TIP3    H265805   1.084   4.613  16.438  0.5888 -1.7826 -1.6628
14772TIP3   OH265806   0.730   3.858  12.503  0.6332 -0.0042 -0.0800
14772TIP3    H165807   0.742   3.839  12.596  2.7761 -1.4665 -0.5615
14772TIP3    H265808   0.809   3.905  12.478  1.8009 -2.5940 -1.7851
14773TIP3   OH265809   2.829   0.406   2.749  0.1227  0.7483 -0.0570
14773TIP3    H165810   2.762   0.455   2.702  0.7783  0.7702 -1.0042
14773TIP3    H265811   2.822   0.317   2.716  0.1673  0.6202  0.2748
14774TIP3   OH265812   5.315   2.535  13.290  0.2866 -0.5183  0.7421
14774TIP3    H165813   5.271   2.563  13.210  1.7311  0.5555  0.2971
14774TIP3    H265814   5.254   2.558  13.360  0.4918  1.8139  0.2269
14775TIP3   OH265815   0.839   2.100   5.180  0.4543  0.1755 -0.0973
14775TIP3    H165816   0.859   2.122   5.089 -1.3375 -1.6240 -1.0040
14775TIP3    H265817   0.818   2.184   5.221  1.5957  1.0540 -1.2343
14776TIP3   OH265818   5.765   2.100  17.183 -0.2632  0.2314  0.4530
14776TIP3    H165819   5.755   2.188  17.147 -1.2675 -0.7137 -1.8226
14776TIP3    H265820   5.676   2.065  17.186  0.1397 -0.7943  1.0808
14777TIP3   OH265821   3.859   3.051   4.730 -0.2040  0.2807 -0.1613
14777TIP3    H165822   3.911   3.063   4.651 -1.3118  2.4395 -0.6260
14777TIP3    H265823   3.906   3.101   4.797 -0.8011  0.8980 -0.1931
14778TIP3   OH265824   4.524   3.878   2.381  0.5514 -0.4022  0.1163
14778TIP3    H165825   4.483   3.825   2.450 -0.4646 -1.3267 -1.1493
14778TIP3    H265826   4.591   3.821   2.344  1.3788  0.2453  0.5984
14779TIP3   OH265827   5.811   4.512  14.091 -0.3829  0.4880 -0.2790
14779TIP3    H165828   5.827   4.442  14.154 -0.4719 -0.3041 -1.1013
14779TIP3    H265829   5.722   4.541  14.109 -0.7945 -0.4595 -0.6958
14780TIP3   OH265830   6.178   0.264   0.170  0.3030  0.4938  0.0163
14780TIP3    H165831   6.086   0.239   0.177  0.2775  0.7451  0.6058
14780TIP3    H265832   6.177   0.351   0.130  0.2028  1.1021  1.2943
14781TIP3   OH265833   0.514   2.961   4.625  0.3389 -0.0958  0.5856
14781TIP3    H165834   0.570   3.036   4.645 -0.9873  0.8657  0.7534
14781TIP3    H265835   0.470   2.941   4.707 -1.9107  1.1689 -0.2333
14782TIP3   OH265836   4.097   5.604   5.928 -0.0764  0.0168  0.3820
14782TIP3    H165837   4.078   5.532   5.988  0.0494 -0.1852  0.1816
14782TIP3    H265838   4.103   5.681   5.984  1.9207 -0.4592  0.9031
14783TIP3   OH265839   0.923   5.731   0.375 -0.7315  0.5887  0.1534
14783TIP3    H165840   0.844   5.705   0.422  0.1489 -0.2335  1.1958
14783TIP3    H265841   0.973   5.782   0.438  0.2873 -0.2024 -0.0045
14784TIP3   OH265842   0.997   2.661  15.976  0.0137 -0.2459 -0.0430
14784TIP3    H165843   0.916   2.707  15.951  0.6369  1.1946  0.4918
14784TIP3    H265844   0.980   2.569  15.953 -1.8863 -0.0335  0.3199
14785TIP3   OH265845   4.276   1.106  14.860 -0.1167 -0.1560 -0.5576
14785TIP3    H165846   4.267   1.163  14.784  2.3191  0.0997 -0.7518
14785TIP3    H265847   4.262   1.163  14.935 -1.8844 -0.2716 -0.7588
14786TIP3   OH265848   4.219   2.909  16.746 -0.0452  0.2499 -0.0755
14786TIP3    H165849   4.272   2.831  16.758  0.5540  0.6881  0.1723
14786TIP3    H265850   4.128   2.877  16.747  0.2176 -0.6497 -1.5862
14787TIP3   OH265851   0.408   6.597  13.713  0.0183 -0.4846 -0.0654
14787TIP3    H165852   0.349   6.664  13.678 -0.9876 -1.2876  0.0470
14787TIP3    H265853   0.414   6.617  13.807  1.0464  0.4204 -0.3098
14788TIP3   OH265854   1.289   3.472   4.673  0.2977  0.2515  0.5830
14788TIP3    H165855   1.221   3.525   4.715 -0.8310 -0.8105  0.1677
14788TIP3    H265856   1.279   3.385   4.712  0.1470 -0.3997 -0.8431
14789TIP3   OH265857   4.258   0.890  15.488 -0.1259 -0.5053  0.2097
14789TIP3    H165858   4.297   0.963  15.535 -2.0409  2.3392 -2.2138
14789TIP3    H265859   4.184   0.863  15.542 -1.3670  1.6772 -0.2797
14790TIP3   OH265860   5.609   3.242  14.552  0.2495  0.1057 -0.4355
14790TIP3    H165861   5.546   3.217  14.620  0.3241  1.8981  0.3425
14790TIP3    H265862   5.671   3.170  14.549 -0.6043 -0.6869  0.3370
14791TIP3   OH265863   2.702   1.387   1.764  0.4776  0.5060  0.4116
14791TIP3    H165864   2.753   1.422   1.837  2.1150  2.3586 -1.4584
14791TIP3    H265865   2.635   1.455   1.748  0.4507  0.3551 -0.1188
14792TIP3   OH265866   2.933   2.898  15.680  0.0958  0.3266 -0.5964
14792TIP3    H165867   2.935   2.806  15.705 -0.5373  0.8330  1.5875
14792TIP3    H265868   2.994   2.905  15.606  1.7721 -1.4636  0.5187
14793TIP3   OH265869   5.970   5.995   1.266 -0.4867 -0.1883 -0.4083
14793TIP3    H165870   5.906   5.967   1.331  0.0793 -0.3566  0.0880
14793TIP3    H265871   5.965   5.928   1.198 -1.2299  0.1011 -0.6471
14794TIP3   OH265872   6.574   2.379   2.874  0.8850 -0.5720  0.0835
14794TIP3    H165873   6.584   2.411   2.964  0.0059 -1.4098  0.4914
14794TIP3    H265874   6.554   2.286   2.884 -3.4668  0.0825 -0.7379
14795TIP3   OH265875   2.256   6.322  14.062  0.2397  0.5200  0.2201
14795TIP3    H165876   2.169   6.299  14.093 -0.1830  0.6857 -0.8073
14795TIP3    H265877   2.316   6.270  14.117 -0.6207 -2.3865 -1.3803
14796TIP3   OH265878   4.567   1.885  12.786  0.1164 -0.4290  0.7667
14796TIP3    H165879   4.643   1.828  12.776  0.4521 -0.1175  1.4732
14796TIP3    H265880   4.542   1.876  12.878 -1.3791 -1.3610  0.2985
14797TIP3   OH265881   1.429   4.139   2.119  0.2246  0.2213 -0.0778
14797TIP3    H165882   1.413   4.070   2.184  0.2188 -0.3294 -0.6548
14797TIP3    H265883   1.515   4.118   2.083  1.1791  1.7155  1.2142
14798TIP3   OH265884   5.430   3.138   5.652 -0.2642  0.4850  0.3783
14798TIP3    H165885   5.522   3.145   5.680  0.3634 -0.3321 -1.2877
14798TIP3    H265886   5.406   3.047   5.671  0.3860 -0.2921 -2.0762
14799TIP3   OH265887   4.278   0.027   2.973 -0.0694  0.5721  0.2357
14799TIP3    H165888   4.208  -0.013   2.922  0.1847  1.2891 -0.7147
14799TIP3    H265889   4.234   0.081   3.038 -0.4097  0.7489 -0.1365
14800TIP3   OH265890   1.132   2.108  15.415  0.0958 -0.1670  0.3720
14800TIP3    H165891   1.037   2.122  15.417  0.3022  1.6420 -0.4124
14800TIP3    H265892   1.165   2.153  15.493  0.2734 -1.4312  1.0583
14801TIP3   OH265893   5.640   5.400   5.966 -0.2004 -0.5223  0.0303
14801TIP3    H165894   5.570   5.454   6.002  1.7828  1.4540  1.1469
14801TIP3    H265895   5.662   5.338   6.036 -2.2014 -2.7060 -1.1079
14802TIP3   OH265896   6.302   0.367   3.848  0.4855  0.1999  0.1069
14802TIP3    H165897   6.314   0.395   3.939 -3.2323  0.2325  0.7531
14802TIP3    H265898   6.239   0.428   3.812  0.3443 -1.0171 -1.8904
14803TIP3   OH265899   3.199   6.406  16.347 -0.0689  0.6543  0.9580
14803TIP3    H165900   3.198   6.363  16.433 -0.5644  0.2847  0.7742
14803TIP3    H265901   3.253   6.348  16.293 -0.7736  0.2327  0.6982
14804TIP3   OH265902   1.329   5.890  15.880 -0.0620  0.0334 -0.3916
14804TIP3    H165903   1.279   5.972  15.883  0.2428  0.3011 -1.9383
14804TIP3    H265904   1.412   5.911  15.923 -0.5465  0.1132  0.5175
14805TIP3   OH265905   5.185   1.217  13.914 -0.1083  0.0098  0.8694
14805TIP3    H165906   5.134   1.164  13.853 -0.1426  0.5632  0.4086
14805TIP3    H265907   5.210   1.156  13.984 -2.2378 -0.0549  1.6398
14806TIP3   OH265908   2.638   6.433   3.263 -0.4212 -0.0940  0.4190
14806TIP3    H165909   2.648   6.433   3.358 -0.2760 -1.4544  0.4268
14806TIP3    H265910   2.550   6.468   3.247 -0.3548  0.3603  1.0344
14807TIP3   OH265911   6.484   5.378  13.545  0.2590  0.1762 -0.7939
14807TIP3    H165912   6.578   5.360  13.541  0.6170  1.4245  0.8320
14807TIP3    H265913   6.478   5.473  13.544 -0.8829  0.1472  0.7436
14808TIP3   OH265914   4.458   2.981  15.219 -0.7826 -0.6457 -0.3463
14808TIP3    H165915   4.446   2.947  15.130 -0.1304  0.0972 -0.7384
14808TIP3    H265916   4.452   3.076  15.208  2.4155 -0.3306 -0.1385
14809TIP3   OH265917   3.807   3.083  13.568  0.3615  0.6422  0.0140
14809TIP3    H165918   3.777   3.003  13.525  0.3051 -0.1623  1.4677
14809TIP3    H265919   3.735   3.107  13.627  1.6510 -0.1810  2.0561
14810TIP3   OH265920   5.788   3.312   2.548  0.2581  0.0989 -0.4401
14810TIP3    H165921   5.759   3.334   2.460 -1.0476  0.9856  0.1854
14810TIP3    H265922   5.883   3.299   2.539  0.1067 -0.1419 -2.0120
14811TIP3   OH265923   2.330   3.860   6.377 -0.1656 -0.4618 -0.0268
14811TIP3    H165924   2.339   3.950   6.345 -0.2592 -1.0451 -1.7966
14811TIP3    H265925   2.258   3.863   6.439 -0.5543  0.5886 -0.5129
14812TIP3   OH265926   0.896   4.112   3.634 -0.3011  0.2437 -0.2881
14812TIP3    H165927   0.822   4.169   3.653 -1.2369 -1.2692  0.8501
14812TIP3    H265928   0.969   4.151   3.682 -1.2966 -0.3176  1.8039
14813TIP3   OH265929   2.731   0.514  15.222  0.5677  0.2876 -0.1380
14813TIP3    H165930   2.775   0.594  15.249  0.9565  0.4774 -1.2772
14813TIP3    H265931   2.640   0.527  15.249  0.4094  1.5566 -1.1743
14814TIP3   OH265932   4.472   3.953  12.717 -0.4054 -0.2050 -0.0306
14814TIP3    H165933   4.416   3.995  12.783 -0.4402  0.6205 -0.5680
14814TIP3    H265934   4.557   3.944  12.760 -0.0877  1.4343 -0.2397
14815TIP3   OH265935   4.951   5.831  11.433 -0.1229  0.0985  0.1652
14815TIP3    H165936   4.967   5.782  11.353 -0.1317  0.1922  0.1064
14815TIP3    H265937   4.903   5.770  11.489 -0.2399  0.0798  0.0451
14816TIP3   OH265938   0.003   5.750  14.039  0.0877 -0.4889  0.4500
14816TIP3    H165939   0.020   5.826  14.094 -0.0490 -0.7905  0.9181
14816TIP3    H265940   0.082   5.697  14.046 -0.2305 -0.9006  0.9821
14817TIP3   OH265941   6.052   3.753  17.082  0.5164 -0.0753 -0.1935
14817TIP3    H165942   6.072   3.668  17.122 -1.2731 -0.6681 -0.4527
14817TIP3    H265943   6.042   3.733  16.989 -1.0718  0.1504 -0.1032
14818TIP3   OH265944   0.616   1.526  11.484  0.3606 -0.2619 -0.4788
14818TIP3    H165945   0.674   1.494  11.414  0.9326 -0.4015  0.0510
14818TIP3    H265946   0.570   1.449  11.514  0.6479 -0.3323 -0.2131
14819TIP3   OH265947   3.062   5.105   3.626 -0.4499 -0.1367  0.0941
14819TIP3    H165948   3.155   5.091   3.640 -0.2363  0.1481 -0.9450
14819TIP3    H265949   3.019   5.045   3.687  0.4204 -2.6422 -1.5662
14820TIP3   OH265950   5.509   6.805  15.608  0.1260 -0.1229 -0.1899
14820TIP3    H165951   5.525   6.879  15.665 -0.9498 -0.3187  0.4020
14820TIP3    H265952   5.580   6.807  15.544 -0.0772  1.6337 -0.4126
14821TIP3   OH265953   4.288   4.362   1.840 -0.0556 -0.4384  0.1277
14821TIP3    H165954   4.373   4.334   1.806 -0.2001  0.5596 -1.1330
14821TIP3    H265955   4.229   4.355   1.765 -1.1854 -1.4242  1.0677
14822TIP3   OH265956   2.310   2.357  16.232  0.5708 -0.1911  0.6911
14822TIP3    H165957   2.343   2.345  16.143 -0.7982 -0.3366  0.1744
14822TIP3    H265958   2.304   2.452  16.242  0.6664 -0.1760  0.6053
14823TIP3   OH265959   0.340   0.389  15.468  0.2482  0.0231 -0.0118
14823TIP3    H165960   0.273   0.335  15.509 -0.0205  0.6399  0.3683
14823TIP3    H265961   0.367   0.339  15.391  0.4905 -0.9667  0.7019
14824TIP3   OH265962   3.078   1.512   2.559 -0.2776  0.1124 -0.5320
14824TIP3    H165963   3.164   1.473   2.575 -0.1530  0.6266  0.1031
14824TIP3    H265964   3.069   1.578   2.628 -1.8306 -0.9644  0.3447
14825TIP3   OH265965   4.208   2.109  15.539  0.1879 -0.8490 -0.0352
14825TIP3    H165966   4.179   2.019  15.553  1.8739 -1.3801  0.3931
14825TIP3    H265967   4.256   2.106  15.456 -0.0742 -0.2553 -0.2139
14826TIP3   OH265968   2.783   6.678  15.042 -0.2188  0.1773 -0.0276
14826TIP3    H165969   2.849   6.626  15.088  1.0614 -0.0431 -1.9770
14826TIP3    H265970   2.712   6.616  15.024  0.4931 -0.4735 -0.7226
14827TIP3   OH265971   0.557   5.852   2.038 -0.0166 -0.1245  0.4727
14827TIP3    H165972   0.639   5.878   2.080  1.0196 -1.3278 -0.7171
14827TIP3    H265973   0.573   5.763   2.006 -1.1189  0.3170 -1.4736
14828TIP3   OH265974   5.583   6.183  15.010  0.2170 -0.0417 -0.2701
14828TIP3    H165975   5.509   6.219  14.961  0.0931 -0.5588 -0.4690
14828TIP3    H265976   5.557   6.189  15.102  0.9004  1.9533 -0.1728
14829TIP3   OH265977   1.772   1.435   5.597  0.3703 -0.4046  0.3197
14829TIP3    H165978   1.776   1.525   5.566  0.2163 -0.1026  1.1503
14829TIP3    H265979   1.707   1.436   5.668 -0.9749 -1.5266 -0.8271
14830TIP3   OH265980   5.188   3.148   2.671 -0.1660 -0.2241  0.1229
14830TIP3    H165981   5.187   3.171   2.578  0.2523  0.3088  0.2397
14830TIP3    H265982   5.115   3.087   2.682 -1.0637  0.7338 -0.3029
14831TIP3   OH265983   6.474   3.805   2.954  0.2401  0.6779  0.6775
14831TIP3    H165984   6.565   3.786   2.978  0.5901  0.9826 -0.3847
14831TIP3    H265985   6.423   3.759   3.021  1.1083 -1.4970 -0.0505
14832TIP3   OH265986   5.675   1.446   0.449 -0.1975  0.1338 -0.1188
14832TIP3    H165987   5.615   1.376   0.475 -0.3851  0.4287  0.2567
14832TIP3    H265988   5.659   1.458   0.355  0.0407 -0.5156 -0.2483
14833TIP3   OH265989   3.635   5.123   2.866 -0.4775  0.1496  0.4914
14833TIP3    H165990   3.588   5.199   2.901 -1.5857 -0.2192 -0.1476
14833TIP3    H265991   3.714   5.117   2.919 -0.9920  0.9917  1.3760
14834TIP3   OH265992   2.527   1.345   2.397 -0.2813  0.7405 -0.3629
14834TIP3    H165993   2.596   1.284   2.422 -0.3034  0.5142 -0.8525
14834TIP3    H265994   2.510   1.396   2.477 -0.6847 -0.2969  0.2356
14835TIP3   OH265995   3.588   4.900   4.820  0.0843 -0.4334 -0.7765
14835TIP3    H165996   3.661   4.909   4.880  0.9292 -0.2331 -1.8044
14835TIP3    H265997   3.559   4.809   4.830 -0.5630 -0.0947  0.7559
14836TIP3   OH265998   6.486   4.825   4.893 -0.1744 -0.2006 -0.3175
14836TIP3    H165999   6.450   4.813   4.804 -2.5543  0.6437  0.4463
14836TIP3    H266000   6.475   4.918   4.910 -1.2804 -0.5959  1.4232
14837TIP3   OH266001   3.957   1.170  13.087 -0.4066 -0.7187 -0.0185
14837TIP3    H166002   3.998   1.223  13.019  2.0161 -0.2485  1.6837
14837TIP3    H266003   3.889   1.121  13.041 -1.9601  2.8414 -1.9116
14838TIP3   OH266004   3.327   6.070  13.031 -0.2791 -0.0285 -0.5152
14838TIP3    H166005   3.269   6.009  13.077  1.1518 -0.8891  0.2207
14838TIP3    H266006   3.376   6.014  12.970 -1.5531  0.9748 -2.5479
14839TIP3   OH266007   2.745   1.451  13.047  0.6078 -0.6638  0.1083
14839TIP3    H166008   2.764   1.401  12.968  0.8232 -0.5938  0.1146
14839TIP3    H266009   2.719   1.538  13.016  2.6152  0.0126  0.1538
14840TIP3   OH266010   6.419   0.007  12.758  0.1404  0.4472  0.2128
14840TIP3    H166011   6.405   0.028  12.665  0.6576  1.5236  0.3652
14840TIP3    H266012   6.346  -0.051  12.781  0.1072  0.0170 -0.9073
14841TIP3   OH266013   3.472   6.537  15.150 -0.2825  0.5029  0.1101
14841TIP3    H166014   3.386   6.556  15.112 -1.6283 -0.5131  2.4204
14841TIP3    H266015   3.470   6.442  15.167  1.8141  0.2152 -0.8887
14842TIP3   OH266016   1.823   1.579   2.468  0.2344 -0.4324  0.0434
14842TIP3    H166017   1.824   1.566   2.563 -0.5524  0.0243  0.1302
14842TIP3    H266018   1.739   1.541   2.440  0.6102 -0.8634 -0.5206
14843TIP3   OH266019   4.183   6.483  12.682 -0.1927 -0.1185 -0.0028
14843TIP3    H166020   4.255   6.420  12.690  0.7270  0.5717 -2.0804
14843TIP3    H266021   4.153   6.475  12.592 -0.1306  2.2824 -0.3176
14844TIP3   OH266022   3.489   0.202  12.218  0.1521 -0.2559 -0.4660
14844TIP3    H166023   3.488   0.136  12.148  4.2314 -1.9084  0.6936
14844TIP3    H266024   3.407   0.189  12.265 -1.8582 -0.3610 -3.7439
14845TIP3   OH266025   1.198   2.095   5.138 -0.6300  0.5085  0.1251
14845TIP3    H166026   1.138   2.170   5.145 -1.8415 -0.2137 -1.7168
14845TIP3    H266027   1.182   2.044   5.217 -0.6791  1.5580  0.8112
14846TIP3   OH266028   2.908   6.503   1.771 -0.0698 -0.5148  0.9801
14846TIP3    H166029   2.985   6.458   1.805 -0.2413  0.1342  2.2726
14846TIP3    H266030   2.900   6.471   1.681  2.6491  0.5555  0.2316
14847TIP3   OH266031   5.620   1.810  16.335  0.0521  0.3947  0.2989
14847TIP3    H166032   5.587   1.795  16.247 -0.1971  0.1197  0.4377
14847TIP3    H266033   5.715   1.800  16.328 -0.1074 -1.7116  0.4617
14848TIP3   OH266034   3.179   4.323   5.073 -0.3073  0.6121  0.1285
14848TIP3    H166035   3.084   4.312   5.068 -0.0590 -1.4792 -0.6519
14848TIP3    H266036   3.214   4.261   5.009  1.6306  0.6785  1.0708
14849TIP3   OH266037   2.723   5.970   1.224 -0.0076 -0.0784 -0.7592
14849TIP3    H166038   2.751   5.957   1.133 -0.9722  0.8907 -1.2106
14849TIP3    H266039   2.802   5.953   1.276  0.3744 -1.3929 -1.7075
14850TIP3   OH266040   0.189   3.185   1.297 -0.2413 -0.3686 -0.2117
14850TIP3    H166041   0.179   3.173   1.392 -1.0260 -0.4925 -0.3038
14850TIP3    H266042   0.278   3.155   1.278  0.6060  1.3743  0.7691
14851TIP3   OH266043   3.223   5.014   4.459 -0.7077  0.2130  0.4689
14851TIP3    H166044   3.264   4.927   4.458 -1.2445 -0.0441  0.3358
14851TIP3    H266045   3.284   5.069   4.508  0.5241  0.2063 -0.9875
14852TIP3   OH266046   4.181   5.460  14.423 -0.3884  0.1685 -0.1645
14852TIP3    H166047   4.165   5.370  14.394 -0.6236 -0.1321  0.8564
14852TIP3    H266048   4.211   5.451  14.514  1.5647  0.9975 -0.6745
14853TIP3   OH266049   2.124   4.622  12.185 -0.0408  0.1583 -0.4648
14853TIP3    H166050   2.185   4.565  12.139 -1.0490  0.6230 -2.4728
14853TIP3    H266051   2.179   4.692  12.221  0.8911 -0.7656 -0.0432
14854TIP3   OH266052   1.602   4.180   0.305  0.5566 -0.1797 -0.2184
14854TIP3    H166053   1.570   4.096   0.339 -0.3889 -0.1966 -1.1076
14854TIP3    H266054   1.648   4.156   0.225  1.2856  0.0453  0.1238
14855TIP3   OH266055   2.169   5.727  17.152 -0.4868  0.1181  0.2769
14855TIP3    H166056   2.205   5.805  17.111 -1.5063  1.0300  1.0456
14855TIP3    H266057   2.154   5.666  17.079  0.4686  0.5687 -0.3120
14856TIP3   OH266058   3.693   6.752   3.463  0.4821 -0.6220  0.6586
14856TIP3    H166059   3.655   6.707   3.538 -1.5128  1.4007  0.9904
14856TIP3    H266060   3.660   6.703   3.387  2.1690 -2.4254  1.0141
14857TIP3   OH266061   1.500   6.261  15.544 -0.0949  0.3187  0.0761
14857TIP3    H166062   1.526   6.329  15.606  0.2734  0.8859 -0.6869
14857TIP3    H266063   1.451   6.307  15.476  1.2979  0.0803 -1.1560
14858TIP3   OH266064   6.841   0.806  16.491 -0.5249 -0.4258  0.4304
14858TIP3    H166065   6.768   0.770  16.440 -1.5634 -1.7829  2.7592
14858TIP3    H266066   6.908   0.737  16.489 -0.5373 -0.4473  0.8539
14859TIP3   OH266067   1.423   6.063  12.837 -0.7496 -0.2360 -0.3032
14859TIP3    H166068   1.501   6.041  12.888 -0.1435  2.3030 -0.0178
14859TIP3    H266069   1.362   6.100  12.901 -0.6027  1.4725 -1.0849
14860TIP3   OH266070   2.628   2.987  17.168 -0.4675 -0.3388  0.2142
14860TIP3    H166071   2.586   2.908  17.203 -0.0392  0.1410  1.9414
14860TIP3    H266072   2.689   3.013  17.237 -1.2087  1.9654  0.0768
14861TIP3   OH266073   0.701   1.698   4.880 -0.0725  0.1557 -0.1769
14861TIP3    H166074   0.763   1.766   4.906  2.6191 -1.5430 -1.7378
14861TIP3    H266075   0.716   1.627   4.941 -2.2995  0.5610  0.9401
14862TIP3   OH266076   5.407   0.497  11.639  0.0880  0.3014  0.3088
14862TIP3    H166077   5.359   0.472  11.560  0.9105 -2.4642  0.5853
14862TIP3    H266078   5.340   0.531  11.699 -0.4973  2.8485 -1.6105
14863TIP3   OH266079   5.370   2.888  14.106  0.1937 -0.4054  0.0818
14863TIP3    H166080   5.416   2.957  14.155  0.4274  0.9517 -1.9257
14863TIP3    H266081   5.291   2.931  14.074 -0.0224 -1.2982 -0.6063
14864TIP3   OH266082   4.771   2.846  12.200 -0.2090  0.2900  0.3144
14864TIP3    H166083   4.715   2.914  12.239 -0.1370 -0.4910  1.8765
14864TIP3    H266084   4.710   2.787  12.155 -0.2423  1.5263 -1.3555
14865TIP3   OH266085   5.195   4.136  15.870 -0.7696  0.4850 -0.0290
14865TIP3    H166086   5.255   4.144  15.944  2.1961 -2.7547 -1.7757
14865TIP3    H266087   5.221   4.205  15.810  1.2615 -0.7313 -0.6567
14866TIP3   OH266088   2.791   6.597  15.363  0.8057 -0.0702  0.0258
14866TIP3    H166089   2.717   6.605  15.303  2.3618  0.7582 -1.8739
14866TIP3    H266090   2.805   6.502  15.371 -0.6890 -0.2607  0.7822
14867TIP3   OH266091   4.838   6.775  11.449  0.3413 -0.2945  0.3393
14867TIP3    H166092   4.923   6.741  11.478  1.7200  0.2359 -2.6529
14867TIP3    H266093   4.846   6.778  11.354 -3.1058 -0.2625 -0.0519
14868TIP3   OH266094   4.040   5.938   6.566 -0.0116  0.1962  0.1586
14868TIP3    H166095   3.978   5.866   6.577 -1.2731  1.3793  1.2666
14868TIP3    H266096   4.003   5.990   6.493 -0.6286  1.1521  1.1198
14869TIP3   OH266097   6.619   2.367   1.965 -0.1664 -0.7479 -0.4123
14869TIP3    H166098   6.655   2.283   1.937  1.4682  0.1814 -1.2240
14869TIP3    H266099   6.660   2.384   2.050 -0.5287 -0.7691 -0.2273
14870TIP3   OH266100   3.763   2.550  15.547 -0.3796  0.1025  0.2745
14870TIP3    H166101   3.857   2.545  15.534 -0.3183  1.1185  0.2807
14870TIP3    H266102   3.752   2.554  15.643 -0.4231  0.1013  0.2692
14871TIP3   OH266103   2.971   2.732  11.850 -0.0292 -0.1839 -0.3297
14871TIP3    H166104   3.051   2.762  11.808  0.7757  0.8189  1.7851
14871TIP3    H266105   2.902   2.786  11.811  0.8921  1.7843  0.5982
14872TIP3   OH266106   2.795   2.125   4.010  0.0206 -0.8484 -0.2598
14872TIP3    H166107   2.817   2.215   4.035 -0.7900 -0.9601  0.9716
14872TIP3    H266108   2.836   2.112   3.925 -1.3113  1.2721 -1.3047
14873TIP3   OH266109   0.855   3.015   0.038  0.0995  0.3464 -0.0583
14873TIP3    H166110   0.925   2.965   0.080  0.4348 -2.8321 -3.8723
14873TIP3    H266111   0.894   3.049  -0.042 -2.0220  0.8066 -0.9719
14874TIP3   OH266112   1.380   3.500   4.146  0.7103 -0.4264  0.0491
14874TIP3    H166113   1.376   3.432   4.078 -1.1340  0.5539 -0.8980
14874TIP3    H266114   1.406   3.579   4.100 -0.6603  0.2724  0.4149
14875TIP3   OH266115   3.612   5.505  16.654  0.6780 -0.5563 -0.0735
14875TIP3    H166116   3.551   5.432  16.644  0.4795 -0.1978 -1.8176
14875TIP3    H266117   3.558   5.577  16.688  0.1459 -0.3237 -1.3489
14876TIP3   OH266118   4.416   2.853   6.522 -0.2110 -0.0347 -0.1400
14876TIP3    H166119   4.453   2.801   6.593 -1.9008 -0.1027  0.7517
14876TIP3    H266120   4.341   2.897   6.562 -1.4270 -0.3461 -1.9667
14877TIP3   OH266121   1.935   0.539  15.231 -0.0121  0.1702  0.1428
14877TIP3    H166122   2.011   0.564  15.283 -1.3629  3.0748  0.9882
14877TIP3    H266123   1.962   0.553  15.140  0.5280  1.1143  0.4291
14878TIP3   OH266124   0.511   5.188  16.840  0.0784  0.2257 -0.4414
14878TIP3    H166125   0.584   5.213  16.896  0.5525  0.3928 -1.1266
14878TIP3    H266126   0.547   5.124  16.779  0.1650  1.7095 -2.0327
14879TIP3   OH266127   1.389   5.345  15.122 -0.3196 -0.1487 -0.0717
14879TIP3    H166128   1.353   5.412  15.180  0.8398  1.1243 -0.7685
14879TIP3    H266129   1.479   5.334  15.150 -0.1014 -0.4258 -0.8406
14880TIP3   OH266130   4.514   1.482  10.357 -0.3995  0.2583  0.7422
14880TIP3    H166131   4.499   1.422  10.284  0.3463  0.7477  0.1722
14880TIP3    H266132   4.426   1.509  10.384 -0.6822  1.1425 -0.8923
14881TIP3   OH266133   2.150   4.239  15.355 -0.3613  0.0930  0.2089
14881TIP3    H166134   2.118   4.305  15.416  0.1212  1.1454 -0.6485
14881TIP3    H266135   2.087   4.239  15.283  0.6206  0.9905 -0.6911
14882TIP3   OH266136   5.260   3.963   2.818 -0.0766  0.1003 -0.0888
14882TIP3    H166137   5.267   3.996   2.908  0.1185 -0.1286 -0.0167
14882TIP3    H266138   5.350   3.964   2.785 -0.1744  0.3602 -0.3468
14883TIP3   OH266139   2.939   1.545  12.066 -0.1201  0.8481  0.0211
14883TIP3    H166140   2.971   1.633  12.043 -0.1777  0.6992 -0.6507
14883TIP3    H266141   2.846   1.546  12.043 -0.4754  1.0790  1.4030
14884TIP3   OH266142   4.812   3.979  12.301 -0.1201  0.1524  0.5604
14884TIP3    H166143   4.834   3.985  12.394  0.3970  0.3457  0.4320
14884TIP3    H266144   4.734   4.034  12.292 -1.0793 -1.0786  1.1484
14885TIP3   OH266145   4.818   6.702  17.011 -0.5552 -0.0353  0.0120
14885TIP3    H166146   4.896   6.674  17.059 -0.6416  1.8681  1.3941
14885TIP3    H266147   4.744   6.675  17.066 -0.8090 -0.4634 -0.5285
14886TIP3   OH266148   0.887   5.659  11.997  0.5634 -0.1668 -0.2454
14886TIP3    H166149   0.857   5.568  11.995  1.8875 -0.6264 -0.5570
14886TIP3    H266150   0.962   5.661  11.937  0.9312  0.9907  0.2179
14887TIP3   OH266151   5.235   1.678  12.024  0.0142  0.1315 -0.3059
14887TIP3    H166152   5.237   1.720  11.938  0.6411 -1.1281 -0.9413
14887TIP3    H266153   5.328   1.663  12.045 -0.1895 -1.9809 -0.6721
14888TIP3   OH266154   2.833   4.252   4.220 -0.4780  0.2008 -0.2894
14888TIP3    H166155   2.771   4.325   4.234 -1.8577 -0.7199 -1.2699
14888TIP3    H266156   2.792   4.178   4.263 -0.1907 -0.4912 -1.1833
14889TIP3   OH266157   1.438   0.061  15.526  0.0684 -0.4579  0.1462
14889TIP3    H166158   1.403  -0.028  15.518 -0.5173 -0.2427  0.2483
14889TIP3    H266159   1.500   0.069  15.454  1.2574 -1.4568  1.0166
14890TIP3   OH266160   2.879   3.235   5.467 -0.0314 -0.1847  0.1855
14890TIP3    H166161   2.894   3.324   5.500 -0.3179 -0.7411  1.9515
14890TIP3    H266162   2.853   3.247   5.376 -2.2101  1.7172  0.9459
14891TIP3   OH266163   3.801   0.865  11.944  0.2723 -0.0332  0.0760
14891TIP3    H166164   3.744   0.827  11.877 -0.9414 -1.0358  1.6122
14891TIP3    H266165   3.881   0.813  11.940  0.3717  0.1806 -0.8598
14892TIP3   OH266166   1.211   5.828   4.610 -0.5202 -0.4305  0.8932
14892TIP3    H166167   1.136   5.880   4.637 -0.3572  0.6142 -0.5519
14892TIP3    H266168   1.281   5.852   4.671  0.0221  2.3256 -0.6754
14893TIP3   OH266169   0.197   3.793  16.983 -0.0041 -0.2294 -0.3873
14893TIP3    H166170   0.178   3.816  17.074 -2.9412  0.4278 -1.0367
14893TIP3    H266171   0.290   3.771  16.982  0.3534  0.6949  2.5532
14894TIP3   OH266172   6.716   5.360   5.464 -0.8783 -0.1495 -0.2232
14894TIP3    H166173   6.768   5.285   5.492  0.1175 -0.7408 -3.2350
14894TIP3    H266174   6.777   5.434   5.469 -1.4702  0.2497  1.5046
14895TIP3   OH266175   3.336   6.503   0.058  0.7329 -0.3620 -0.0084
14895TIP3    H166176   3.329   6.552  -0.023 -0.0355  0.7647  0.7063
14895TIP3    H266177   3.260   6.529   0.109  2.3618  0.8031  2.0208
14896TIP3   OH266178   1.465   3.789   3.019 -0.0879  0.3805  0.2487
14896TIP3    H166179   1.470   3.706   2.971 -0.7484 -0.6753  1.9097
14896TIP3    H266180   1.520   3.849   2.968  2.4071 -1.7137  0.2368
14897TIP3   OH266181   6.149   3.498  12.573  0.4001  0.3444  0.2025
14897TIP3    H166182   6.161   3.453  12.489  0.4282 -0.6145  0.7118
14897TIP3    H266183   6.192   3.441  12.637 -0.4729  0.5797  1.0086
14898TIP3   OH266184   1.746   4.690  12.766  0.7750 -0.1023 -0.8168
14898TIP3    H166185   1.724   4.607  12.808  2.0087 -0.4873 -0.8973
14898TIP3    H266186   1.723   4.757  12.831  0.1967 -0.5241 -0.5767
14899TIP3   OH266187   0.710   1.093   3.433 -0.1383 -0.6194 -0.0763
14899TIP3    H166188   0.694   1.096   3.527  0.1366 -0.1674 -0.0384
14899TIP3    H266189   0.646   1.031   3.399 -0.1927 -0.8357  0.4183
14900TIP3   OH266190   3.792   1.414   4.334 -0.4729  0.3545 -0.4802
14900TIP3    H166191   3.817   1.325   4.359 -2.8464 -1.1878 -3.0134
14900TIP3    H266192   3.698   1.418   4.352 -0.2029  2.8491  0.7270
14901TIP3   OH266193   6.120   5.542  12.624 -0.9515 -0.4637 -0.3069
14901TIP3    H166194   6.167   5.586  12.553 -1.1607  1.3418  0.6037
14901TIP3    H266195   6.048   5.497  12.581 -2.3397  2.3150 -1.1338
14902TIP3   OH266196   0.002   0.154   0.552 -0.1254 -0.0775 -0.0574
14902TIP3    H166197  -0.048   0.144   0.633  0.3115  1.4499  0.4372
14902TIP3    H266198   0.025   0.247   0.550  1.0626 -0.3735 -1.2341
14903TIP3   OH266199   2.855   1.889  17.164  0.8890  0.0523  0.0233
14903TIP3    H166200   2.857   1.857  17.074  3.6670 -1.4500  0.4956
14903TIP3    H266201   2.889   1.979  17.158 -2.1382  1.2609 -0.7144
14904TIP3   OH266202   0.118   4.485   0.940  0.7654  0.5230  0.0873
14904TIP3    H166203   0.129   4.496   0.845  4.0936 -1.3725  0.1173
14904TIP3    H266204   0.203   4.508   0.977  0.1947 -0.8077  2.4203
14905TIP3   OH266205   4.741   1.332   6.290 -0.0796 -0.1536 -0.2890
14905TIP3    H166206   4.731   1.300   6.380  2.7894 -1.3105 -0.2563
14905TIP3    H266207   4.652   1.346   6.259 -1.1628  0.0304  2.6299
14906TIP3   OH266208   0.166   2.953  11.406 -0.1168  0.0852 -0.5384
14906TIP3    H166209   0.219   3.017  11.453  0.0754 -0.9826  0.7749
14906TIP3    H266210   0.079   2.992  11.401  0.1240  0.6697 -0.2341
14907TIP3   OH266211   1.345   5.312   1.887  0.6799  0.1363  0.1488
14907TIP3    H166212   1.322   5.221   1.870  0.5874 -0.1761  1.7388
14907TIP3    H266213   1.440   5.316   1.875  1.0489 -0.7747  2.3246
14908TIP3   OH266214   3.038   6.074   0.306  0.4850  0.3671 -0.3404
14908TIP3    H166215   3.093   6.143   0.343  0.0025 -0.0342  1.2032
14908TIP3    H266216   2.982   6.119   0.242  0.8401  1.2248 -0.0653
14909TIP3   OH266217   6.497   5.275   2.630 -0.3082  0.3780 -0.4611
14909TIP3    H166218   6.557   5.267   2.556 -0.6243  0.1114 -0.6896
14909TIP3    H266219   6.411   5.252   2.594 -0.4215 -0.0013  0.0500
14910TIP3   OH266220   6.323   0.564   1.227  0.0642  0.5080 -0.5373
14910TIP3    H166221   6.250   0.520   1.271  1.4012 -3.0059 -1.4699
14910TIP3    H266222   6.397   0.504   1.238  1.4074  1.2199 -4.2334
14911TIP3   OH266223   2.604   6.539  12.563 -0.0142 -0.2249  0.2998
14911TIP3    H166224   2.563   6.535  12.477 -0.1129 -1.6134  0.3817
14911TIP3    H266225   2.697   6.556  12.545 -0.4785  2.4396  0.0895
14912TIP3   OH266226   5.710   1.041  13.032 -0.2339 -0.0660  0.1316
14912TIP3    H166227   5.616   1.057  13.030 -0.1258  1.1962  2.0372
14912TIP3    H266228   5.742   1.075  12.949 -1.2201  1.5965  0.3812
14913TIP3   OH266229   5.179   4.998   4.417 -0.2135  0.3425  0.4179
14913TIP3    H166230   5.206   4.913   4.451 -1.0327  0.6136  1.8340
14913TIP3    H266231   5.242   5.060   4.453  1.0614  0.2507 -1.5249
14914TIP3   OH266232   1.034   3.129   0.479 -0.1496 -0.0983 -0.2455
14914TIP3    H166233   1.088   3.181   0.419  0.3554 -1.8602 -1.4134
14914TIP3    H266234   0.944   3.148   0.454 -0.0402  1.2848  0.3277
14915TIP3   OH266235   3.181   4.266   5.501 -0.7181 -0.4823  0.4169
14915TIP3    H166236   3.175   4.194   5.438 -0.4391 -0.1537  0.0119
14915TIP3    H266237   3.180   4.345   5.447  3.3375 -0.2188  0.4574
14916TIP3   OH266238   2.299   6.459   5.056  0.0632  0.1363 -0.1213
14916TIP3    H166239   2.273   6.467   4.964 -0.1607  0.2103 -0.0534
14916TIP3    H266240   2.394   6.448   5.054  0.0059 -0.3133 -0.3872
14917TIP3   OH266241   4.083   6.411  14.838 -0.5596  0.3524 -0.0489
14917TIP3    H166242   4.008   6.410  14.898  0.4531  0.4555  1.2819
14917TIP3    H266243   4.060   6.477  14.773 -2.7455 -1.4362 -1.2662
14918TIP3   OH266244   1.244   3.668  11.470 -0.0780  0.0844 -0.1199
14918TIP3    H166245   1.211   3.748  11.510  0.0685 -0.2884  0.7837
14918TIP3    H266246   1.166   3.624  11.436 -0.2363  0.2869 -0.0234
14919TIP3   OH266247   3.621   4.337  13.481  0.6924  0.4280 -0.1124
14919TIP3    H166248   3.558   4.271  13.453  1.9400 -1.5927  1.5861
14919TIP3    H266249   3.593   4.417  13.436 -2.5742 -0.5466 -0.0718
14920TIP3   OH266250   3.092   0.182   4.632 -0.1770 -0.0804  0.1535
14920TIP3    H166251   3.027   0.124   4.592  0.0018 -1.4788  1.7649
14920TIP3    H266252   3.161   0.190   4.566 -0.4247 -1.3465 -0.2918
14921TIP3   OH266253   6.153   3.038  13.475 -0.0531  0.1891  0.0497
14921TIP3    H166254   6.208   3.085  13.413 -0.8378  0.5689 -0.3739
14921TIP3    H266255   6.144   2.950  13.439  1.6199 -0.3905  0.9651
14922TIP3   OH266256   5.951   6.500  10.539  0.3173  0.2041 -0.9336
14922TIP3    H166257   5.889   6.544  10.597  2.5246  1.1303  0.9253
14922TIP3    H266258   5.978   6.569  10.478 -0.0275 -0.0264 -1.3482
14923TIP3   OH266259   3.738   5.834   4.986  0.6423 -0.4602 -0.3032
14923TIP3    H166260   3.670   5.899   4.998  0.1406 -0.8497 -0.9336
14923TIP3    H266261   3.755   5.799   5.074  1.3905  0.9588  0.1406
14924TIP3   OH266262   5.754   5.143  16.716 -0.7795 -0.1114  0.1922
14924TIP3    H166263   5.742   5.048  16.716 -1.4684 -0.0253  0.0621
14924TIP3    H266264   5.667   5.178  16.733 -0.9182  0.5578 -1.6888
14925TIP3   OH266265   1.181   1.878  11.250 -0.3900 -0.8576  0.6194
14925TIP3    H166266   1.103   1.824  11.233 -0.7823 -0.0717 -0.1331
14925TIP3    H266267   1.204   1.858  11.341  0.3003 -3.3300 -0.0352
14926TIP3   OH266268   4.757   2.719   5.780  0.0210  0.0768  0.2860
14926TIP3    H166269   4.715   2.642   5.820 -2.3141  0.9397 -0.3328
14926TIP3    H266270   4.750   2.787   5.847  0.1919  0.3161  0.0609
14927TIP3   OH266271   0.013   0.979  12.926 -0.0733 -0.6019 -0.4157
14927TIP3    H166272  -0.005   0.930  13.006  0.4364 -1.5945 -0.8877
14927TIP3    H266273   0.094   1.027  12.944  1.2936 -2.5652 -1.0526
14928TIP3   OH266274   3.721   4.757  13.547  0.3585  0.5788 -0.0206
14928TIP3    H166275   3.707   4.687  13.612  1.9733  0.7539  0.5485
14928TIP3    H266276   3.634   4.797  13.537  0.0176  0.4003  1.8727
14929TIP3   OH266277   6.606   2.300   3.597  0.3565  0.2069  0.5761
14929TIP3    H166278   6.573   2.213   3.574 -0.1738  0.7029 -0.6244
14929TIP3    H266279   6.701   2.291   3.593  0.3907 -0.7596  2.2580
14930TIP3   OH266280   4.813   0.551   4.663 -0.1319 -0.3692 -0.0640
14930TIP3    H166281   4.731   0.510   4.633  1.0120 -1.0805 -2.5162
14930TIP3    H266282   4.809   0.640   4.629  0.3655 -0.6056 -0.7665
14931TIP3   OH266283   3.596   5.213   3.675 -0.2162  0.8617  0.2935
14931TIP3    H166284   3.559   5.258   3.751 -0.3748 -0.5793  1.1072
14931TIP3    H266285   3.527   5.215   3.609  0.1277  2.6321 -0.0599
14932TIP3   OH266286   0.003   2.307  16.900 -0.0087  0.1973 -0.2586
14932TIP3    H166287  -0.018   2.231  16.954 -0.4060 -0.0563 -0.7557
14932TIP3    H266288  -0.021   2.382  16.954 -0.6331 -0.0566 -0.1721
14933TIP3   OH266289   1.931   5.159  14.553 -0.4859 -0.2828  0.2539
14933TIP3    H166290   1.977   5.169  14.637  1.0136  2.4754 -0.7567
14933TIP3    H266291   1.952   5.070  14.525  4.5343  0.7225 -0.1348
14934TIP3   OH266292   6.242   3.277  17.194  0.6411  0.4425  0.6178
14934TIP3    H166293   6.242   3.293  17.100  1.1789  0.2689  0.5868
14934TIP3    H266294   6.259   3.183  17.203  1.1874  0.5626  0.9002
14935TIP3   OH266295   0.753   3.064  11.971  0.1108  0.2684  0.1041
14935TIP3    H166296   0.697   3.081  11.895 -0.2056  2.1043  0.6989
14935TIP3    H266297   0.842   3.075  11.938 -0.0440  4.2938  0.5589
14936TIP3   OH266298   6.081   0.916   2.041  0.0002  0.4709  0.5882
14936TIP3    H166299   6.041   0.978   2.102 -2.1616  0.7919 -1.0457
14936TIP3    H266300   6.146   0.869   2.093 -2.5079 -0.0921  3.4596
14937TIP3   OH266301   4.613   5.091  14.638 -0.1868 -0.3708 -0.7107
14937TIP3    H166302   4.575   5.003  14.636 -2.5465  0.5367  0.4950
14937TIP3    H266303   4.548   5.146  14.595 -0.2523  1.2569  1.3652
14938TIP3   OH266304   5.816   0.387   4.593 -0.1476  0.3885 -0.0585
14938TIP3    H166305   5.779   0.470   4.622  1.2546  1.1496 -0.3604
14938TIP3    H266306   5.776   0.322   4.651 -1.8144  1.1569 -0.2872
14939TIP3   OH266307   3.134   2.230   2.070 -0.0773  0.3324 -0.2935
14939TIP3    H166308   3.189   2.152   2.067 -2.2473 -1.2740 -0.9467
14939TIP3    H266309   3.150   2.267   2.156  0.0042 -1.6370  0.6038
14940TIP3   OH266310   1.214   4.259   3.910 -0.2229 -0.6611  0.4347
14940TIP3    H166311   1.120   4.275   3.919 -0.0741  0.1527  0.6165
14940TIP3    H266312   1.255   4.333   3.954  0.4972  1.0197 -2.7424
14941TIP3   OH266313   3.347   6.322   4.182 -0.5438  0.1845 -0.0597
14941TIP3    H166314   3.331   6.330   4.276 -0.0307 -3.1666  0.4498
14941TIP3    H266315   3.443   6.318   4.174 -0.5702  0.7405 -0.7888
14942TIP3   OH266316   5.442   6.113  14.659  0.0810  0.1518  0.0563
14942TIP3    H166317   5.427   6.035  14.605 -2.6046 -0.1504  1.0594
14942TIP3    H266318   5.537   6.121  14.663  0.4434 -2.3147 -1.1511
14943TIP3   OH266319   5.968   5.633   3.139 -0.0642  0.3654  0.3105
14943TIP3    H166320   6.001   5.618   3.050 -1.0451  0.5090 -0.0851
14943TIP3    H266321   5.937   5.723   3.139 -0.8078  0.1145  0.5624
14944TIP3   OH266322   3.947   2.139  15.588  0.4389  0.8167  0.1619
14944TIP3    H166323   3.974   2.193  15.514  1.8118 -0.0602 -0.0182
14944TIP3    H266324   3.902   2.065  15.548  0.2606  0.8673  0.2705
14945TIP3   OH266325   0.614   5.095   3.018 -0.0088 -0.4706  0.3449
14945TIP3    H166326   0.669   5.056   3.086  0.1822  0.0016  0.4637
14945TIP3    H266327   0.651   5.064   2.935 -0.4426 -1.3202  0.4534
14946TIP3   OH266328   6.289   5.510  16.663 -0.0523  0.6918 -0.3930
14946TIP3    H166329   6.194   5.525  16.670 -0.2368  0.1521 -1.4429
14946TIP3    H266330   6.325   5.596  16.645 -0.4282  0.8007 -0.6478
14947TIP3   OH266331   0.035   3.322   3.980  1.1717  0.1186 -0.3244
14947TIP3    H166332  -0.045   3.365   3.950 -0.1549 -1.5415  0.6376
14947TIP3    H266333   0.081   3.390   4.029  0.2924  1.0840 -0.7794
14948TIP3   OH266334   1.923   4.995   4.212 -0.7180  0.2578  0.2867
14948TIP3    H166335   1.916   5.089   4.228  1.6461  0.6413 -0.4153
14948TIP3    H266336   1.909   4.986   4.117  4.3139  0.8354 -0.8242
14949TIP3   OH266337   1.546   0.381  14.111  0.6625 -0.1041 -0.1738
14949TIP3    H166338   1.560   0.291  14.080 -0.5380 -0.5616  0.5259
14949TIP3    H266339   1.563   0.376  14.205  1.2600  0.5608 -0.2448
14950TIP3   OH266340   6.472   6.726   3.221 -0.1794  0.6228  0.1910
14950TIP3    H166341   6.403   6.664   3.243 -1.6920  2.3733  0.6817
14950TIP3    H266342   6.474   6.728   3.125 -0.0713 -0.2023  0.1744
14951TIP3   OH266343   2.407   0.856   1.028 -0.1735 -0.0647  0.4653
14951TIP3    H166344   2.330   0.810   0.995  1.3239 -1.4347 -1.3540
14951TIP3    H266345   2.407   0.939   0.981  0.1943 -0.6631 -0.6246
14952TIP3   OH266346   5.247   1.054   3.382  0.3992  0.1885 -0.3088
14952TIP3    H166347   5.205   0.998   3.447  0.9709  1.9230  1.6957
14952TIP3    H266348   5.259   1.138   3.427  3.2368  0.7052 -1.7712
14953TIP3   OH266349   6.115   6.221  15.226 -0.7649 -0.4009  0.5043
14953TIP3    H166350   6.097   6.128  15.217  0.4285 -0.5917 -0.0837
14953TIP3    H266351   6.151   6.248  15.142  0.7782  0.1251  1.2816
14954TIP3   OH266352   2.749   3.813   5.351 -0.5052 -0.2290  0.1530
14954TIP3    H166353   2.664   3.847   5.378  0.0235  1.1727  0.1390
14954TIP3    H266354   2.741   3.803   5.256 -1.2701 -1.9719  0.3714
14955TIP3   OH266355   5.040   5.045   0.535  0.2310  0.2425 -0.0258
14955TIP3    H166356   4.987   5.058   0.457  0.9767  0.2263 -0.5423
14955TIP3    H266357   5.008   5.111   0.597 -0.2889  0.3217 -0.3772
14956TIP3   OH266358   0.414   1.210  15.853  0.1043  0.1166 -0.1199
14956TIP3    H166359   0.443   1.283  15.907 -0.1455  0.6036 -0.6360
14956TIP3    H266360   0.353   1.249  15.791 -0.2314 -0.5789 -0.2286
14957TIP3   OH266361   0.877   3.247   6.678  0.0239  0.1360  0.7475
14957TIP3    H166362   0.820   3.189   6.729 -0.1463 -0.5953 -0.2409
14957TIP3    H266363   0.816   3.304   6.630  0.0985 -0.7407 -0.4212
14958TIP3   OH266364   2.876   5.310   2.465 -0.1155 -0.3694 -0.1929
14958TIP3    H166365   2.960   5.352   2.480 -0.6297  0.0058  1.9285
14958TIP3    H266366   2.879   5.230   2.516 -1.1276 -0.2250  0.1158
14959TIP3   OH266367   2.727   3.505   4.558 -0.3845  0.0040  0.6515
14959TIP3    H166368   2.690   3.419   4.579  0.4754 -0.4046  0.5393
14959TIP3    H266369   2.763   3.538   4.640 -0.5102  0.1537  0.6465
14960TIP3   OH266370   4.532   2.611  15.300  0.4879 -0.2183  0.4745
14960TIP3    H166371   4.479   2.681  15.338  2.4960  1.6839 -0.0203
14960TIP3    H266372   4.494   2.530  15.336 -3.0095  0.9089 -0.2553
14961TIP3   OH266373   5.974   2.857   2.568 -0.0658  0.6512  0.2340
14961TIP3    H166374   5.927   2.788   2.521  1.8425  0.2469 -1.2210
14961TIP3    H266375   5.948   2.938   2.523  2.0457  0.2323 -1.9601
14962TIP3   OH266376   6.549   5.023  16.716 -0.0377  0.2770  0.4530
14962TIP3    H166377   6.603   5.054  16.643  1.8497 -2.1799  0.6971
14962TIP3    H266378   6.469   5.075  16.710  1.3152  2.3089 -1.4669
14963TIP3   OH266379   6.056   1.603  16.203 -0.3568 -0.7189 -0.3767
14963TIP3    H166380   6.084   1.576  16.291 -1.2104 -1.3417 -0.2947
14963TIP3    H266381   5.961   1.597  16.205 -0.4012 -0.3764 -1.2347
14964TIP3   OH266382   5.782   2.096  12.630  0.6313 -0.3457  0.0735
14964TIP3    H166383   5.776   2.030  12.699  0.9233  1.5414  2.0031
14964TIP3    H266384   5.730   2.169  12.661 -0.7746 -0.0741 -2.6127
14965TIP3   OH266385   5.850   6.580   0.077  0.6914  0.5388  0.0011
14965TIP3    H166386   5.813   6.665   0.051 -0.4116 -0.0279 -0.3880
14965TIP3    H266387   5.882   6.542  -0.005 -0.9541 -0.3929 -0.2582
14966TIP3   OH266388   4.111   1.814   4.474 -0.7893 -0.3686 -0.0667
14966TIP3    H166389   4.089   1.732   4.518  0.6063  0.0656  1.5713
14966TIP3    H266390   4.153   1.787   4.392 -0.3002 -1.3119  0.4690
14967TIP3   OH266391   5.644   4.051  14.953  0.0630 -0.3242  0.3445
14967TIP3    H166392   5.620   4.035  15.044 -0.9988  1.4983  0.4237
14967TIP3    H266393   5.716   4.113  14.958  0.0099 -0.2279 -0.0668
14968TIP3   OH266394   2.966   5.566   5.704 -0.2742 -0.9006 -0.2651
14968TIP3    H166395   3.035   5.535   5.763 -0.4576 -2.3350 -0.7615
14968TIP3    H266396   2.885   5.547   5.752 -0.3635 -0.0907 -0.0855
14969TIP3   OH266397   6.264   1.878   5.479 -0.4367 -0.3000 -0.1925
14969TIP3    H166398   6.200   1.812   5.508  0.0455 -0.3063  0.8906
14969TIP3    H266399   6.263   1.870   5.383  0.1078 -2.3825 -0.0869
14970TIP3   OH266400   4.620   3.786   5.616  0.5766  0.9277 -0.1497
14970TIP3    H166401   4.668   3.775   5.534  0.7749  0.9661 -0.0384
14970TIP3    H266402   4.554   3.716   5.615  1.3617  0.1572  0.2142
14971TIP3   OH266403   2.667   5.144  13.954 -0.6209  0.0987 -0.0206
14971TIP3    H166404   2.741   5.107  14.004 -0.6991 -1.6557 -1.0953
14971TIP3    H266405   2.709   5.199  13.888 -0.3285  0.0395  0.1116
14972TIP3   OH266406   2.345   1.050  15.372 -0.1384 -0.4184 -0.0225
14972TIP3    H166407   2.303   1.110  15.311 -0.8237 -0.2808  0.5686
14972TIP3    H266408   2.277   1.029  15.435  0.2144 -1.4863  0.0268
14973TIP3   OH266409   5.811   0.882   4.013  0.0198  0.0023 -0.7881
14973TIP3    H166410   5.741   0.823   3.986  1.3527 -2.6704  1.1650
14973TIP3    H266411   5.777   0.928   4.089  0.6669 -2.1801  0.9122
14974TIP3   OH266412   0.401   0.287  14.724  0.1505 -0.0511  0.9057
14974TIP3    H166413   0.338   0.243  14.781 -0.2519 -0.6472  0.0084
14974TIP3    H266414   0.423   0.223  14.657 -0.7199  1.2042 -0.6471
14975TIP3   OH266415   1.603   3.075   0.817  0.1913 -0.3451  0.3177
14975TIP3    H166416   1.536   3.142   0.802  1.1278  0.3121 -1.1557
14975TIP3    H266417   1.573   2.999   0.767  0.8879  0.2078 -0.9846
14976TIP3   OH266418   0.845   0.433   3.964 -0.3554  0.3638  0.3238
14976TIP3    H166419   0.877   0.475   3.884  3.6656 -0.4708  1.2738
14976TIP3    H266420   0.861   0.497   4.033 -0.6315 -0.1816  0.9056
14977TIP3   OH266421   0.952   2.009   1.991 -0.1354  0.4499  0.0398
14977TIP3    H166422   1.009   2.031   1.917 -0.7121 -0.3112 -0.6501
14977TIP3    H266423   0.977   1.919   2.014 -1.0629  0.1087 -0.2729
14978TIP3   OH266424   1.573   1.105   3.626 -0.4153 -0.4188  0.5665
14978TIP3    H166425   1.557   1.037   3.691 -0.5303 -2.0281 -1.0534
14978TIP3    H266426   1.591   1.057   3.545  0.1009  1.4879 -0.5243
14979TIP3   OH266427   3.930   5.151  16.274  0.0760  0.2720 -0.0606
14979TIP3    H166428   3.951   5.063  16.306 -0.4679  0.0018 -0.4309
14979TIP3    H266429   4.007   5.204  16.297  0.7852 -0.4923 -0.6253
14980TIP3   OH266430   0.236   6.314  11.353  0.7760  0.0525 -0.3556
14980TIP3    H166431   0.232   6.243  11.418  0.3125  0.7885  0.4475
14980TIP3    H266432   0.281   6.385  11.399  1.9249  0.0328 -1.4044
14981TIP3   OH266433   0.017   1.603  14.411  0.0359  0.0755  0.5707
14981TIP3    H166434  -0.030   1.683  14.387 -1.1697 -0.8822 -0.3671
14981TIP3    H266435   0.015   1.602  14.507  0.2589  1.2744  0.6002
14982TIP3   OH266436   0.896   3.285   4.565  0.2348 -0.1852  0.3085
14982TIP3    H166437   0.849   3.201   4.559  0.2594 -0.3694  2.1659
14982TIP3    H266438   0.975   3.264   4.614  0.5803  0.8045  0.1839
14983TIP3   OH266439   0.339   6.004   0.992 -0.2166  0.0275 -0.1817
14983TIP3    H166440   0.411   6.013   0.931 -0.7189  0.7502 -0.6774
14983TIP3    H266441   0.379   5.966   1.071  0.9483  1.5614  0.0071
14984TIP3   OH266442   6.612   0.300   3.517  0.0750  0.2166 -0.3684
14984TIP3    H166443   6.592   0.378   3.465  0.9680  0.5643 -0.2027
14984TIP3    H266444   6.567   0.314   3.600  1.0528  1.0428  0.0402
14985TIP3   OH266445   1.326   2.444  11.949  0.4788 -0.3254  0.5747
14985TIP3    H166446   1.381   2.468  11.875  0.9834  0.1859  1.1044
14985TIP3    H266447   1.246   2.408  11.909  1.5122 -1.8708 -0.2066
14986TIP3   OH266448   2.235   2.567   5.369  0.1676  0.1983 -0.0364
14986TIP3    H166449   2.140   2.558   5.375  0.0622  1.7649  1.5698
14986TIP3    H266450   2.262   2.588   5.458  2.0239 -0.1419 -0.4923
14987TIP3   OH266451   4.143   3.546  16.986 -0.0333 -0.4640  0.6562
14987TIP3    H166452   4.131   3.620  16.926  2.7486 -0.4638 -0.0686
14987TIP3    H266453   4.164   3.586  17.070 -0.6967 -0.4548  0.8221
14988TIP3   OH266454   0.645   3.600   3.463  0.3820 -0.0545  0.5681
14988TIP3    H166455   0.674   3.513   3.488 -3.4982 -1.1070  2.2161
14988TIP3    H266456   0.621   3.642   3.545  0.3337  1.8489 -0.3690
14989TIP3   OH266457   0.339   0.587   5.072 -0.0650 -0.7497  0.1641
14989TIP3    H166458   0.258   0.540   5.054 -2.2477  1.3184  3.5557
14989TIP3    H266459   0.321   0.677   5.044  1.1928 -0.3108  0.6989
14990TIP3   OH266460   2.028   5.050   4.488 -0.1218 -0.2730 -0.2196
14990TIP3    H166461   1.938   5.078   4.469 -0.7023  0.0603  2.5833
14990TIP3    H266462   2.080   5.130   4.482  0.2318 -0.6303 -2.8001
14991TIP3   OH266463   3.693   4.857   2.947  0.1670 -0.0276 -0.0601
14991TIP3    H166464   3.676   4.916   2.873 -1.5686 -0.1012  0.2388
14991TIP3    H266465   3.683   4.912   3.024 -0.4506 -0.4719  0.1845
14992TIP3   OH266466   1.925   1.475   2.143 -0.6011 -0.1640 -0.5992
14992TIP3    H166467   1.878   1.410   2.092  1.1665 -2.8989  1.0171
14992TIP3    H266468   1.935   1.436   2.230 -0.8501  2.9848  1.0172
14993TIP3   OH266469   1.638   2.172   4.546 -0.9159 -0.5393  0.1542
14993TIP3    H166470   1.555   2.125   4.537  0.0959 -2.3588 -0.1358
14993TIP3    H266471   1.705   2.103   4.546  0.5063  0.7209  2.0208
14994TIP3   OH266472   0.074   0.504  12.435 -0.0996 -0.5799  0.5533
14994TIP3    H166473   0.122   0.471  12.512  1.6362 -1.0074 -0.6565
14994TIP3    H266474   0.097   0.443  12.365  0.3865  1.2085 -0.9188
14995TIP3   OH266475   1.351   6.035  11.326 -0.1463  0.1345 -0.1803
14995TIP3    H166476   1.256   6.046  11.328 -0.1502  0.2009 -0.7977
14995TIP3    H266477   1.382   6.104  11.267  0.5825  2.2083  2.4183
14996TIP3   OH266478   4.660   3.675   4.155 -1.0556  0.2156 -0.3118
14996TIP3    H166479   4.586   3.727   4.187 -0.6499  0.5378  0.1221
14996TIP3    H266480   4.737   3.719   4.192 -0.6409 -0.0388 -0.8677
14997TIP3   OH266481   3.771   2.360   1.047 -0.4753  0.1951 -0.1002
14997TIP3    H166482   3.754   2.408   1.128  0.6211  0.6509 -0.1292
14997TIP3    H266483   3.707   2.288   1.048 -0.2781  0.0085  1.3211
14998TIP3   OH266484   0.463   0.109   6.344  0.0383  0.0838 -0.3014
14998TIP3    H166485   0.434   0.040   6.404 -0.9884  0.2773 -0.5562
14998TIP3    H266486   0.559   0.106   6.349  0.0466 -1.6859 -0.6881
14999TIP3   OH266487   1.515   3.895  12.673 -0.6732 -0.8510 -0.2134
14999TIP3    H166488   1.440   3.884  12.732 -1.7589  0.2160 -1.3490
14999TIP3    H266489   1.510   3.819  12.615 -1.0636 -0.6152 -0.4889
15000TIP3   OH266490   1.596   0.285   2.611  0.4094 -0.2431 -0.3014
15000TIP3    H166491   1.513   0.332   2.601 -0.0648 -1.2185 -1.2279
15000TIP3    H266492   1.663   0.353   2.602 -0.2749  0.6933  1.2891
15001TIP3   OH266493   0.645   3.862   0.471  0.4149 -0.2860 -0.1773
15001TIP3    H166494   0.612   3.780   0.435  1.3465 -0.7806  0.0627
15001TIP3    H266495   0.712   3.836   0.534  2.4305  0.6654 -1.7945
15002TIP3   OH266496   0.333   0.927   1.171 -0.3520  0.0201 -0.3539
15002TIP3    H166497   0.280   0.959   1.098  1.1651  0.9100 -1.1225
15002TIP3    H266498   0.318   0.990   1.242 -0.7488 -0.0576 -0.3672
15003TIP3   OH266499   4.338   0.059   2.062 -0.0228  0.6626 -0.3655
15003TIP3    H166500   4.326   0.131   2.001  0.5988  0.9536 -0.1561
15003TIP3    H266501   4.356  -0.017   2.007 -1.2432  0.5341 -0.6116
15004TIP3   OH266502   4.052   6.031   2.248 -0.5689  0.6145 -0.1374
15004TIP3    H166503   4.049   6.004   2.156 -1.4401  0.7462 -0.1628
15004TIP3    H266504   3.969   6.077   2.262 -0.8446 -0.1590  0.9413
15005TIP3   OH266505   3.953   2.058   0.297  0.6465 -0.1789 -0.4343
15005TIP3    H166506   3.922   2.039   0.385 -0.7413  0.3668 -0.7707
15005TIP3    H266507   3.894   2.010   0.239  1.3372 -0.2749 -1.0782
15006TIP3   OH266508   3.684   5.038  12.046 -0.1838  0.3103 -0.1589
15006TIP3    H166509   3.724   5.011  12.129 -1.1905 -0.1698  0.1960
15006TIP3    H266510   3.728   5.120  12.023 -0.6573  1.0488  1.4416
15007TIP3   OH266511   2.709   1.089  10.036  0.7823  0.3974  0.0198
15007TIP3    H166512   2.624   1.105  10.077  1.1218  1.0769  0.4872
15007TIP3    H266513   2.764   1.161  10.068  1.9582 -0.8745  0.9684
15008TIP3   OH266514   1.777   5.192  12.135 -0.1710 -0.6334 -0.1527
15008TIP3    H166515   1.813   5.106  12.156 -0.7306 -1.2337 -1.5021
15008TIP3    H266516   1.756   5.187  12.041 -0.6236  0.8262 -0.1608
15009TIP3   OH266517   6.479   6.490   6.191 -0.1638  0.0865 -0.4528
15009TIP3    H166518   6.420   6.485   6.266 -0.4423 -0.9280 -0.7192
15009TIP3    H266519   6.562   6.455   6.225  0.1752  1.1145 -0.1944
15010TIP3   OH266520   5.708   2.080   5.208  0.1850 -0.1054  0.2073
15010TIP3    H166521   5.619   2.063   5.239  0.8663 -2.0848  1.2181
15010TIP3    H266522   5.754   2.116   5.284  0.4431  0.2271 -0.1011
15011TIP3   OH266523   5.068   0.598   2.710  0.3921 -0.4053  0.4896
15011TIP3    H166524   5.059   0.513   2.754 -0.5810  0.1024  1.2950
15011TIP3    H266525   5.163   0.609   2.699  0.5133 -1.7875 -0.0178
15012TIP3   OH266526   3.179   2.395  15.838 -0.1600  0.4319  0.7980
15012TIP3    H166527   3.151   2.403  15.746  0.7631  1.7006  0.6023
15012TIP3    H266528   3.233   2.317  15.839  0.2605  0.7000  0.1296
15013TIP3   OH266529   6.676   6.209   4.156 -0.5040 -0.4239  0.2679
15013TIP3    H166530   6.692   6.181   4.247  0.1286  1.8935  0.9485
15013TIP3    H266531   6.759   6.192   4.111 -0.5984 -0.9583  0.2914
15014TIP3   OH266532   1.598   4.788  11.111 -0.3298  0.6372  0.3011
15014TIP3    H166533   1.536   4.857  11.088  0.5413  1.2056 -0.4401
15014TIP3    H266534   1.646   4.822  11.186 -0.1477  0.6793  0.1651
15015TIP3   OH266535   2.746   6.269  14.666 -0.3131  0.0031  0.5595
15015TIP3    H166536   2.722   6.290  14.757 -1.0591  0.4732  0.2662
15015TIP3    H266537   2.840   6.283  14.662 -0.0917 -1.0707  1.5390
15016TIP3   OH266538   0.204   2.697   2.285  0.6966  0.4704 -0.0701
15016TIP3    H166539   0.237   2.625   2.230 -3.3781  0.1485 -2.4878
15016TIP3    H266540   0.258   2.772   2.260  1.6160 -0.6036 -1.4973
15017TIP3   OH266541   6.072   1.799  13.246 -0.3255 -0.1237 -0.4700
15017TIP3    H166542   6.012   1.724  13.245  0.2835 -0.6269 -0.0238
15017TIP3    H266543   6.157   1.761  13.226  0.0008  0.4521 -0.1897
15018TIP3   OH266544   0.761   5.679  10.755 -0.1917  0.4122  0.3821
15018TIP3    H166545   0.734   5.643  10.671 -0.7686  1.0770  0.2713
15018TIP3    H266546   0.813   5.610  10.796 -0.9883 -0.4055  0.0351
15019TIP3   OH266547   1.346   5.226  12.312 -0.2341 -0.1984 -0.5327
15019TIP3    H166548   1.299   5.254  12.391  0.3715  0.0427 -0.2552
15019TIP3    H266549   1.324   5.134  12.303  1.0943 -0.7139  0.9516
15020TIP3   OH266550   0.737   5.997   4.448  0.4767 -0.0650 -0.2577
15020TIP3    H166551   0.805   6.058   4.417  1.2441 -0.6919  0.1669
15020TIP3    H266552   0.768   5.911   4.421  0.9561 -0.5916  1.8329
15021TIP3   OH266553   5.399   0.388   2.463  0.3555 -0.6892  0.0998
15021TIP3    H166554   5.394   0.297   2.491 -0.0049  0.0811  2.8620
15021TIP3    H266555   5.491   0.413   2.477 -0.0098 -0.0526  1.6750
15022TIP3   OH266556   5.229   1.820  16.705  0.1210 -0.6091 -0.1476
15022TIP3    H166557   5.169   1.746  16.692  0.0516 -0.4020 -1.0534
15022TIP3    H266558   5.298   1.807  16.640  0.9510 -0.7194  0.7396
15023TIP3   OH266559   4.514   6.616   1.474  0.5904  0.0575  0.1412
15023TIP3    H166560   4.533   6.550   1.541  2.7034  0.0034 -0.4562
15023TIP3    H266561   4.486   6.693   1.524  2.3596  0.1006  1.1450
15024TIP3   OH266562   1.740   1.395   4.144 -1.1587  0.2197 -0.8830
15024TIP3    H166563   1.791   1.339   4.085 -0.2876  0.9826 -0.8711
15024TIP3    H266564   1.759   1.362   4.232  0.1690  1.1547 -0.7983
15025TIP3   OH266565   1.876   6.803   3.614  0.2540  0.2758  0.0444
15025TIP3    H166566   1.869   6.779   3.521  2.8179  1.8801 -0.6583
15025TIP3    H266567   1.941   6.743   3.649  0.2353  0.5064  0.4788
15026TIP3   OH266568   2.850   5.976  12.324 -0.2657 -0.5592 -0.3996
15026TIP3    H166569   2.859   6.049  12.385  0.9389  1.5963 -2.9331
15026TIP3    H266570   2.758   5.979  12.297 -0.2850 -0.0823 -0.2999
15027TIP3   OH266571   3.286   5.289  14.859  0.3410  0.5303  0.1172
15027TIP3    H166572   3.359   5.324  14.910  0.0725 -1.6865  2.2129
15027TIP3    H266573   3.210   5.303  14.915 -0.4818  0.6508 -1.0013
15028TIP3   OH266574   5.649   6.814  16.399  0.0362  0.0946 -0.0324
15028TIP3    H166575   5.700   6.824  16.480 -1.5422  1.0530  0.8984
15028TIP3    H266576   5.659   6.898  16.355 -1.7067  0.7819  0.7911
15029TIP3   OH266577   2.575   3.067  11.489  0.4450  0.2022  0.6176
15029TIP3    H166578   2.649   3.029  11.536 -0.1303  0.8980  2.1706
15029TIP3    H266579   2.606   3.154  11.463  0.4877  0.1284  0.4191
15030TIP3   OH266580   0.392   3.880   2.553  0.1844  0.5612 -0.4644
15030TIP3    H166581   0.368   3.874   2.646  0.4819  0.1000 -0.4145
15030TIP3    H266582   0.487   3.863   2.552 -0.1538 -1.4894 -1.0603
15031TIP3   OH266583   6.420   6.385  16.256 -0.1227 -0.0538 -0.2836
15031TIP3    H166584   6.499   6.433  16.278 -0.2451 -0.6008  1.5503
15031TIP3    H266585   6.360   6.451  16.222  0.8017  0.5134 -0.8615
15032TIP3   OH266586   0.617   1.857  11.955  0.7224  0.0734  0.5128
15032TIP3    H166587   0.597   1.824  11.867  2.7660  0.9573 -0.3349
15032TIP3    H266588   0.542   1.828  12.008 -0.9170  0.1033 -1.6259
15033TIP3   OH266589   3.236   2.612   0.948 -0.6302 -0.1749 -0.0709
15033TIP3    H166590   3.278   2.691   0.982 -0.1272 -1.3056  2.0988
15033TIP3    H266591   3.305   2.546   0.949 -1.2968 -0.9006 -0.8891
15034TIP3   OH266592   3.451   6.576   0.593  0.4749 -0.0863  0.5882
15034TIP3    H166593   3.543   6.558   0.612  0.8425  1.0858 -0.0119
15034TIP3    H266594   3.439   6.549   0.502 -0.1710 -1.6057  1.0883
15035TIP3   OH266595   6.205   4.595   0.697 -0.1524  0.3960 -0.2312
15035TIP3    H166596   6.279   4.576   0.754  1.0853  0.5618 -1.7361
15035TIP3    H266597   6.225   4.551   0.615 -2.6631 -1.2038 -0.1016
15036TIP3   OH266598   5.373   2.023  11.384 -0.6308  0.6422 -0.0374
15036TIP3    H166599   5.428   2.045  11.309 -1.3129  0.1570 -0.6859
15036TIP3    H266600   5.296   1.981  11.347 -0.6294 -0.3225  0.9845
15037TIP3   OH266601   2.192   5.043   5.852 -0.0543 -0.7774  0.5474
15037TIP3    H166602   2.281   5.071   5.877 -0.4119  1.0424 -0.0628
15037TIP3    H266603   2.139   5.062   5.930 -0.1136 -0.7892  0.5098
15038TIP3   OH266604   4.829   6.559   3.329 -0.5779  0.4618  0.1339
15038TIP3    H166605   4.778   6.478   3.324 -0.0462  0.1649 -0.9560
15038TIP3    H266606   4.920   6.529   3.336 -0.5535  0.9766  3.0398
15039TIP3   OH266607   4.417   1.163  13.376  0.5733 -0.5155  0.1880
15039TIP3    H166608   4.384   1.106  13.307  0.2842  0.5003 -0.5402
15039TIP3    H266609   4.508   1.135  13.390 -0.4199 -3.1710  2.0391
15040TIP3   OH266610   4.945   3.728   3.481  0.5921 -0.1416  0.6032
15040TIP3    H166611   4.956   3.637   3.455  0.1585  0.4211 -1.7811
15040TIP3    H266612   4.996   3.778   3.418 -0.0593  1.3342  1.1937
15041TIP3   OH266613   2.873   0.074  14.913  0.1187  0.3418  0.3209
15041TIP3    H166614   2.963   0.078  14.947  1.5039 -1.4633 -2.6633
15041TIP3    H266615   2.842  -0.012  14.941 -0.5458  0.7872  0.9754
15042TIP3   OH266616   3.494   2.445  11.288  0.0509  0.2043 -0.3530
15042TIP3    H166617   3.522   2.536  11.292  0.2749  0.1794 -1.1914
15042TIP3    H266618   3.453   2.429  11.373  2.2592  0.3565  0.8352
15043TIP3   OH266619   0.254   1.063  12.954 -0.5337 -0.1085  0.2122
15043TIP3    H166620   0.281   1.155  12.949  1.6896 -0.6805  0.7460
15043TIP3    H266621   0.302   1.028  13.029  1.5245 -2.5823 -2.0657
15044TIP3   OH266622   2.117   3.330  11.078 -0.0157  0.8648  0.0548
15044TIP3    H166623   2.198   3.372  11.108  0.0856 -0.6938  2.2368
15044TIP3    H266624   2.146   3.246  11.041 -0.5775  0.5237  0.3812
15045TIP3   OH266625   5.978   5.417  12.375 -0.2410  0.0306  0.5428
15045TIP3    H166626   5.897   5.372  12.401  0.0045 -0.3049  0.7222
15045TIP3    H266627   5.950   5.476  12.304 -0.9597  1.1059  1.6732
15046TIP3   OH266628   5.586   0.503  13.796  0.1770 -0.0561  0.1543
15046TIP3    H166629   5.670   0.477  13.833 -1.0504  0.2520  3.5359
15046TIP3    H266630   5.543   0.552  13.866 -3.0942 -0.7766 -1.1600
15047TIP3   OH266631   3.562   1.050   0.982  0.5351 -0.5135 -0.0664
15047TIP3    H166632   3.614   1.071   1.060 -2.7733  1.3880  1.9151
15047TIP3    H266633   3.600   1.103   0.912  1.2482  0.8297  1.2766
15048TIP3   OH266634   6.048   6.463   5.933 -0.2084  0.8494 -0.2922
15048TIP3    H166635   6.033   6.557   5.926  0.8889  0.9133 -2.5152
15048TIP3    H266636   6.141   6.455   5.953  0.4962  0.2686 -3.3314
15049TIP3   OH266637   0.452   5.589  11.610 -0.3105 -0.1305  0.6040
15049TIP3    H166638   0.427   5.681  11.615 -0.2445 -0.0479 -0.4695
15049TIP3    H266639   0.547   5.590  11.615 -0.3263 -0.1709  0.9394
15050TIP3   OH266640   0.299   4.384   5.619  0.3711 -0.0324 -0.2211
15050TIP3    H166641   0.337   4.468   5.592  4.8044 -1.1902  1.4896
15050TIP3    H266642   0.322   4.377   5.712 -0.6509 -2.7681 -0.1037
15051TIP3   OH266643   2.061   6.239  15.500 -0.2533  0.0720 -0.0703
15051TIP3    H166644   2.093   6.200  15.419 -1.2627  0.3683 -0.6331
15051TIP3    H266645   2.111   6.321  15.509  0.1997 -0.1955 -0.1326
15052TIP3   OH266646   1.193   1.148   5.924  0.3899  0.0754  0.0960
15052TIP3    H166647   1.184   1.114   6.013  0.5031  0.9197  0.4373
15052TIP3    H266648   1.123   1.212   5.915  1.4334  1.2761  0.2005
15053TIP3   OH266649   0.801   6.261  12.417  0.4625 -0.0707 -0.6112
15053TIP3    H166650   0.715   6.253  12.376  0.4107 -1.6865 -0.2560
15053TIP3    H266651   0.863   6.255  12.345  0.3964 -3.5080 -0.5510
15054TIP3   OH266652   2.241   1.872   4.622 -0.5091  0.2926 -0.2874
15054TIP3    H166653   2.226   1.864   4.528 -0.9500  1.3692 -0.3202
15054TIP3    H266654   2.162   1.834   4.662 -0.4295  0.0538 -0.3570
15055TIP3   OH266655   1.876   3.030  16.187  0.6051 -0.2914  0.1259
15055TIP3    H166656   1.905   3.005  16.099  1.5045  0.4077  0.2051
15055TIP3    H266657   1.950   3.007  16.244  0.0903 -0.5965  0.6782
15056TIP3   OH266658   2.240   2.829  14.332  0.0556  0.1682  0.2397
15056TIP3    H166659   2.310   2.764  14.340  0.0873  0.2158  0.3592
15056TIP3    H266660   2.268   2.885  14.259 -0.3739 -0.4431 -0.4030
15057TIP3   OH266661   2.996   5.116  16.730  0.0555 -0.8619  0.4090
15057TIP3    H166662   3.069   5.141  16.673  0.6615 -1.1242  1.0595
15057TIP3    H266663   3.037   5.088  16.811 -0.8516  2.0446  2.0232
15058TIP3   OH266664   5.673   6.512   3.983  0.1580 -0.4930  0.0715
15058TIP3    H166665   5.749   6.536   3.930 -0.2411 -1.2723 -0.8925
15058TIP3    H266666   5.677   6.571   4.058  0.3635  1.1522 -1.1628
15059TIP3   OH266667   2.880   0.537   2.973  0.5011 -0.2632 -0.5811
15059TIP3    H166668   2.868   0.486   2.893  1.1636  1.1787 -1.6472
15059TIP3    H266669   2.883   0.628   2.943  1.8042  0.2457  0.9714
15060TIP3   OH266670   4.599   2.873   0.975  0.1962  0.1851 -0.1452
15060TIP3    H166671   4.611   2.780   0.955  0.9764  0.6357 -1.9394
15060TIP3    H266672   4.686   2.911   0.964  0.4317  0.7924  2.8868
15061TIP3   OH266673   0.352   4.109   2.887  0.4999  0.0381  0.3325
15061TIP3    H166674   0.339   4.017   2.864  0.4479 -0.2237  1.3572
15061TIP3    H266675   0.285   4.127   2.954 -0.5368  1.2642 -0.9696
15062TIP3   OH266676   2.314   5.791   3.208  0.8474 -0.2136  0.7415
15062TIP3    H166677   2.352   5.830   3.129  1.3943 -1.9172  0.1092
15062TIP3    H266678   2.378   5.724   3.234 -0.2660 -1.0293  1.4599
15063TIP3   OH266679   6.301   4.133  12.841  0.2598 -0.2813  0.4855
15063TIP3    H166680   6.248   4.059  12.811  0.3965  0.3094 -1.2999
15063TIP3    H266681   6.289   4.133  12.936 -1.3370 -1.3645  0.3342
15064TIP3   OH266682   1.747   6.456  16.664 -0.7986  0.2676 -0.0684
15064TIP3    H166683   1.671   6.488  16.712 -1.0631  0.6583 -0.7180
15064TIP3    H266684   1.720   6.462  16.572  0.4268  1.5555 -0.3793
15065TIP3   OH266685   1.550   2.630  17.010 -0.0051 -0.1336 -0.0974
15065TIP3    H166686   1.492   2.603  16.939 -1.6621  1.3355  0.6251
15065TIP3    H266687   1.624   2.671  16.966 -0.7294  0.2435 -0.9871
15066TIP3   OH266688   3.581   4.280   4.170 -0.0972  0.7086 -0.3453
15066TIP3    H166689   3.498   4.260   4.128 -0.9855  1.2902  1.0555
15066TIP3    H266690   3.647   4.263   4.103 -1.3524  0.4198 -1.5441
15067TIP3   OH266691   3.937   3.286   1.338 -0.4187  0.3284 -0.3390
15067TIP3    H166692   3.979   3.325   1.261 -0.7216 -0.1580 -0.7602
15067TIP3    H266693   3.987   3.319   1.413  1.6024 -1.3206 -0.8826
15068TIP3   OH266694   6.650   0.423   3.783 -0.2969 -0.2471  0.1810
15068TIP3    H166695   6.652   0.505   3.733  1.1235  0.0469  0.6841
15068TIP3    H266696   6.605   0.446   3.864 -0.2443 -0.0698  0.1600
15069TIP3   OH266697   1.300   3.729   0.701  0.1070  0.3512  0.2650
15069TIP3    H166698   1.287   3.659   0.766 -0.5047 -1.3219 -1.5640
15069TIP3    H266699   1.308   3.683   0.618  2.2052  2.3348 -0.7510
15070TIP3   OH266700   3.775   6.274  14.205 -0.2182  0.0034 -0.5084
15070TIP3    H166701   3.868   6.257  14.197  0.0700  1.2834 -0.0145
15070TIP3    H266702   3.741   6.200  14.256  0.7790  0.2417  0.5279
15071TIP3   OH266703   6.596   1.464  13.153  0.3982  0.1247 -0.6536
15071TIP3    H166704   6.650   1.389  13.181 -3.6361 -1.8383  3.0128
15071TIP3    H266705   6.570   1.443  13.064  0.3308 -2.3556 -0.1262
15072TIP3   OH266706   6.154   4.871   2.605 -0.0381  0.1374  0.4521
15072TIP3    H166707   6.067   4.846   2.576  0.8882  0.0813 -2.6542
15072TIP3    H266708   6.207   4.792   2.595  0.6498  0.5113  0.9942
15073TIP3   OH266709   3.397   5.876   4.531 -0.0029  0.1269 -0.1834
15073TIP3    H166710   3.467   5.940   4.517 -1.2603  1.4149 -0.8398
15073TIP3    H266711   3.336   5.921   4.589 -0.2767 -1.0037  0.4319
15074TIP3   OH266712   3.853   1.720  14.317 -0.4064 -0.0007  0.3884
15074TIP3    H166713   3.760   1.702  14.334 -0.4659  1.3119  1.5945
15074TIP3    H266714   3.855   1.812  14.289  0.5568  0.0661  0.6366
15075TIP3   OH266715   4.996   0.474  11.088  0.2675  0.2576 -0.1673
15075TIP3    H166716   5.024   0.562  11.114 -1.0679  0.2889  1.3124
15075TIP3    H266717   4.999   0.475  10.992 -1.2619  2.4486 -0.2493
15076TIP3   OH266718   0.409   6.032  13.260 -0.0063 -0.2634  0.2404
15076TIP3    H166719   0.465   6.108  13.244 -1.6820  0.7503 -1.1367
15076TIP3    H266720   0.453   5.960  13.214  0.6078  0.2960 -0.0608
15077TIP3   OH266721   1.516   6.262   5.852  0.3560 -0.7340 -0.1977
15077TIP3    H166722   1.421   6.253   5.852  0.2949 -0.1705  0.3827
15077TIP3    H266723   1.543   6.233   5.765 -0.0847 -3.5099  0.4892
15078TIP3   OH266724   4.884   1.320  12.025  0.3609  0.1206 -0.1323
15078TIP3    H166725   4.972   1.298  12.053  0.1307  0.6144  1.0214
15078TIP3    H266726   4.829   1.305  12.101 -0.7340 -1.1084 -1.1072
15079TIP3   OH266727   4.247   3.948   1.831 -0.2926  0.0344  0.0779
15079TIP3    H166728   4.330   3.919   1.868  0.9891  1.3282 -1.6393
15079TIP3    H266729   4.219   4.020   1.887 -0.4139 -0.5743  0.8153
15080TIP3   OH266730   6.719   2.658  12.707 -0.1000 -0.2264  0.0660
15080TIP3    H166731   6.804   2.638  12.667  0.1685 -0.1703  0.5925
15080TIP3    H266732   6.727   2.749  12.736 -0.0762 -0.4418  0.7598
15081TIP3   OH266733   6.511   2.704   5.949  0.4425 -0.5949 -0.4570
15081TIP3    H166734   6.600   2.704   5.983  1.1622 -0.9082 -2.2289
15081TIP3    H266735   6.465   2.637   5.999  1.3960 -0.9224 -0.0149
15082TIP3   OH266736   1.258   1.094  15.863 -0.6972  0.2660  0.2078
15082TIP3    H166737   1.191   1.108  15.796 -0.5983  0.2514  0.1058
15082TIP3    H266738   1.305   1.176  15.868 -1.4893  0.6827  1.1409
15083TIP3   OH266739   4.438   3.268  11.352 -0.4509  0.0399 -0.5965
15083TIP3    H166740   4.493   3.196  11.321  0.3771  0.2149  0.3947
15083TIP3    H266741   4.349   3.234  11.348 -0.2055 -0.5269 -1.5007
15084TIP3   OH266742   4.596   5.053   2.097 -0.9331 -0.4988 -0.5518
15084TIP3    H166743   4.582   5.062   2.003 -2.1425 -1.8050 -0.5189
15084TIP3    H266744   4.510   5.033   2.133 -0.4419 -0.2921  0.8145
15085TIP3   OH266745   0.083   5.424   2.583  0.1219  0.4019  0.5161
15085TIP3    H166746  -0.000   5.378   2.592 -0.0839 -0.0451 -2.4888
15085TIP3    H266747   0.060   5.517   2.585 -0.1985  0.3122  1.3313
15086TIP3   OH266748   4.449   0.605  13.727  0.5691  0.5941  0.2037
15086TIP3    H166749   4.423   0.527  13.776  1.0070  0.7870  0.7549
15086TIP3    H266750   4.422   0.678  13.783 -2.5531  0.9891 -1.5923
15087TIP3   OH266751   1.123   1.128  15.147  0.1094 -0.5338  0.0201
15087TIP3    H166752   1.095   1.047  15.191  1.1597 -1.0287 -0.1857
15087TIP3    H266753   1.096   1.198  15.206  2.7617 -1.2121  2.2480
15088TIP3   OH266754   5.095   0.539  16.189  0.1602  0.4490  0.4510
15088TIP3    H166755   5.182   0.521  16.226  0.0543  1.6981  1.3686
15088TIP3    H266756   5.102   0.627  16.152  0.0065 -0.4449 -1.8299
15089TIP3   OH266757   4.676   2.073  16.796 -0.6965  0.4218  0.4250
15089TIP3    H166758   4.715   2.158  16.779  0.7286 -0.7440 -2.9364
15089TIP3    H266759   4.584   2.084  16.774 -0.4647  1.0270 -0.2584
15090TIP3   OH266760   0.673   4.258  12.406 -0.0541 -0.3859 -0.0293
15090TIP3    H166761   0.703   4.222  12.489 -0.7105  2.5197  1.5892
15090TIP3    H266762   0.710   4.347  12.403  0.8425 -0.7357 -3.3859
15091TIP3   OH266763   0.793   5.069  13.334  0.4791  0.0437 -0.1809
15091TIP3    H166764   0.734   5.001  13.301 -0.7699  1.2933 -0.6244
15091TIP3    H266765   0.840   5.099  13.256  1.7830 -0.9653  0.1729
15092TIP3   OH266766   4.670   2.012  14.735  0.1339  0.1257 -0.3819
15092TIP3    H166767   4.656   2.073  14.807  0.8488 -0.7881  0.5420
15092TIP3    H266768   4.689   2.069  14.660 -0.4065  1.0717  0.1721
15093TIP3   OH266769   6.748   1.538  16.332  0.0066 -0.1986  0.0433
15093TIP3    H166770   6.737   1.630  16.308 -3.5266 -0.3264  0.6835
15093TIP3    H266771   6.762   1.540  16.427  0.5751 -0.2998 -0.0374
15094TIP3   OH266772   4.230   3.856  17.058 -1.0645  0.4581  0.5710
15094TIP3    H166773   4.290   3.810  17.000 -0.4473  1.5529  0.3298
15094TIP3    H266774   4.220   3.798  17.134 -1.8889 -1.0009 -0.5907
15095TIP3   OH266775   2.379   1.778  10.335  0.4371 -0.0129 -0.0530
15095TIP3    H166776   2.361   1.704  10.278  0.0896  0.7958 -1.0249
15095TIP3    H266777   2.293   1.809  10.362  0.5446  0.4616 -0.2327
15096TIP3   OH266778   2.608   2.059   4.574  0.1397  0.1125  0.4891
15096TIP3    H166779   2.577   2.013   4.652 -2.0876 -0.4832 -0.6751
15096TIP3    H266780   2.703   2.045   4.575  0.5106  1.6947  4.0399
15097TIP3   OH266781   0.609   0.382   0.615 -0.2588 -0.0465  0.4934
15097TIP3    H166782   0.615   0.326   0.692 -0.3575  0.5349  0.9282
15097TIP3    H266783   0.573   0.325   0.547  0.0778 -0.6352  0.7992
15098TIP3   OH266784   0.708   0.620  13.671 -0.1574  0.4619  0.2081
15098TIP3    H166785   0.711   0.578  13.757 -0.6290  1.0148  0.4960
15098TIP3    H266786   0.797   0.608  13.636 -0.1174 -0.2541  0.5277
15099TIP3   OH266787   0.943   5.536  15.583 -0.0358  0.3833 -0.0725
15099TIP3    H166788   0.857   5.557  15.547  0.4603 -0.6485 -2.0065
15099TIP3    H266789   0.967   5.613  15.634 -1.5333  1.2280 -0.5739
15100TIP3   OH266790   0.042   0.759  17.155 -0.4210 -0.0529 -0.5183
15100TIP3    H166791  -0.042   0.719  17.176 -0.7145  0.6671 -0.2792
15100TIP3    H266792   0.100   0.685  17.137 -0.7781 -0.6034  0.5258
15101TIP3   OH266793   4.054   0.241  15.208  0.4140  0.6457  0.0499
15101TIP3    H166794   4.116   0.308  15.179 -1.4303  2.2613 -0.3758
15101TIP3    H266795   3.996   0.287  15.269 -0.0243 -0.9703  0.9050
15102TIP3   OH266796   4.454   4.018   3.297 -0.5185  0.0455 -0.3539
15102TIP3    H166797   4.417   4.050   3.379  0.9179  0.3030  0.2115
15102TIP3    H266798   4.492   3.933   3.319  0.8700  0.6172 -0.4629
15103TIP3   OH266799   4.160   6.589  16.017  0.6123  0.2058  0.6539
15103TIP3    H166800   4.199   6.514  15.971  0.2437 -0.0273  0.7137
15103TIP3    H266801   4.234   6.646  16.038  1.1563 -0.9993  2.2171
15104TIP3   OH266802   6.004   3.881   1.280 -0.4600 -0.3381  0.1091
15104TIP3    H166803   6.044   3.854   1.198 -0.8354  1.0855 -0.5767
15104TIP3    H266804   6.017   3.807   1.339  3.1378 -0.0021 -0.0745
15105TIP3   OH266805   4.319   1.065  16.999 -0.4669  0.6797  0.1925
15105TIP3    H166806   4.355   0.985  16.962  1.1748  2.3519 -2.2101
15105TIP3    H266807   4.235   1.077  16.955  0.2879  1.3093 -1.1683
15106TIP3   OH266808   3.529   4.584  11.091 -0.3246  0.4266 -0.6029
15106TIP3    H166809   3.475   4.625  11.158 -1.5899 -0.0684 -1.2768
15106TIP3    H266810   3.590   4.528  11.139 -2.1578 -1.0605  0.1216
15107TIP3   OH266811   3.340   3.713   5.382 -0.2555 -0.5031  0.0840
15107TIP3    H166812   3.432   3.695   5.363 -0.0773 -1.6530  1.8349
15107TIP3    H266813   3.323   3.797   5.340  0.9803 -1.2657 -2.0968
15108TIP3   OH266814   6.020   1.725   2.817 -0.1263  1.0907  0.3009
15108TIP3    H166815   5.986   1.662   2.880  0.3172  0.3908 -0.1503
15108TIP3    H266816   5.942   1.772   2.787 -0.3801  1.1984  1.1125
15109TIP3   OH266817   4.230   6.602   5.710  0.3918 -0.1271  0.1697
15109TIP3    H166818   4.203   6.688   5.677  1.2015  1.2712  2.8128
15109TIP3    H266819   4.229   6.545   5.634  1.6453  2.6543 -2.0968
15110TIP3   OH266820   6.133   6.103   0.898 -0.3596  0.0631  0.0961
15110TIP3    H166821   6.095   6.191   0.900 -1.3312 -0.3529  1.0534
15110TIP3    H266822   6.227   6.118   0.900 -0.4894  1.0913 -0.4892
15111TIP3   OH266823   0.365   2.807  16.286  0.1959 -0.6424 -0.1167
15111TIP3    H166824   0.404   2.888  16.253  1.3859 -0.2169  2.0833
15111TIP3    H266825   0.422   2.783  16.360 -2.1844 -1.5083  1.5520
15112TIP3   OH266826   4.612   6.443  15.062 -0.2600  0.6843 -0.1514
15112TIP3    H166827   4.579   6.382  14.996  0.0739 -0.7043  0.9080
15112TIP3    H266828   4.549   6.438  15.134  0.1127  1.0824  0.2143
15113TIP3   OH266829   4.337   4.033   1.590 -0.1078  0.2485  0.2125
15113TIP3    H166830   4.287   4.006   1.667  0.5602  1.4365  1.1035
15113TIP3    H266831   4.428   4.017   1.613  0.0819  0.3090 -0.4695
15114TIP3   OH266832   6.771   0.531  15.260  0.2809 -0.1675  0.0945
15114TIP3    H166833   6.768   0.436  15.271  0.9608 -0.0549  1.3967
15114TIP3    H266834   6.725   0.546  15.177  2.4833 -1.8447 -1.5447
15115TIP3   OH266835   4.694   1.251   2.289 -0.3467 -0.1965 -0.0852
15115TIP3    H166836   4.710   1.193   2.364  2.6780  1.9400  1.1361
15115TIP3    H266837   4.722   1.200   2.213  1.4099 -0.7326  0.8628
15116TIP3   OH266838   5.963   2.770  15.739  0.3018 -0.3219  0.2451
15116TIP3    H166839   5.885   2.735  15.783  0.1498  0.9244  0.9969
15116TIP3    H266840   5.933   2.853  15.702  0.8605 -0.6007 -0.8630
15117TIP3   OH266841   0.404   4.823   1.337  0.2003  0.5423 -0.8815
15117TIP3    H166842   0.474   4.844   1.398  1.1256  0.0690 -1.7531
15117TIP3    H266843   0.340   4.775   1.390  0.9288  0.2405 -0.2600
15118TIP3   OH266844   6.081   3.548  14.412 -0.4585  0.2629  0.2791
15118TIP3    H166845   5.996   3.555  14.370 -1.1081 -0.1217  1.4830
15118TIP3    H266846   6.112   3.639  14.418  0.0165  0.2772 -1.6656
15119TIP3   OH266847   2.764   4.262  16.703  0.2192 -0.2187 -0.3813
15119TIP3    H166848   2.676   4.266  16.664  0.6502 -0.8980 -1.4725
15119TIP3    H266849   2.750   4.232  16.792 -0.8607  1.8826  0.2198
15120TIP3   OH266850   1.428   4.136  12.576  0.4088  1.0275  0.3572
15120TIP3    H166851   1.356   4.184  12.617  1.5234  1.5497  1.7923
15120TIP3    H266852   1.412   4.044  12.599  0.8757  1.2842  1.7944
15121TIP3   OH266853   6.787   3.184  11.245  0.0845  0.4560 -0.5427
15121TIP3    H166854   6.745   3.106  11.209 -0.8711  0.3624  0.7179
15121TIP3    H266855   6.821   3.230  11.169  0.0019 -0.8124 -1.3695
15122TIP3   OH266856   3.208   1.743   2.400 -0.0009 -0.2749  0.0236
15122TIP3    H166857   3.184   1.814   2.340  1.4115  1.8308  1.7943
15122TIP3    H266858   3.166   1.765   2.482  0.4273 -1.5463  0.6136
15123TIP3   OH266859   4.305   0.476   4.346  0.0191  0.0298 -0.6324
15123TIP3    H166860   4.275   0.385   4.356  0.3016  0.0800  0.9098
15123TIP3    H266861   4.242   0.515   4.286  2.5472 -2.4006 -5.4777
15124TIP3   OH266862   5.697   3.844   5.422 -0.6647 -0.4959 -0.0717
15124TIP3    H166863   5.702   3.937   5.442  0.2272 -0.2897 -1.0970
15124TIP3    H266864   5.613   3.833   5.379 -1.0670 -0.2991  0.6550
15125TIP3   OH266865   6.778   1.345   3.487  0.0838  0.5139  0.2112
15125TIP3    H166866   6.733   1.398   3.421 -2.0134 -1.3120  0.0625
15125TIP3    H266867   6.754   1.384   3.570 -1.6465 -0.2584  0.1174
15126TIP3   OH266868   0.314   5.791  13.616  0.3033 -0.2691  0.4584
15126TIP3    H166869   0.334   5.881  13.641  1.3339 -0.3586 -0.0210
15126TIP3    H266870   0.381   5.738  13.660 -0.3127 -0.8159  0.7682
15127TIP3   OH266871   3.716   3.400   0.640 -0.1216 -0.4908 -0.5353
15127TIP3    H166872   3.669   3.464   0.586 -0.2220  1.8603  2.1240
15127TIP3    H266873   3.808   3.410   0.615 -0.1847  0.4581 -0.4008
15128TIP3   OH266874   1.885   2.782  16.402 -0.1728  0.6474 -0.1554
15128TIP3    H166875   1.819   2.811  16.464  0.8076  0.6360  0.9192
15128TIP3    H266876   1.966   2.826  16.430  0.4610  0.0019 -0.9223
15129TIP3   OH266877   2.970   4.270   3.973 -0.3220 -0.5358 -0.1512
15129TIP3    H166878   2.985   4.365   3.968 -0.6969 -0.5174 -1.0746
15129TIP3    H266879   2.924   4.258   4.057 -3.2514  0.5551 -1.4573
15130TIP3   OH266880   4.204   5.558   2.489  0.1911  0.0768 -0.3427
15130TIP3    H166881   4.122   5.601   2.466  0.1995  0.7070  0.7213
15130TIP3    H266882   4.271   5.625   2.474  0.2264  0.4107  1.1243
15131TIP3   OH266883   0.018   5.116  14.399  0.4471  0.1371 -0.2107
15131TIP3    H166884  -0.036   5.114  14.478 -0.5752  0.9933 -0.8719
15131TIP3    H266885   0.099   5.071  14.425  0.3535  0.8612  1.4838
15132TIP3   OH266886   2.281   5.753  16.841 -0.3154  0.1121  0.3775
15132TIP3    H166887   2.318   5.667  16.863 -3.5479 -1.6583 -0.4207
15132TIP3    H266888   2.346   5.816  16.872  2.8838 -2.6059 -0.2809
15133TIP3   OH266889   1.069   0.947  11.821 -0.3896  0.7530  0.6087
15133TIP3    H166890   1.147   0.926  11.872 -0.0871 -2.1835 -0.8794
15133TIP3    H266891   1.099   1.010  11.756  1.2566 -1.5616 -1.0079
15134TIP3   OH266892   0.799   4.768  15.618  0.9014 -0.2010  0.4002
15134TIP3    H166893   0.830   4.821  15.544  1.2231  0.8827  1.2894
15134TIP3    H266894   0.773   4.685  15.578 -0.8950  1.0524 -1.2421
15135TIP3   OH266895   1.799   3.779   1.015  0.7074  0.1580  0.1903
15135TIP3    H166896   1.748   3.713   0.968  0.7321  0.2465  0.0379
15135TIP3    H266897   1.799   3.855   0.957  1.2030  0.0805  0.0813
15136TIP3   OH266898   5.433   3.566   4.026  0.1827 -0.4190 -0.2947
15136TIP3    H166899   5.357   3.527   3.982  0.0593 -0.2392 -0.2420
15136TIP3    H266900   5.400   3.592   4.112  0.3871 -0.6357 -0.1485
15137TIP3   OH266901   4.845   1.938  12.977 -0.0917 -0.1198  0.1931
15137TIP3    H166902   4.921   1.881  12.964  1.0765  1.3408  0.3023
15137TIP3    H266903   4.873   2.023  12.942 -1.2385  0.7711  1.3318
15138TIP3   OH266904   0.632   5.136  17.177  0.2403  0.1437 -0.1096
15138TIP3    H166905   0.540   5.139  17.204 -0.3137 -1.9694 -1.4439
15138TIP3    H266906   0.631   5.156  17.083  0.7336 -2.1826 -0.7053
15139TIP3   OH266907   0.005   4.792  14.553 -0.0655  0.1035  0.5892
15139TIP3    H166908  -0.049   4.769  14.478 -1.0236  2.1077  0.5799
15139TIP3    H266909  -0.051   4.849  14.606  1.1223  0.0070  2.0151
15140TIP3   OH266910   1.012   4.245   4.145 -0.8266 -0.1781  0.7367
15140TIP3    H166911   1.048   4.184   4.209 -0.2205 -0.7964 -0.1669
15140TIP3    H266912   1.002   4.327   4.193  1.6577 -0.0077  1.0820
15141TIP3   OH266913   2.011   4.109  16.761  0.5101  0.0999  0.4958
15141TIP3    H166914   2.025   4.027  16.808 -0.7292 -0.4870 -0.1054
15141TIP3    H266915   1.934   4.149  16.803 -0.8631 -0.6230 -1.1926
15142TIP3   OH266916   3.882   0.540  11.896  0.2504  0.0792 -0.4165
15142TIP3    H166917   3.908   0.552  11.987 -0.5883 -3.0754  0.3755
15142TIP3    H266918   3.788   0.553  11.896  0.2421  0.0390 -0.8203
15143TIP3   OH266919   0.259   6.675  14.957 -0.0930 -0.2850 -0.6189
15143TIP3    H166920   0.180   6.678  15.011 -0.0638 -2.6798 -0.3266
15143TIP3    H266921   0.238   6.729  14.880 -0.9754  1.3025  0.6710
15144TIP3   OH266922   3.003   2.428   4.759  0.3887 -0.3001 -0.2019
15144TIP3    H166923   2.988   2.350   4.706 -1.2890 -0.3608  0.3041
15144TIP3    H266924   2.945   2.495   4.721  0.8565  0.3293  0.1598
15145TIP3   OH266925   3.682   3.866   1.481  0.7824  0.7564  0.3282
15145TIP3    H166926   3.658   3.805   1.551  0.3389  0.1793 -0.3083
15145TIP3    H266927   3.654   3.951   1.514  1.2002  0.5969  1.1338
15146TIP3   OH266928   6.390   3.435  12.035  0.1869  0.0835  0.1177
15146TIP3    H166929   6.434   3.440  12.120  0.0125  0.2382  0.2008
15146TIP3    H266930   6.460   3.417  11.972  0.3757  0.3799  0.2410
15147TIP3   OH266931   4.861   3.019  13.939  0.0530 -0.7199 -0.0596
15147TIP3    H166932   4.956   3.018  13.953  0.0142 -0.1864  0.2554
15147TIP3    H266933   4.824   2.974  14.015 -0.0794  1.0875  1.0059
15148TIP3   OH266934   4.541   0.450   4.619 -0.2623  0.0148  0.3809
15148TIP3    H166935   4.464   0.440   4.564 -0.7706 -0.6514  1.1902
15148TIP3    H266936   4.509   0.438   4.708  1.2472 -3.3851  0.5998
15149TIP3   OH266937   3.898   0.366   5.205 -0.3891  0.0866 -0.2048
15149TIP3    H166938   3.859   0.392   5.122 -0.4573  1.8490  0.3142
15149TIP3    H266939   3.989   0.347   5.185 -0.8661 -1.4547 -0.9907
15150TIP3   OH266940   0.450   0.277   0.117  0.3770  0.3924 -0.5882
15150TIP3    H166941   0.530   0.263   0.067  0.0328 -0.2570 -0.9678
15150TIP3    H266942   0.468   0.238   0.203 -0.2823 -1.7955 -1.3697
15151TIP3   OH266943   0.922   3.144   6.159 -0.2797  0.3344  0.7051
15151TIP3    H166944   0.906   3.131   6.253  0.0120  0.2498  0.7434
15151TIP3    H266945   1.013   3.118   6.147 -1.0082 -2.1497 -0.0517
15152TIP3   OH266946   0.780   6.481  15.808  0.1006  0.5758 -0.2159
15152TIP3    H166947   0.728   6.520  15.738  0.7230  2.2980  0.2397
15152TIP3    H266948   0.715   6.445  15.869 -0.4646  0.1824 -1.0370
15153TIP3   OH266949   0.215   3.501  16.923 -0.4371  0.3473  0.6422
15153TIP3    H166950   0.126   3.527  16.947 -1.0008  0.5202 -1.4254
15153TIP3    H266951   0.271   3.543  16.988 -1.8128  1.0178  1.4271
15154TIP3   OH266952   4.837   3.029   4.575 -0.0963 -0.0061 -0.2267
15154TIP3    H166953   4.875   2.994   4.494  1.1504  0.5273  0.0955
15154TIP3    H266954   4.823   3.122   4.557 -2.4139 -0.4024 -0.7302
15155TIP3   OH266955   1.960   6.347   4.999 -0.1158  0.6516 -0.4644
15155TIP3    H166956   1.961   6.377   5.089 -0.4542 -0.2262 -0.1551
15155TIP3    H266957   1.869   6.323   4.982  0.0560  0.2268 -0.8317
15156TIP3   OH266958   0.864   2.937   1.403  0.1854  0.5968 -0.1170
15156TIP3    H166959   0.915   2.951   1.323 -1.8313  2.0368 -1.2376
15156TIP3    H266960   0.774   2.931   1.373 -0.7518  2.0516  2.1218
15157TIP3   OH266961   2.059   4.639   6.415  0.0143  0.0077 -0.7394
15157TIP3    H166962   2.114   4.608   6.486  1.0247 -0.0812 -1.5479
15157TIP3    H266963   2.046   4.562   6.359 -3.2628 -0.7554  0.8259
15158TIP3   OH266964   5.555   4.004   2.456  0.1362 -0.1113  0.1281
15158TIP3    H166965   5.525   4.075   2.399 -2.0876  0.2110  1.5619
15158TIP3    H266966   5.519   4.026   2.542 -1.2880 -3.2642  0.4952
15159TIP3   OH266967   4.446   5.493   3.040  0.0727 -0.5168  0.1169
15159TIP3    H166968   4.517   5.551   3.014  0.8790 -0.3770  2.4044
15159TIP3    H266969   4.486   5.406   3.040  0.2167 -0.4619  1.2105
15160TIP3   OH266970   0.864   0.780  15.869 -0.1041 -0.4248  0.2701
15160TIP3    H166971   0.777   0.767  15.907 -1.1890  1.1266 -1.4772
15160TIP3    H266972   0.876   0.705  15.811 -0.9570  0.0587 -0.5739
15161TIP3   OH266973   2.547   1.109  10.452  0.4100  0.3011  0.5835
15161TIP3    H166974   2.639   1.099  10.477 -0.1064 -0.9534  2.1178
15161TIP3    H266975   2.527   1.030  10.402 -0.2630 -0.2452  1.6864
15162TIP3   OH266976   1.807   2.894   6.194  0.0258 -0.1582 -0.6858
15162TIP3    H166977   1.749   2.820   6.207  0.2263 -0.4301 -1.2729
15162TIP3    H266978   1.857   2.901   6.275  0.0876 -0.7418 -0.6714
15163TIP3   OH266979   5.168   6.174  13.976  0.2614 -0.1538 -0.2840
15163TIP3    H166980   5.219   6.135  14.048  0.3789  1.1780  0.3810
15163TIP3    H266981   5.112   6.238  14.019 -2.4684 -1.9435 -0.8979
15164TIP3   OH266982   3.882   2.471  14.409  0.7440 -0.8068  0.2254
15164TIP3    H166983   3.963   2.508  14.444  0.8261 -0.8057  0.0328
15164TIP3    H266984   3.909   2.422  14.332  0.5067 -0.4519 -0.0898
15165TIP3   OH266985   2.755   2.223   2.102 -0.0401 -0.4141 -0.5606
15165TIP3    H166986   2.827   2.280   2.133  0.1101 -0.2769 -1.1502
15165TIP3    H266987   2.749   2.155   2.169 -1.1717  1.0635  0.9233
15166TIP3   OH266988   6.724   3.511   6.377  0.4559  0.3031 -0.0047
15166TIP3    H166989   6.790   3.443   6.367  0.9503  1.0298 -2.3275
15166TIP3    H266990   6.774   3.592   6.387  0.1013  1.1184 -3.5908
15167TIP3   OH266991   6.632   0.465   2.810 -0.1781  0.0461  0.3049
15167TIP3    H166992   6.615   0.372   2.827  0.5549 -0.2321 -0.4435
15167TIP3    H266993   6.559   0.492   2.754 -0.4242 -0.0557  0.5703
15168TIP3   OH266994   2.896   2.136   4.970  0.1133 -0.1016 -0.2720
15168TIP3    H166995   2.880   2.088   5.050 -0.0921  0.1197 -0.1792
15168TIP3    H266996   2.980   2.180   4.985  0.9390 -1.4348 -0.8421
15169TIP3   OH266997   1.252   4.535   3.280  0.0715  0.0802  0.6745
15169TIP3    H166998   1.172   4.482   3.285 -0.7656  1.3303  0.9258
15169TIP3    H266999   1.322   4.471   3.270 -0.9419 -1.0580  0.6034
15170TIP3   OH267000   3.175   6.667  15.368  0.9334  0.0368  0.3001
15170TIP3    H167001   3.251   6.710  15.406  0.2822  0.3726  1.2704
15170TIP3    H267002   3.104   6.685  15.430  0.4028 -1.5597  0.1933
15171TIP3   OH267003   0.060   5.173  15.912  0.3187 -0.3663 -0.1097
15171TIP3    H167004   0.089   5.082  15.916 -2.1317 -1.3607 -1.9322
15171TIP3    H267005  -0.027   5.173  15.953 -0.5871  0.6469 -1.8794
15172TIP3   OH267006   2.364   2.183   0.157  0.0894 -0.3150 -0.3125
15172TIP3    H167007   2.454   2.151   0.158  0.1852 -0.0977 -1.2277
15172TIP3    H267008   2.324   2.144   0.235  0.6719 -1.3022 -0.4906
15173TIP3   OH267009   4.725   2.003  14.140 -0.1087 -0.0291  0.2025
15173TIP3    H167010   4.669   2.047  14.076  0.1317  0.2522  0.1801
15173TIP3    H267011   4.751   2.073  14.201 -1.7973 -0.6271  1.6836
15174TIP3   OH267012   3.918   0.602  12.175  0.4349 -0.4121 -0.6672
15174TIP3    H167013   3.860   0.656  12.229  0.5150 -1.0893  0.1371
15174TIP3    H267014   3.978   0.561  12.239  0.0337 -1.8443 -1.1768
15175TIP3   OH267015   6.093   4.557   6.611 -0.6476  0.0323 -0.0622
15175TIP3    H167016   6.139   4.631   6.650 -0.4163 -0.1427  0.0004
15175TIP3    H267017   6.026   4.597   6.556  0.5922  0.3437 -1.4338
15176TIP3   OH267018   3.529   3.960   2.072  0.3072 -0.2149  0.3291
15176TIP3    H167019   3.589   4.020   2.027 -0.6885  1.1197  0.7258
15176TIP3    H267020   3.442   3.997   2.057 -0.2988 -1.3452  0.9403
15177TIP3   OH267021   6.222   2.523  14.740  0.2362 -0.1116  0.1659
15177TIP3    H167022   6.249   2.613  14.755  1.2555  0.0718 -2.3150
15177TIP3    H267023   6.304   2.474  14.731 -0.2951 -1.0211  0.1186
15178TIP3   OH267024   5.020   4.953  14.961  0.5806 -0.3875 -0.9383
15178TIP3    H167025   5.090   4.918  14.905 -1.3276 -2.6323 -2.1081
15178TIP3    H267026   4.941   4.908  14.932 -0.8258 -0.5204  2.5510
15179TIP3   OH267027   1.036   6.228  10.279 -0.3780 -0.2872 -0.4535
15179TIP3    H167028   0.969   6.200  10.217 -1.4302  0.8155  0.1337
15179TIP3    H267029   0.987   6.254  10.357  0.8916 -1.4102  0.7681
15180TIP3   OH267030   0.844   3.903  13.631 -0.0278  0.1263  0.7172
15180TIP3    H167031   0.883   3.979  13.672  0.8373  0.9098 -1.4181
15180TIP3    H267032   0.754   3.930  13.612 -0.0996  0.1558  1.0953
15181TIP3   OH267033   5.416   2.690  15.498 -0.2873  0.0761  0.0624
15181TIP3    H167034   5.447   2.600  15.511  5.3669  1.1491 -2.7467
15181TIP3    H267035   5.432   2.733  15.582  0.9958 -0.7368  0.2692
15182TIP3   OH267036   2.238   4.154   6.098 -0.5011 -0.0824  0.0401
15182TIP3    H167037   2.163   4.108   6.136 -0.5920 -0.6922 -0.8408
15182TIP3    H267038   2.315   4.113   6.138 -0.6135  0.7429  1.1696
15183TIP3   OH267039   5.181   6.450  12.016 -0.4461 -0.1891  0.0489
15183TIP3    H167040   5.131   6.382  12.061 -2.3373  1.4275  0.5464
15183TIP3    H267041   5.159   6.438  11.923  3.3220 -3.4127 -0.6989
15184TIP3   OH267042   4.124   5.574   5.358 -0.5459  0.2514  0.6658
15184TIP3    H167043   4.208   5.596   5.318  0.3740  0.0877  2.4322
15184TIP3    H267044   4.111   5.482   5.335 -0.4921  0.3966  0.0083
15185TIP3   OH267045   3.413   1.595  17.104 -0.1627 -0.0929 -0.1701
15185TIP3    H167046   3.475   1.523  17.094 -0.9958 -1.3634  2.6883
15185TIP3    H267047   3.339   1.570  17.049 -0.5578 -1.6617  0.9778
15186TIP3   OH267048   1.165   0.291   3.247  0.4044 -0.5913  0.4356
15186TIP3    H167049   1.153   0.250   3.162 -1.6673  0.5618  0.0789
15186TIP3    H267050   1.210   0.226   3.300  1.8612 -1.2916 -1.5537
15187TIP3   OH267051   3.866   6.019   1.798 -0.4787 -0.0659 -0.2330
15187TIP3    H167052   3.824   5.944   1.755  0.8150 -0.2457 -1.2226
15187TIP3    H267053   3.820   6.027   1.882 -0.6989 -1.8986 -0.1498
15188TIP3   OH267054   3.162   4.782   5.601  0.3218 -0.2898 -0.7530
15188TIP3    H167055   3.184   4.762   5.692  0.2004  0.3787 -0.5689
15188TIP3    H267056   3.244   4.812   5.563 -0.0055  1.1908 -0.3535
15189TIP3   OH267057   2.678   2.892  16.361 -0.1305 -0.2356 -0.5571
15189TIP3    H167058   2.657   2.850  16.278 -1.5701 -1.0149  0.1698
15189TIP3    H267059   2.595   2.892  16.410  1.0272 -1.3313  1.5467
15190TIP3   OH267060   2.600   2.347   5.278 -0.0881 -0.5496 -0.1415
15190TIP3    H167061   2.570   2.392   5.356  1.0284 -0.6301  0.3566
15190TIP3    H267062   2.538   2.275   5.266 -0.0971 -0.7211  0.8538
15191TIP3   OH267063   3.462   5.506   4.727 -0.2039 -0.2938  0.6536
15191TIP3    H167064   3.535   5.473   4.674 -0.7630 -1.1150  0.3854
15191TIP3    H267065   3.500   5.579   4.776  0.4150  0.2945 -0.6319
15192TIP3   OH267066   4.695   5.366  13.601 -0.3373  0.1576  1.0758
15192TIP3    H167067   4.651   5.378  13.517  1.0844 -0.5970  0.1868
15192TIP3    H267068   4.756   5.294  13.586  0.0716  0.1213  2.7135
15193TIP3   OH267069   5.083   6.131  11.404 -0.3181  0.0060  0.4579
15193TIP3    H167070   5.123   6.046  11.422 -0.4474 -0.0240  0.6005
15193TIP3    H267071   5.035   6.118  11.322 -2.4115 -0.7647  1.7276
15194TIP3   OH267072   2.858   0.887  12.436  0.1205  0.0289  0.3719
15194TIP3    H167073   2.794   0.899  12.505 -0.2233 -2.2762  0.5090
15194TIP3    H267074   2.806   0.879  12.356  0.4495  1.3292 -0.0034
15195TIP3   OH267075   3.905   6.139  16.757  0.0512  0.5354  0.1821
15195TIP3    H167076   3.997   6.148  16.782  0.0029  0.4083  0.4082
15195TIP3    H267077   3.869   6.227  16.768 -0.4153  0.1445  2.3553
15196TIP3   OH267078   4.020   2.665   3.729 -0.7412  0.1158  0.4703
15196TIP3    H167079   4.033   2.721   3.806  0.6481  1.2699 -0.5415
15196TIP3    H267080   3.956   2.600   3.757 -2.2162  2.0271  1.8080
15197TIP3   OH267081   0.980   4.019  14.060 -0.3279  0.0276 -0.2478
15197TIP3    H167082   1.027   4.007  14.142 -2.3994  0.1585  1.0357
15197TIP3    H267083   0.946   4.108  14.064 -2.3168 -0.6707 -0.1450
15198TIP3   OH267084   5.301   3.925   1.672  0.4972 -0.1534 -0.0411
15198TIP3    H167085   5.321   3.960   1.759  0.9263  1.4658 -0.7540
15198TIP3    H267086   5.242   3.852   1.689  2.3133 -1.3110  1.7422
15199TIP3   OH267087   1.654   2.867   3.595 -0.0914  0.5213  0.2098
15199TIP3    H167088   1.727   2.897   3.541 -1.5219  0.3419 -1.9434
15199TIP3    H267089   1.611   2.948   3.624  1.0173  0.6337  1.6668
15200TIP3   OH267090   0.226   4.336   3.804 -0.2245 -0.2464  0.1522
15200TIP3    H167091   0.256   4.245   3.802 -2.7466 -1.3290  2.8164
15200TIP3    H267092   0.305   4.388   3.817  1.3592 -1.9474 -2.0458
15201TIP3   OH267093   3.355   5.942   1.094 -0.2004  0.2803  0.5019
15201TIP3    H167094   3.308   5.891   1.161 -1.8980 -1.3821 -1.7680
15201TIP3    H267095   3.433   5.891   1.076 -0.3668  0.0683  0.3703
15202TIP3   OH267096   6.116   6.095  10.434 -0.0631 -0.3742  0.2178
15202TIP3    H167097   6.031   6.114  10.474 -0.5056 -1.9345  0.0657
15202TIP3    H267098   6.145   6.180  10.399 -1.4384  0.2263  0.4648
15203TIP3   OH267099   2.249   1.846   0.654 -0.1490  0.2749 -0.1070
15203TIP3    H167100   2.235   1.779   0.587 -2.7426 -0.9744  1.5269
15203TIP3    H267101   2.174   1.905   0.645  0.2838  0.9672  0.6956
15204TIP3   OH267102   5.927   1.827  14.292 -0.4603 -0.0985 -1.0627
15204TIP3    H167103   5.943   1.818  14.198 -1.4065 -0.1278 -1.2266
15204TIP3    H267104   5.914   1.738  14.323 -0.5171 -0.0603 -0.9755
15205TIP3   OH267105   6.507   6.511  14.266  0.6327  0.4582  0.7292
15205TIP3    H167106   6.477   6.430  14.307  0.9921  0.8357  1.7671
15205TIP3    H267107   6.460   6.514  14.183 -0.2869 -0.2145  1.2004
15206TIP3   OH267108   5.448   5.775   3.005 -0.3303 -0.0442  0.1443
15206TIP3    H167109   5.515   5.714   2.975  1.0855  1.7896 -0.6311
15206TIP3    H267110   5.370   5.753   2.953  0.4899 -0.4340 -0.9625
15207TIP3   OH267111   0.296   5.114  15.574 -0.6451 -0.1903  0.1369
15207TIP3    H167112   0.209   5.074  15.581 -0.8119  0.0926 -0.2941
15207TIP3    H267113   0.287   5.200  15.613 -0.6581 -0.0125 -0.2509
15208TIP3   OH267114   0.736   1.873   3.883 -0.3339  0.5129 -0.7965
15208TIP3    H167115   0.650   1.888   3.843 -1.7168  1.8925  2.3012
15208TIP3    H267116   0.798   1.913   3.823 -1.9884  0.6177 -2.5326
15209TIP3   OH267117   0.237   5.688   2.213  0.2293 -0.5793  0.0937
15209TIP3    H167118   0.228   5.766   2.268  1.4051  0.7284 -1.4675
15209TIP3    H267119   0.210   5.717   2.125 -0.4786 -2.2727 -0.2870
15210TIP3   OH267120   2.439   4.823   5.576 -0.6321  0.1284 -0.2296
15210TIP3    H167121   2.489   4.835   5.657 -0.2998 -1.2022 -0.2108
15210TIP3    H267122   2.390   4.904   5.566 -0.5892  0.3637  1.2438
15211TIP3   OH267123   3.178   4.063  13.949  0.3561  0.2912  0.1803
15211TIP3    H167124   3.175   4.004  14.024  0.0730 -1.0281 -0.8376
15211TIP3    H267125   3.260   4.111  13.959  0.7112 -0.4517  0.9040
15212TIP3   OH267126   6.304   1.004   4.148 -0.8324  0.5654 -0.0456
15212TIP3    H167127   6.272   0.967   4.066 -1.7750  1.1374  0.0492
15212TIP3    H267128   6.314   0.928   4.206 -0.8770  0.2464 -0.4524
15213TIP3   OH267129   5.695   0.390  15.334  0.2945  0.0092  0.4018
15213TIP3    H167130   5.663   0.381  15.244 -2.2163  0.9142  1.1117
15213TIP3    H267131   5.655   0.318  15.381  1.4245 -0.3317  0.8732
15214TIP3   OH267132   1.676   6.503   0.497  0.1938 -0.3397  0.2785
15214TIP3    H167133   1.695   6.439   0.428  1.2918 -0.9401  1.1132
15214TIP3    H267134   1.662   6.450   0.575  3.1500  0.4180  1.4671
15215TIP3   OH267135   0.042   1.501   1.536  0.1294  0.0214  0.2648
15215TIP3    H167136  -0.011   1.472   1.609 -0.1480 -0.4432 -0.1137
15215TIP3    H267137   0.032   1.432   1.470  0.0976  0.5978 -0.3413
15216TIP3   OH267138   5.840   3.672  11.781  0.2044  0.3898 -0.1044
15216TIP3    H167139   5.844   3.681  11.876  0.6371  0.9641 -0.1710
15216TIP3    H267140   5.780   3.598  11.766  1.6635 -1.0269  0.6757
15217TIP3   OH267141   6.068   0.894   4.060  0.1889 -0.0183 -0.0076
15217TIP3    H167142   5.986   0.848   4.040  0.1251 -0.2101  0.6832
15217TIP3    H267143   6.041   0.969   4.113  0.5850 -0.8375  1.3969
15218TIP3   OH267144   4.215   4.809  13.863  0.2898 -0.9614 -0.0471
15218TIP3    H167145   4.205   4.714  13.853  0.7549 -0.8840 -1.5721
15218TIP3    H267146   4.310   4.823  13.865  0.2239 -0.5244  0.1151
15219TIP3   OH267147   3.887   5.272   2.365 -0.3073  0.0763 -0.0604
15219TIP3    H167148   3.880   5.205   2.433 -1.0278 -0.9245 -1.0812
15219TIP3    H267149   3.797   5.285   2.334 -0.0486  0.8284 -0.5239
15220TIP3   OH267150   2.523   3.742  12.461  0.1050  0.5038  0.2749
15220TIP3    H167151   2.471   3.674  12.419  3.6734 -2.5921  0.4277
15220TIP3    H267152   2.597   3.755  12.403  0.4186  3.1375  1.1119
15221TIP3   OH267153   0.678   4.622   0.251 -0.2006  0.3099 -0.0088
15221TIP3    H167154   0.658   4.548   0.308 -1.4690  2.0059  1.8720
15221TIP3    H267155   0.759   4.659   0.286 -0.0593  0.3560 -0.3733
15222TIP3   OH267156   5.661   2.980   4.795 -0.0890  0.1572 -0.4129
15222TIP3    H167157   5.672   3.027   4.712 -1.0032  2.9262  0.9282
15222TIP3    H267158   5.749   2.949   4.817  0.8249  2.3527 -0.7764
15223TIP3   OH267159   4.092   4.922   5.180  0.3815 -0.2726  0.2607
15223TIP3    H167160   4.047   4.991   5.132 -1.3520 -1.3614  0.2074
15223TIP3    H267161   4.110   4.960   5.266 -0.9735  0.1316  0.3887
15224TIP3   OH267162   4.367   3.418   5.683 -0.2563  0.6629 -0.8315
15224TIP3    H167163   4.407   3.409   5.769  1.0046  1.0898 -1.3535
15224TIP3    H267164   4.273   3.410   5.699  0.0289 -3.8629  0.0477
15225TIP3   OH267165   4.841   3.710  13.753 -0.2170 -0.4670 -0.0748
15225TIP3    H167166   4.759   3.759  13.746  0.8116  1.4082  0.4429
15225TIP3    H267167   4.869   3.697  13.663 -0.4324  0.0238 -0.2129
15226TIP3   OH267168   4.328   1.200  14.048  0.1042 -0.2044 -0.2282
15226TIP3    H167169   4.390   1.261  14.088 -0.2219  0.4244 -0.6711
15226TIP3    H267170   4.371   1.115  14.056  0.6358  0.0972  0.2566
15227TIP3   OH267171   3.455   2.192  12.327  0.1509  0.1606 -0.2696
15227TIP3    H167172   3.475   2.110  12.373 -0.5871 -0.2163 -0.6174
15227TIP3    H267173   3.541   2.228  12.306  0.4973  0.0069  0.8093
15228TIP3   OH267174   1.655   5.598  14.484  0.1308 -0.6682 -0.6678
15228TIP3    H167175   1.658   5.562  14.395 -0.3534  0.2880 -1.0855
15228TIP3    H267176   1.595   5.540  14.531 -0.8072 -0.3078 -1.3851
15229TIP3   OH267177   2.156   5.233  16.953 -0.3001 -1.0676 -0.4227
15229TIP3    H167178   2.219   5.181  16.902  0.1450 -0.6202 -0.3452
15229TIP3    H267179   2.094   5.169  16.988  0.4389 -1.5939 -0.0375
15230TIP3   OH267180   0.331   3.413   3.356 -0.0116 -0.4259  0.1736
15230TIP3    H167181   0.401   3.349   3.345 -1.6086 -2.5317  1.5820
15230TIP3    H267182   0.326   3.428   3.450  0.0131  1.4611 -0.0888
15231TIP3   OH267183   4.073   1.524   2.301 -0.6750 -0.1363  0.4896
15231TIP3    H167184   4.137   1.528   2.372 -0.2800  1.2660  0.0800
15231TIP3    H267185   4.091   1.441   2.256  1.4509  0.6099 -0.1383
15232TIP3   OH267186   1.111   4.953  10.500  0.4007  0.0131  0.3518
15232TIP3    H167187   1.172   4.898  10.548 -0.2863 -0.0721  1.1486
15232TIP3    H267188   1.038   4.895  10.479 -0.0403  0.4594  0.6364
15233TIP3   OH267189   5.379   3.448   4.847 -0.3388  0.1793  0.2215
15233TIP3    H167190   5.367   3.355   4.861 -0.3699 -0.2134 -1.9775
15233TIP3    H267191   5.298   3.478   4.807  0.1888  0.8164 -0.4195
15234TIP3   OH267192   6.555   2.883   2.782 -0.2414  0.5476 -0.1419
15234TIP3    H167193   6.483   2.940   2.806  1.2596  1.4118  2.7149
15234TIP3    H267194   6.517   2.795   2.779 -1.5865  1.1041  0.2371
15235TIP3   OH267195   1.548   5.277  13.809 -0.2223 -0.4345 -0.2130
15235TIP3    H167196   1.609   5.287  13.735  0.2617  1.4719  0.3855
15235TIP3    H267197   1.493   5.356  13.805 -2.9104 -2.1968 -0.8927
15236TIP3   OH267198   2.174   1.147   4.681  0.8015  0.2375  0.1894
15236TIP3    H167199   2.234   1.162   4.753  0.6116 -1.3714  0.7384
15236TIP3    H267200   2.105   1.212   4.692  0.3770 -0.4640  1.9430
15237TIP3   OH267201   0.434   3.106  11.205 -0.1268 -0.0518 -0.2222
15237TIP3    H167202   0.462   3.166  11.274  3.5628 -0.0032 -1.5567
15237TIP3    H267203   0.407   3.163  11.133  2.0418  0.1155 -0.9801
15238TIP3   OH267204   2.639   1.537  13.303 -0.0650 -0.3248  0.8346
15238TIP3    H167205   2.638   1.629  13.275 -0.5828 -0.7573 -0.6804
15238TIP3    H267206   2.702   1.495  13.244 -1.0099 -1.2366  0.4412
15239TIP3   OH267207   4.311   5.097   0.048  0.3524 -0.5712  0.0938
15239TIP3    H167208   4.400   5.129   0.033  0.8664 -1.4842  1.1145
15239TIP3    H267209   4.302   5.093   0.143 -0.1944 -2.0653  0.0022
15240TIP3   OH267210   5.775   1.824   2.431  0.2505 -0.2197  0.1816
15240TIP3    H167211   5.825   1.742   2.430 -2.5279 -2.1133  2.0329
15240TIP3    H267212   5.827   1.882   2.487  1.2424 -1.4654  0.6230
15241TIP3   OH267213   6.408   2.473   3.120 -0.6602  0.1869 -0.8099
15241TIP3    H167214   6.402   2.561   3.082  1.3489  0.5074 -0.4964
15241TIP3    H267215   6.341   2.423   3.075  0.7712  0.8619 -3.9571
15242TIP3   OH267216   5.373   3.847   4.516 -0.1640 -0.3371 -0.9423
15242TIP3    H167217   5.454   3.796   4.515 -0.1332 -0.3443  0.5276
15242TIP3    H267218   5.354   3.861   4.609 -1.4454  0.3127 -1.2803
15243TIP3   OH267219   0.139   2.975  16.094 -0.0701  0.5566  0.5193
15243TIP3    H167220   0.226   2.951  16.063 -1.6360 -3.1767 -1.6829
15243TIP3    H267221   0.136   2.944  16.184  1.2243  1.9311  1.0721
15244TIP3   OH267222   5.343   4.987  12.799 -0.1288 -0.1592  0.1954
15244TIP3    H167223   5.407   4.963  12.733 -0.5481  1.0887 -0.7030
15244TIP3    H267224   5.303   4.903  12.825 -1.4706 -0.5711 -2.7190
15245TIP3   OH267225   0.187   2.752  12.127 -0.1498  0.0747  0.4002
15245TIP3    H167226   0.128   2.725  12.197  0.2116  2.5092  1.7444
15245TIP3    H267227   0.158   2.701  12.051 -1.8618 -1.1654  1.7942
15246TIP3   OH267228   1.146   6.531   3.805  0.9410  0.0120  0.3149
15246TIP3    H167229   1.185   6.601   3.752 -0.0780  0.0690 -0.3891
15246TIP3    H267230   1.159   6.560   3.896  0.3237  1.2644  0.0398
15247TIP3   OH267231   1.159   0.862  11.452  0.7753 -0.5122 -0.3949
15247TIP3    H167232   1.131   0.938  11.502 -0.2591 -2.1434  1.6424
15247TIP3    H267233   1.191   0.800  11.517  0.0095 -2.4982 -1.7898
15248TIP3   OH267234   6.664   2.476   2.383  0.7925  0.4280  0.1938
15248TIP3    H167235   6.651   2.389   2.419 -0.5041  1.3276  2.0460
15248TIP3    H267236   6.709   2.461   2.299  0.6858 -1.9746  0.5027
15249TIP3   OH267237   1.793   0.887  16.175 -0.0210 -0.5156  0.0689
15249TIP3    H167238   1.767   0.810  16.225  1.8668 -0.7043  0.8040
15249TIP3    H267239   1.835   0.945  16.239 -0.2941  0.5916 -0.7126
15250TIP3   OH267240   3.627   0.762   4.264 -0.0801  0.2960 -0.2013
15250TIP3    H167241   3.564   0.830   4.243  0.6268  0.7179 -1.0062
15250TIP3    H267242   3.588   0.681   4.230 -0.1071  0.5806 -0.8647
15251TIP3   OH267243   5.838   4.766   4.316  0.5646  0.8172 -0.6586
15251TIP3    H167244   5.796   4.782   4.400  0.6887 -1.0657 -0.1863
15251TIP3    H267245   5.777   4.709   4.269  0.4195  1.9753 -1.9463
15252TIP3   OH267246   5.439   3.071   2.720  0.8411 -0.2867 -0.2786
15252TIP3    H167247   5.462   3.029   2.804 -2.0888  0.6633  1.1277
15252TIP3    H267248   5.344   3.063   2.715  0.8003  1.0299 -2.8402
15253TIP3   OH267249   2.969   3.666   0.982 -0.2101 -0.1703  0.8268
15253TIP3    H167250   2.910   3.724   1.031 -0.3829 -0.1119  0.5511
15253TIP3    H267251   3.016   3.617   1.049  0.8483  1.1799  1.1114
15254TIP3   OH267252   6.670   5.157  16.507 -0.1678  1.0301  0.4213
15254TIP3    H167253   6.610   5.230  16.523 -0.6335  0.4980  1.1416
15254TIP3    H267254   6.755   5.199  16.493 -0.6623  1.7828 -0.4920
15255TIP3   OH267255   5.464   3.122  15.551 -0.0691  0.1613 -0.1072
15255TIP3    H167256   5.517   3.053  15.592 -0.5949 -1.3215 -1.7883
15255TIP3    H267257   5.433   3.175  15.624  0.9777 -0.9401  1.1923
15256TIP3   OH267258   3.194   5.447  11.557  0.4749 -0.2114 -0.1619
15256TIP3    H167259   3.257   5.512  11.526 -1.1524  0.7678 -1.5811
15256TIP3    H267260   3.229   5.419  11.642  1.7116  1.8343  0.0802
15257TIP3   OH267261   2.849   0.513   0.499  0.1121  0.0310 -0.4186
15257TIP3    H167262   2.896   0.430   0.507  1.4675  0.6744 -1.3863
15257TIP3    H267263   2.777   0.494   0.439 -0.5656 -0.8123  0.6141
15258TIP3   OH267264   6.574   2.453  16.730  0.6422  0.5179  0.0141
15258TIP3    H167265   6.518   2.388  16.689  0.2645  1.9542 -1.8498
15258TIP3    H267266   6.516   2.525  16.752  1.5345  1.6047 -1.0250
15259TIP3   OH267267   2.389   4.475   0.867 -0.3265 -0.1396  0.1921
15259TIP3    H167268   2.434   4.520   0.795  0.9674 -1.7028 -0.0436
15259TIP3    H267269   2.297   4.471   0.839 -0.3864  1.7636 -0.0322
15260TIP3   OH267270   6.769   5.408   0.315 -0.1092 -0.1328 -0.1715
15260TIP3    H167271   6.787   5.322   0.355 -0.2511  0.0138  0.2143
15260TIP3    H267272   6.761   5.389   0.222  1.8805 -0.2266 -0.3646
15261TIP3   OH267273   3.008   1.459   3.209  0.0764 -0.6109 -0.0554
15261TIP3    H167274   3.004   1.525   3.139  0.3987  0.6651  1.0737
15261TIP3    H267275   3.095   1.420   3.200  0.8518  0.8466  0.7121
15262TIP3   OH267276   2.397   4.880  17.026 -0.1764  0.1358 -0.5486
15262TIP3    H167277   2.397   4.932  16.946 -1.5061 -0.1034 -0.7311
15262TIP3    H267278   2.375   4.943  17.095  0.1605  0.1868 -0.4876
15263TIP3   OH267279   3.212   4.955  10.849  0.2865  0.4461  0.2089
15263TIP3    H167280   3.302   4.930  10.828  0.1952  1.6228 -1.7398
15263TIP3    H267281   3.199   5.039  10.805 -2.2259 -0.3881 -0.7955
15264TIP3   OH267282   4.467   0.409  12.500  0.0215 -0.1619  0.0893
15264TIP3    H167283   4.410   0.445  12.568 -1.3936 -1.0180 -0.6042
15264TIP3    H267284   4.455   0.468  12.426 -0.5175 -0.7491 -0.2920
15265TIP3   OH267285   4.130   4.601   3.476 -0.5619 -0.3253  0.2598
15265TIP3    H167286   4.073   4.529   3.450  0.8539 -1.5306  0.3999
15265TIP3    H267287   4.197   4.605   3.408  1.8175 -1.9593  2.3243
15266TIP3   OH267288   4.312   5.712   3.684  0.3947  0.1140  0.1786
15266TIP3    H167289   4.307   5.655   3.608 -0.5633  0.8164 -0.2885
15266TIP3    H267290   4.237   5.687   3.738  1.1090 -0.4388  0.9659
15267TIP3   OH267291   1.518   3.566  15.400 -0.5988 -0.3291 -0.3221
15267TIP3    H167292   1.459   3.627  15.446 -0.0771  0.2140 -0.3560
15267TIP3    H267293   1.468   3.537  15.324 -0.8441  0.0881 -0.3222
15268TIP3   OH267294   3.703   1.866   5.352  0.3230  0.3494 -0.4946
15268TIP3    H167295   3.611   1.856   5.326  0.3841  0.3116 -0.7038
15268TIP3    H267296   3.751   1.857   5.270  0.5346  0.0727 -0.3433
15269TIP3   OH267297   3.103   2.871  12.753  0.4639  0.1142  0.3222
15269TIP3    H167298   3.191   2.834  12.754  0.2620 -0.5386  2.9615
15269TIP3    H267299   3.115   2.964  12.774  0.5163 -0.1535  1.5664
15270TIP3   OH267300   4.370   4.116  14.668 -0.2150  0.3825 -0.4800
15270TIP3    H167301   4.401   4.144  14.754  0.8419  0.3129 -0.8235
15270TIP3    H267302   4.281   4.085  14.684 -0.1167  0.5770  0.5486
15271TIP3   OH267303   0.594   3.283   2.319  0.5548 -0.2962  0.1515
15271TIP3    H167304   0.548   3.322   2.244  1.2721  0.0773 -0.1082
15271TIP3    H267305   0.669   3.238   2.280  0.0653 -1.4424  0.5098
15272TIP3   OH267306   6.734   5.307  13.737 -0.0483  0.0798 -0.0259
15272TIP3    H167307   6.708   5.388  13.694  1.6409  0.0265 -1.2585
15272TIP3    H267308   6.828   5.317  13.753 -0.0885 -1.0441  1.1820
15273TIP3   OH267309   6.140   2.458   3.336  0.2346  0.5481 -0.1844
15273TIP3    H167310   6.145   2.373   3.292 -0.6643  0.2245  0.3100
15273TIP3    H267311   6.062   2.499   3.300 -0.2503  0.4737  0.7362
15274TIP3   OH267312   6.223   2.643   1.559 -0.3636 -0.4142 -0.4295
15274TIP3    H167313   6.154   2.695   1.599 -1.6018 -0.7083 -2.0863
15274TIP3    H267314   6.300   2.700   1.558 -1.0816  0.5687 -0.1892
15275TIP3   OH267315   1.922   2.020  14.633 -0.0662  0.0943 -0.4565
15275TIP3    H167316   2.012   2.006  14.663  0.6433  0.2577 -2.3839
15275TIP3    H267317   1.903   2.111  14.654 -0.6960 -0.5439  2.1005
15276TIP3   OH267318   5.978   3.445   5.412 -0.2395 -0.5095  0.2850
15276TIP3    H167319   5.906   3.445   5.350  1.1561 -0.2897 -1.3978
15276TIP3    H267320   5.952   3.509   5.479 -1.5291 -0.3352 -0.3643
15277TIP3   OH267321   5.649   1.878   4.759 -0.6529 -0.0803  0.2627
15277TIP3    H167322   5.589   1.951   4.746  1.3545  1.6141 -0.0966
15277TIP3    H267323   5.621   1.812   4.695 -3.0847 -0.1117  1.2376
15278TIP3   OH267324   6.570   5.630   4.827  0.2138 -0.5348  0.4020
15278TIP3    H167325   6.654   5.621   4.782 -0.1434 -3.2778  0.1064
15278TIP3    H267326   6.587   5.694   4.896  2.5982 -1.1102  0.4565
15279TIP3   OH267327   0.732   3.818  15.195 -0.0036 -0.0582  0.1411
15279TIP3    H167328   0.793   3.838  15.125  0.8506 -0.1507  0.8399
15279TIP3    H267329   0.645   3.837  15.158  0.4928  0.8448 -0.6025
15280TIP3   OH267330   2.455   4.790  11.432  0.1656 -0.1668 -0.2938
15280TIP3    H167331   2.494   4.869  11.393  0.2964 -1.4207 -2.9624
15280TIP3    H267332   2.408   4.822  11.509  1.0372  2.3500 -0.6949
15281TIP3   OH267333   6.712   2.030  15.728  0.0269 -0.4730  0.0179
15281TIP3    H167334   6.653   2.096  15.692 -0.5218 -0.5913  0.6704
15281TIP3    H267335   6.794   2.076  15.744  0.0283 -0.2357 -0.6261
15282TIP3   OH267336   6.807   2.013   0.759  0.3325 -0.0136  0.2420
15282TIP3    H167337   6.755   1.958   0.700 -0.9657 -0.4593  1.7540
15282TIP3    H267338   6.891   2.022   0.714 -0.8151  0.2524 -1.9995
15283TIP3   OH267339   4.363   4.960  14.910 -0.1704  0.0043 -0.2214
15283TIP3    H167340   4.281   5.003  14.884 -0.5334  0.7759  1.9858
15283TIP3    H267341   4.408   5.026  14.963  0.4336 -1.4706  1.1656
15284TIP3   OH267342   3.300   0.341   0.277  0.0318  0.3181  0.7339
15284TIP3    H167343   3.359   0.309   0.208 -1.2300 -2.2517  0.7150
15284TIP3    H267344   3.232   0.389   0.229  0.0581 -0.0192  0.3510
15285TIP3   OH267345   4.121   3.881  12.466 -0.2377 -0.3720 -0.1009
15285TIP3    H167346   4.068   3.920  12.535  1.8823 -0.4309  1.6702
15285TIP3    H267347   4.111   3.940  12.391 -1.5554  0.4097  0.6523
15286TIP3   OH267348   1.663   3.381  15.521 -0.3380  0.1279  0.1455
15286TIP3    H167349   1.657   3.417  15.609  2.0683  2.0360 -0.3622
15286TIP3    H267350   1.636   3.453  15.464  1.2729  0.0407 -0.7845
15287TIP3   OH267351   3.787   6.011   0.510  0.4095  0.0092  0.2285
15287TIP3    H167352   3.781   5.946   0.440  0.6463 -0.1777  0.3817
15287TIP3    H267353   3.879   6.013   0.533  0.5620  1.0832 -0.4160
15288TIP3   OH267354   0.987   4.113  13.773  0.0957  0.0334  0.1273
15288TIP3    H167355   0.990   4.052  13.847  1.8711  0.0548  0.1236
15288TIP3    H267356   0.997   4.200  13.813  1.3352  0.0264 -0.1349
15289TIP3   OH267357   1.889   2.484  14.205 -0.3916 -0.6267 -0.0015
15289TIP3    H167358   1.960   2.546  14.227 -2.1049  1.6335 -0.4273
15289TIP3    H267359   1.819   2.505  14.266 -2.2106  0.1450 -2.2026
15290TIP3   OH267360   3.941   5.513  15.257  0.3414  0.2508 -1.0367
15290TIP3    H167361   3.896   5.523  15.173 -0.5938  1.3535 -0.4280
15290TIP3    H267362   3.873   5.528  15.322  1.1721 -0.0696 -0.0744
15291TIP3   OH267363   5.659   3.985  13.122  0.6179 -0.2109  0.6370
15291TIP3    H167364   5.603   4.015  13.193  0.6042  1.0906  0.1131
15291TIP3    H267365   5.600   3.935  13.065  0.4125 -0.4391  1.0474
15292TIP3   OH267366   3.941   5.658   0.612  0.4111  0.3396  0.0119
15292TIP3    H167367   3.863   5.639   0.560 -0.6312 -0.6560  1.8094
15292TIP3    H267368   3.985   5.573   0.620  0.3731  0.4005  0.9668
15293TIP3   OH267369   1.136   6.483  11.843  0.1662 -0.2184 -0.1363
15293TIP3    H167370   1.062   6.423  11.847 -0.4068  0.3340 -1.5248
15293TIP3    H267371   1.128   6.536  11.922 -1.9299  0.9095 -1.0009
15294TIP3   OH267372   3.078   6.119  15.246  0.4598  0.1343 -0.1466
15294TIP3    H167373   3.085   6.179  15.320  0.1514  0.4032 -0.3317
15294TIP3    H267374   3.152   6.060  15.256 -0.9110 -1.4106  1.7700
15295TIP3   OH267375   1.049   3.655   5.385 -0.1295  0.4327  0.3369
15295TIP3    H167376   0.997   3.587   5.429 -1.9961  1.2967 -0.4368
15295TIP3    H267377   1.140   3.634   5.408 -0.7351 -1.5976  1.1140
15296TIP3   OH267378   6.304   3.838   1.958  0.7552 -0.0702  0.1538
15296TIP3    H167379   6.357   3.780   1.902  1.5165  0.5013  0.2693
15296TIP3    H267380   6.300   3.921   1.909  2.4837  0.8514  1.4731
15297TIP3   OH267381   6.396   3.031  11.899 -0.0274  0.1857 -0.4835
15297TIP3    H167382   6.309   3.070  11.902 -0.4216 -0.7063  0.0042
15297TIP3    H267383   6.442   3.080  11.830 -0.4369  1.5999  0.2231
15298TIP3   OH267384   4.946   5.573   5.214 -0.1450  0.1584 -0.0949
15298TIP3    H167385   5.027   5.566   5.264  0.0874  0.9955 -0.3382
15298TIP3    H267386   4.882   5.522   5.264  0.5534 -0.5914  0.0387
15299TIP3   OH267387   6.072   0.714   0.840  0.5742  0.1970 -0.1581
15299TIP3    H167388   6.121   0.784   0.884 -0.3090  0.8812 -0.2475
15299TIP3    H267389   6.140   0.657   0.804  1.3066  0.3569  0.9299
15300TIP3   OH267390   3.790   4.100  15.365 -0.8889  0.1827  0.0960
15300TIP3    H167391   3.698   4.128  15.356 -1.5130 -2.1371 -1.6881
15300TIP3    H267392   3.810   4.058  15.282  1.6410  0.0653  0.6889
15301TIP3   OH267393   5.651   5.486  14.882  0.2322 -0.0287  0.2143
15301TIP3    H167394   5.738   5.523  14.872  0.6097 -1.1056 -0.7172
15301TIP3    H267395   5.666   5.395  14.909 -0.5939 -0.2711 -0.1004
15302TIP3   OH267396   5.824   4.631   2.996 -0.1708  0.6709 -0.6247
15302TIP3    H167397   5.739   4.612   3.036  0.4096 -2.0840 -0.5270
15302TIP3    H267398   5.849   4.549   2.954  1.8424  1.8337 -1.8345
15303TIP3   OH267399   0.197   3.735  12.500 -0.5854  0.6260 -0.4002
15303TIP3    H167400   0.157   3.809  12.454  2.5080  1.9462 -1.1744
15303TIP3    H267401   0.290   3.757  12.507  0.3105 -2.7313  0.2813
15304TIP3   OH267402   4.790   5.480  12.832 -0.2781  0.2434  0.2235
15304TIP3    H167403   4.739   5.552  12.869  0.5479  0.4966  0.9095
15304TIP3    H267404   4.873   5.521  12.806 -0.4324 -0.1501 -0.9163
15305TIP3   OH267405   4.259   0.457  16.507 -0.0172 -0.1651  0.2440
15305TIP3    H167406   4.247   0.364  16.489 -0.3960 -0.4904  2.0150
15305TIP3    H267407   4.353   0.472  16.492 -0.2221 -0.4536 -1.5254
15306TIP3   OH267408   0.669   0.821   0.484  0.1026 -0.4005 -0.3523
15306TIP3    H167409   0.680   0.905   0.439 -0.4680 -0.7764 -1.2070
15306TIP3    H267410   0.735   0.823   0.554  0.6730  0.4020 -0.8935
15307TIP3   OH267411   3.010   0.863  14.228 -0.0247 -0.2778  0.3788
15307TIP3    H167412   2.974   0.794  14.284  1.1865  0.5747  2.2936
15307TIP3    H267413   3.018   0.822  14.142  3.3821 -3.6150  1.9788
15308TIP3   OH267414   1.834   4.085  12.082 -0.1564  0.3973 -0.0375
15308TIP3    H167415   1.870   3.997  12.076  1.0198  0.8127  0.6762
15308TIP3    H267416   1.856   4.114  12.171 -0.9072  1.2524 -0.1133
15309TIP3   OH267417   1.108   4.897  12.973 -0.4157  0.2938  0.0228
15309TIP3    H167418   1.097   4.947  13.054  0.0127  0.5530 -0.0785
15309TIP3    H267419   1.202   4.898  12.957 -0.4862  0.1278 -0.4098
15310TIP3   OH267420   4.031   6.260   0.647  0.8478 -0.0425 -0.0371
15310TIP3    H167421   4.106   6.288   0.596  2.2118  0.3553  2.0496
15310TIP3    H267422   4.039   6.308   0.730 -0.8208 -1.1948  0.8559
15311TIP3   OH267423   6.270   2.160   6.315 -0.4927 -0.2094  0.3325
15311TIP3    H167424   6.288   2.142   6.407  0.1526  0.3002  0.3162
15311TIP3    H267425   6.280   2.255   6.307  0.9539 -0.3949 -0.5684
15312TIP3   OH267426   1.933   6.639  12.611  0.0459  0.1604  1.3429
15312TIP3    H167427   1.950   6.624  12.518 -0.7181 -2.2889  1.5142
15312TIP3    H267428   2.009   6.687  12.643  2.1957 -2.3135  0.2191
15313TIP3   OH267429   5.891   0.661  17.132  0.0119 -0.0445 -0.0004
15313TIP3    H167430   5.888   0.641  17.039  1.1757 -0.2101 -0.0064
15313TIP3    H267431   5.846   0.745  17.140  1.2404  0.7203 -0.9176
15314TIP3   OH267432   0.320   1.227  15.012  0.5587  0.0366 -0.6675
15314TIP3    H167433   0.383   1.234  15.084  0.2477  0.1042 -0.3948
15314TIP3    H267434   0.268   1.149  15.034 -1.0632  1.3515  0.4282
15315TIP3   OH267435   6.530   3.477   6.627 -0.4356  0.5112  0.2347
15315TIP3    H167436   6.610   3.526   6.607 -0.4672  0.9526  1.1771
15315TIP3    H267437   6.464   3.544   6.640 -1.0234  0.1418 -0.7445
15316TIP3   OH267438   5.306   2.896   4.618 -0.4710  0.4640 -0.1009
15316TIP3    H167439   5.385   2.937   4.583 -1.2610  2.4479  0.3103
15316TIP3    H267440   5.324   2.887   4.712 -0.2990 -0.1656 -0.1906
15317TIP3   OH267441   6.585   6.099   2.928 -0.0313 -0.3701  0.8288
15317TIP3    H167442   6.624   6.064   2.848  0.7126 -0.4768  1.2269
15317TIP3    H267443   6.564   6.021   2.980 -0.5663 -0.3040  0.7204
15318TIP3   OH267444   6.684   0.075  12.098  0.4887 -0.0356  0.5321
15318TIP3    H167445   6.761   0.054  12.151  1.6534  1.8193 -0.3300
15318TIP3    H267446   6.697   0.026  12.016 -0.3502 -1.3888  1.1787
15319TIP3   OH267447   2.933   6.447  13.972  0.0382  0.2687 -0.2096
15319TIP3    H167448   2.944   6.457  14.066 -1.3145  1.1060 -0.1143
15319TIP3    H267449   2.971   6.526  13.935  1.2678 -0.4055 -0.4535
15320TIP3   OH267450   4.636   5.470  14.393  0.2083 -0.4214 -0.0013
15320TIP3    H167451   4.677   5.473  14.480  1.0829  0.7494 -0.4340
15320TIP3    H267452   4.702   5.505  14.334 -1.4401  1.8116 -0.6893
15321TIP3   OH267453   2.642   4.201  15.202 -0.3110  0.3390  0.1370
15321TIP3    H167454   2.553   4.236  15.206 -0.0839  0.9382  0.0241
15321TIP3    H267455   2.688   4.243  15.274  0.3436  1.3865 -0.8512
15322TIP3   OH267456   4.159   4.013   2.743 -0.5202  0.4705 -0.3571
15322TIP3    H167457   4.184   3.997   2.652  0.5498 -2.0317  0.3200
15322TIP3    H267458   4.229   4.068   2.778 -1.4419  2.3114 -1.2417
15323TIP3   OH267459   0.084   4.353   3.583 -0.7941 -0.2390  0.4777
15323TIP3    H167460   0.050   4.442   3.583 -0.3229 -0.0493  1.1897
15323TIP3    H267461   0.114   4.339   3.672 -0.0838 -0.8051  0.1598
15324TIP3   OH267462   4.592   5.145   1.837 -0.1099 -0.0641 -0.2899
15324TIP3    H167463   4.499   5.162   1.854 -0.2650  0.6661 -1.7048
15324TIP3    H267464   4.592   5.066   1.783 -0.2389  1.8854 -3.3687
15325TIP3   OH267465   2.767   2.623  11.277 -0.3340  0.2776  0.3033
15325TIP3    H167466   2.840   2.619  11.215 -0.7907  0.2088 -0.2424
15325TIP3    H267467   2.782   2.702  11.328 -0.0020  0.3883  0.0324
15326TIP3   OH267468   0.156   4.259   6.300  0.5339  0.1391 -0.5019
15326TIP3    H167469   0.204   4.188   6.341  0.7136  0.7591  0.3850
15326TIP3    H267470   0.205   4.277   6.219  2.6683  1.6428  1.0020
15327TIP3   OH267471   4.301   2.438  13.008 -0.3043  0.0904 -0.1977
15327TIP3    H167472   4.217   2.484  13.007  0.4666  1.5490 -0.6063
15327TIP3    H267473   4.279   2.347  12.988 -1.7667  0.4752 -0.4574
15328TIP3   OH267474   1.444   6.508   4.973 -0.7981 -0.0317 -0.4482
15328TIP3    H167475   1.537   6.495   4.989 -0.8926  1.1843  1.5027
15328TIP3    H267476   1.415   6.429   4.927  1.3249 -0.0739 -1.8191
15329TIP3   OH267477   2.768   6.138   6.515 -0.7496 -0.3100 -0.0456
15329TIP3    H167478   2.712   6.182   6.579 -1.8642  0.1248 -1.2543
15329TIP3    H267479   2.708   6.082   6.466 -0.7393  1.9692 -2.9912
15330TIP3   OH267480   2.962   4.102   5.017  0.3034 -0.4314  0.2805
15330TIP3    H167481   3.002   4.018   4.997 -1.1271 -1.1807  0.4465
15330TIP3    H267482   2.935   4.138   4.932  0.4612 -0.3767  0.2537
15331TIP3   OH267483   5.266   4.007   2.116  0.4589 -0.1433 -0.1231
15331TIP3    H167484   5.308   3.956   2.185 -1.0354 -0.6808  0.4138
15331TIP3    H267485   5.213   4.071   2.163 -1.4944 -1.2554 -0.7107
15332TIP3   OH267486   1.129   1.383   5.006 -0.0644 -0.2866  0.0064
15332TIP3    H167487   1.105   1.451   4.943 -0.2452 -0.7192 -0.4003
15332TIP3    H267488   1.046   1.341   5.029  0.0674 -0.5036  0.0955
15333TIP3   OH267489   4.439   5.511   2.237 -0.3008  0.1416 -0.1262
15333TIP3    H167490   4.413   5.539   2.149 -2.4425 -2.1906 -0.3674
15333TIP3    H267491   4.397   5.574   2.295 -0.4224  0.6379 -0.7432
15334TIP3   OH267492   6.635   5.982   1.612 -0.5448  0.2891  0.2449
15334TIP3    H167493   6.631   5.904   1.667  0.2531  0.9097  1.2124
15334TIP3    H267494   6.578   5.962   1.538  0.7843 -1.7813 -0.2872
15335TIP3   OH267495   2.260   0.439  14.062  0.0343 -0.2176 -0.0094
15335TIP3    H167496   2.217   0.453  14.146 -1.4523 -0.6435 -0.6508
15335TIP3    H267497   2.353   0.438  14.082 -0.3356 -2.3889  1.9575
15336TIP3   OH267498   4.985   6.660  13.495 -0.3078  0.3108  0.4240
15336TIP3    H167499   5.058   6.719  13.514 -0.2103 -0.7937  4.3528
15336TIP3    H267500   4.923   6.713  13.446  2.6544  1.5302 -2.3568
15337TIP3   OH267501   3.158   1.281   2.373 -0.6327  0.2603  0.1074
15337TIP3    H167502   3.211   1.308   2.447 -0.5290 -0.4146  0.2878
15337TIP3    H267503   3.175   1.347   2.306 -2.1555  1.9616  1.2793
15338TIP3   OH267504   3.396   0.565  11.009  0.2167  0.0694 -0.0470
15338TIP3    H167505   3.486   0.541  11.027  0.2866 -1.0434 -1.6620
15338TIP3    H267506   3.401   0.655  10.976  0.7756 -0.0826 -0.3931
15339TIP3   OH267507   1.555   0.331   1.348 -0.6795 -0.5617  0.1149
15339TIP3    H167508   1.505   0.293   1.420  0.1144  1.2567  1.7075
15339TIP3    H267509   1.495   0.393   1.307 -0.8065 -0.8660 -0.1654
15340TIP3   OH267510   5.848   1.251   1.488  0.2910  0.2431  0.1265
15340TIP3    H167511   5.888   1.199   1.558 -0.0507 -2.2290 -1.4084
15340TIP3    H267512   5.921   1.272   1.430 -0.1075 -1.8594 -1.2154
15341TIP3   OH267513   6.195   3.712  14.654  0.0917  0.3428 -0.3567
15341TIP3    H167514   6.258   3.655  14.610 -0.7526 -1.0648  0.2019
15341TIP3    H267515   6.249   3.764  14.714  0.7896 -0.5239 -0.2070
15342TIP3   OH267516   0.802   6.766  13.973  0.0769  0.3307 -0.0857
15342TIP3    H167517   0.713   6.736  13.958  0.5236 -0.4156 -1.3813
15342TIP3    H267518   0.792   6.842  14.030 -1.4049  0.4261 -0.4283
15343TIP3   OH267519   3.797   0.053  15.920 -0.0697 -0.0973 -0.0352
15343TIP3    H167520   3.885   0.065  15.954 -0.2176 -1.8486  1.1232
15343TIP3    H267521   3.760   0.141  15.917  2.2073  0.8953 -2.1177
15344TIP3   OH267522   0.681   3.037   1.028 -0.3630 -0.3745 -0.6221
15344TIP3    H167523   0.667   2.943   1.018 -1.3899 -0.1766 -1.0976
15344TIP3    H267524   0.642   3.076   0.950  0.2866  0.4320 -0.5567
15345TIP3   OH267525   4.395   3.786  10.439  0.3276 -0.1246  0.1348
15345TIP3    H167526   4.350   3.724  10.382  0.2127  0.1579 -0.0880
15345TIP3    H267527   4.327   3.849  10.463  0.1042 -0.8300  1.4536
15346TIP3   OH267528   6.640   3.812   4.921 -0.3104 -0.1928 -0.4668
15346TIP3    H167529   6.583   3.735   4.917  0.3909 -0.7284 -0.4542
15346TIP3    H267530   6.667   3.827   4.831  0.3081 -0.5532 -0.3485
15347TIP3   OH267531   2.641   0.389  12.190 -0.2376 -0.5221  0.2149
15347TIP3    H167532   2.669   0.331  12.260  0.1514 -1.6273 -0.8281
15347TIP3    H267533   2.694   0.364  12.115  0.9214  2.0778  0.0251
15348TIP3   OH267534   3.496   1.431   2.983  0.3588 -0.1242 -0.2139
15348TIP3    H167535   3.552   1.507   2.999  1.0111 -0.7537  0.5825
15348TIP3    H267536   3.516   1.405   2.893 -1.0066  1.5416 -1.0651
15349TIP3   OH267537   6.267   0.518   0.739  0.3081  0.1436  0.0185
15349TIP3    H167538   6.309   0.459   0.801 -1.0142 -0.0593  0.7317
15349TIP3    H267539   6.331   0.589   0.728  1.5050 -0.9186 -0.1254
15350TIP3   OH267540   2.862   3.529   0.791  0.0983  0.0011 -0.5221
15350TIP3    H167541   2.877   3.444   0.833 -0.4883 -0.0643 -0.4447
15350TIP3    H267542   2.892   3.593   0.856  0.2400 -0.1356 -0.4513
15351TIP3   OH267543   2.356   0.599   0.112 -0.1427 -0.7666  0.3913
15351TIP3    H167544   2.450   0.616   0.111 -0.2793  0.0922 -0.4218
15351TIP3    H267545   2.348   0.507   0.137  1.0713 -1.6809 -2.1535
15352TIP3   OH267546   5.621   0.175  14.503 -0.2411 -0.4624 -0.0891
15352TIP3    H167547   5.542   0.121  14.497  0.2006 -1.3533  1.4794
15352TIP3    H267548   5.654   0.159  14.591 -0.2918  2.7420  0.6179
15353TIP3   OH267549   0.383   0.876  13.610 -0.8866  0.4494  0.4170
15353TIP3    H167550   0.302   0.825  13.607 -0.2104 -0.6643  0.7785
15353TIP3    H267551   0.447   0.823  13.564 -0.0499  0.7464  1.2065
15354TIP3   OH267552   0.009   0.818  11.298 -0.3702 -0.0453  0.1181
15354TIP3    H167553   0.060   0.890  11.334  0.2468 -0.1771 -0.4572
15354TIP3    H267554  -0.069   0.814  11.352  0.4358 -0.1215  1.3278
15355TIP3   OH267555   2.705   0.994   2.004 -0.2060  0.0255 -0.1657
15355TIP3    H167556   2.753   1.074   2.025 -0.7182  0.1948  0.4013
15355TIP3    H267557   2.771   0.926   2.000  0.2205  0.4482 -0.5234
15356TIP3   OH267558   4.423   0.106  15.146  0.4116 -0.1903  0.6639
15356TIP3    H167559   4.434   0.167  15.219  1.7770 -0.9503  1.1229
15356TIP3    H267560   4.328   0.105  15.130  0.2381  1.0888  1.4508
15357TIP3   OH267561   2.000   1.689   5.217  0.9631  0.6125  0.1107
15357TIP3    H167562   2.060   1.744   5.268  0.5567  1.0469  0.1235
15357TIP3    H267563   1.930   1.748   5.191  0.5561  0.1117  0.0648
15358TIP3   OH267564   6.824   3.722   3.817 -0.7778  0.4867 -0.2970
15358TIP3    H167565   6.779   3.639   3.804  1.2708 -0.6254 -0.6637
15358TIP3    H267566   6.855   3.748   3.730 -0.5657  1.1338 -0.0395
15359TIP3   OH267567   5.405   5.017   4.832 -0.1805 -0.4219  0.1029
15359TIP3    H167568   5.386   5.064   4.913 -0.8723 -2.3102  1.1001
15359TIP3    H267569   5.327   5.031   4.778  0.7555  1.8081 -0.7861
15360TIP3   OH267570   6.716   1.772   0.089 -0.3343  0.0817 -0.4316
15360TIP3    H167571   6.724   1.849   0.146  1.1013  0.7546 -1.4689
15360TIP3    H267572   6.694   1.809   0.003  2.0406 -0.4574 -1.3382
15361TIP3   OH267573   4.016   3.741  14.739  0.0353 -0.4390 -0.6584
15361TIP3    H167574   4.082   3.677  14.712 -0.1255 -0.4920 -0.9234
15361TIP3    H267575   3.967   3.760  14.660 -0.2448 -0.3674 -0.4699
15362TIP3   OH267576   0.590   6.659   4.296 -0.8921  0.0936  0.5181
15362TIP3    H167577   0.546   6.662   4.211  0.1699 -1.6102 -0.1344
15362TIP3    H267578   0.666   6.717   4.285  0.1600 -1.3540 -0.3103
15363TIP3   OH267579   3.585   2.906   3.424  0.0559  0.5693 -0.3712
15363TIP3    H167580   3.661   2.861   3.459  1.0276  0.9625 -1.8909
15363TIP3    H267581   3.620   2.969   3.361 -1.4220  1.8216 -0.0206
15364TIP3   OH267582   5.420   5.237  10.683 -0.3590  0.4228  0.3800
15364TIP3    H167583   5.389   5.183  10.610  1.3582 -4.4203  2.7958
15364TIP3    H267584   5.513   5.251  10.664  0.1733 -1.1363  1.6270
15365TIP3   OH267585   1.465   3.670   6.147  0.2448  0.2006  0.1410
15365TIP3    H167586   1.556   3.697   6.137  0.5355 -1.0215 -0.6683
15365TIP3    H267587   1.427   3.735   6.207  1.1917  1.7083 -0.8397
15366TIP3   OH267588   1.083   4.981   0.363  0.1926 -0.5660  0.3013
15366TIP3    H167589   1.023   4.915   0.398  0.6362 -2.0587 -1.5589
15366TIP3    H267590   1.170   4.942   0.372  0.5383  0.0760 -0.1801
15367TIP3   OH267591   2.266   0.175  12.977  0.0794  0.7505  0.4431
15367TIP3    H167592   2.261   0.094  13.028 -0.5161  0.5223  0.0321
15367TIP3    H267593   2.219   0.239  13.030 -2.1445  0.0778 -0.6082
15368TIP3   OH267594   3.459   0.611  12.762  0.2565 -0.3395 -0.4383
15368TIP3    H167595   3.526   0.661  12.715  0.5701  0.3901  0.7389
15368TIP3    H267596   3.449   0.531  12.711  2.2146 -0.5763 -0.5297
15369TIP3   OH267597   2.278   4.189   2.716  0.1647 -0.2805 -0.0155
15369TIP3    H167598   2.357   4.243   2.717  0.0289  0.1039 -2.8068
15369TIP3    H267599   2.208   4.248   2.689 -0.3715 -1.3674 -1.0870
15370TIP3   OH267600   3.192   1.952   4.910 -0.0832 -0.0135 -0.4753
15370TIP3    H167601   3.123   1.886   4.910 -0.9000  0.7468  1.7469
15370TIP3    H267602   3.273   1.903   4.924 -0.5982 -0.6352  0.4493
15371TIP3   OH267603   1.342   3.349  12.062  0.3848 -0.3091 -0.5060
15371TIP3    H167604   1.271   3.285  12.074 -0.4884  1.0871  2.4795
15371TIP3    H267605   1.322   3.390  11.977 -1.5075 -0.9994 -0.4511
15372TIP3   OH267606   3.966   6.581   1.786 -0.5911 -0.2688  0.6863
15372TIP3    H167607   3.976   6.486   1.792 -0.5283 -0.3564 -0.5800
15372TIP3    H267608   3.958   6.610   1.877  0.2823 -1.3899  1.1501
15373TIP3   OH267609   2.974   1.150  11.843  0.0297  0.1711  0.1120
15373TIP3    H167610   3.069   1.147  11.835  0.0806  2.2294 -0.9058
15373TIP3    H267611   2.942   1.133  11.754 -0.5358  0.1580  0.3101
15374TIP3   OH267612   1.915   4.873  14.458  0.4400  0.0606 -0.0955
15374TIP3    H167613   1.912   4.777  14.451  0.0763 -0.0954  1.8003
15374TIP3    H267614   1.996   4.897  14.412  0.4336 -1.1262 -0.7771
15375TIP3   OH267615   2.249   1.017  11.415  0.0368 -0.0859 -0.5417
15375TIP3    H167616   2.248   0.926  11.445  0.4862 -0.4345 -1.5351
15375TIP3    H267617   2.341   1.033  11.392 -0.4994 -0.3993 -3.2823
15376TIP3   OH267618   1.756   0.827   2.203  0.4126  0.5007 -0.3372
15376TIP3    H167619   1.725   0.747   2.161 -1.1994  1.0876 -0.3488
15376TIP3    H267620   1.821   0.863   2.143  1.0358 -0.6948 -0.4069
15377TIP3   OH267621   2.348   6.686   5.529  0.1483 -0.7888  0.3241
15377TIP3    H167622   2.412   6.638   5.475  0.7200 -0.2452  0.5127
15377TIP3    H267623   2.318   6.621   5.593  0.8971 -0.9129  0.5635
15378TIP3   OH267624   3.153   0.711  14.849  0.0449  0.3827 -0.2448
15378TIP3    H167625   3.236   0.664  14.842 -0.1440 -0.1243  0.6986
15378TIP3    H267626   3.173   0.799  14.818  1.0448  0.3793  0.3369
15379TIP3   OH267627   1.859   0.196  11.696  0.2620 -0.7402  0.6783
15379TIP3    H167628   1.786   0.258  11.697  0.3956 -0.5828  0.6891
15379TIP3    H267629   1.896   0.204  11.608  0.2972 -0.7862  0.6886
15380TIP3   OH267630   6.749   1.800   5.144  0.2461  0.4165  0.5728
15380TIP3    H167631   6.662   1.772   5.174  0.8626 -0.9397  1.1616
15380TIP3    H267632   6.802   1.804   5.224  1.4027 -1.3216 -0.0602
15381TIP3   OH267633   1.432   4.272  13.427 -0.5973 -0.4142  0.8157
15381TIP3    H167634   1.338   4.278  13.408 -0.8905 -1.3927  1.8146
15381TIP3    H267635   1.470   4.235  13.347 -1.2714 -1.2690  0.8730
15382TIP3   OH267636   4.315   4.791   5.085  0.4258  0.6117  0.4936
15382TIP3    H167637   4.339   4.850   5.014 -0.1781 -0.0757 -0.3047
15382TIP3    H267638   4.228   4.821   5.112 -0.3242 -0.4740 -0.5833
15383TIP3   OH267639   3.698   0.900  16.921 -0.5349 -0.6965 -0.5512
15383TIP3    H167640   3.749   0.846  16.982 -0.0533 -2.5372 -2.4467
15383TIP3    H267641   3.631   0.841  16.887 -0.7689  0.2512 -1.8102
15384TIP3   OH267642   0.317   2.923  15.426 -0.1990  0.0617  0.0512
15384TIP3    H167643   0.238   2.916  15.372  0.9500 -0.4452 -1.6713
15384TIP3    H267644   0.313   3.010  15.465 -0.6190  0.8519 -1.6650
15385TIP3   OH267645   2.177   0.048  16.622 -0.3841 -0.0458 -0.1398
15385TIP3    H167646   2.239  -0.020  16.596 -1.1029 -0.0725 -1.8888
15385TIP3    H267647   2.207   0.075  16.709  1.5537 -0.6487 -0.5654
15386TIP3   OH267648   3.327   2.534  13.405 -0.1394  0.0049 -0.3525
15386TIP3    H167649   3.238   2.544  13.371 -0.2666 -0.0614 -0.0391
15386TIP3    H267650   3.318   2.472  13.478  0.0690  0.4397  0.0463
15387TIP3   OH267651   1.185   4.592  11.834 -1.0236 -0.0709  0.0879
15387TIP3    H167652   1.181   4.538  11.755 -2.2605 -0.6217  0.5104
15387TIP3    H267653   1.267   4.568  11.876 -0.5270 -0.0337 -0.8376
15388TIP3   OH267654   2.516   4.682   3.166 -0.3946  0.3217 -0.6136
15388TIP3    H167655   2.429   4.682   3.127  0.7863  1.2548 -3.5407
15388TIP3    H267656   2.533   4.774   3.187 -0.0732  0.1527 -0.1116
15389TIP3   OH267657   0.869   6.072  13.181  0.3883  0.0100 -0.1650
15389TIP3    H167658   0.869   6.124  13.261  0.8946  0.2412 -0.3126
15389TIP3    H267659   0.927   6.119  13.121  1.4529 -1.0908 -0.0454
15390TIP3   OH267660   5.737   6.436  11.176 -0.0178 -0.0487 -0.4162
15390TIP3    H167661   5.823   6.448  11.136 -0.1861  0.3300 -0.6717
15390TIP3    H267662   5.683   6.400  11.106 -0.1989  0.2002 -0.4056
15391TIP3   OH267663   2.076   0.516   0.341  0.6867 -0.2420 -0.9593
15391TIP3    H167664   2.026   0.475   0.411  1.3906  0.0032 -0.2891
15391TIP3    H267665   2.087   0.447   0.275  0.6499 -0.7062 -0.4870
15392TIP3   OH267666   3.316   4.536   4.944  0.9282 -0.5273  0.6123
15392TIP3    H167667   3.258   4.531   4.868  1.1185 -1.5903  0.5216
15392TIP3    H267668   3.289   4.463   5.000  1.6594 -0.5633  0.9360
15393TIP3   OH267669   0.729   2.300  12.668  0.2481  0.1257 -0.2016
15393TIP3    H167670   0.801   2.273  12.724  1.0540  0.0878 -1.2148
15393TIP3    H267671   0.704   2.387  12.701 -0.2649 -0.4970  1.0952
15394TIP3   OH267672   0.989   6.095   3.146 -0.0117  0.4424 -0.5728
15394TIP3    H167673   1.049   6.024   3.127  0.3157  0.0535  1.5929
15394TIP3    H267674   0.905   6.067   3.109  0.4996 -0.2956 -1.1835
15395TIP3   OH267675   0.624   1.443  12.722  0.3323  0.5460 -0.3172
15395TIP3    H167676   0.635   1.534  12.749 -0.4831  0.4191  0.4830
15395TIP3    H267677   0.649   1.442  12.630  2.9898  1.0626  0.2855
15396TIP3   OH267678   2.525   0.764   3.566 -0.1148 -0.1731 -0.2419
15396TIP3    H167679   2.613   0.796   3.545  0.6144 -2.3412 -0.8475
15396TIP3    H267680   2.476   0.842   3.590  1.2853  1.4613 -2.2850
15397TIP3   OH267681   5.965   0.994   4.319  0.4660  0.4954 -0.3085
15397TIP3    H167682   6.008   1.055   4.379 -1.6182 -0.5007  2.4432
15397TIP3    H267683   6.006   0.910   4.336 -0.5228  0.0976  0.2000
15398TIP3   OH267684   1.172   5.942   6.166  0.3707 -0.1735  0.6995
15398TIP3    H167685   1.247   5.934   6.225 -0.0143  1.2852  1.4255
15398TIP3    H267686   1.108   5.879   6.200 -0.0020  0.9218  2.1266
15399TIP3   OH267687   0.353   2.631  10.663  0.5148  0.9635  0.0135
15399TIP3    H167688   0.278   2.619  10.605  0.3436  0.0628  0.4029
15399TIP3    H267689   0.425   2.655  10.605  0.5689 -0.8111 -0.7151
15400TIP3   OH267690   5.983   2.027  15.616  0.2117  0.2510 -0.3189
15400TIP3    H167691   6.037   1.970  15.671  0.1436 -0.7708 -1.2726
15400TIP3    H267692   5.897   2.026  15.657  0.0485 -0.8535 -0.6589
15401TIP3   OH267693   2.268   2.465   5.096 -0.2941  0.0187 -0.2742
15401TIP3    H167694   2.278   2.471   5.191  0.6679 -1.3444 -0.2692
15401TIP3    H267695   2.173   2.472   5.082 -0.6109 -1.3490  0.9318
15402TIP3   OH267696   5.680   4.072   1.166  0.2829 -0.1264 -0.2031
15402TIP3    H167697   5.628   4.140   1.210  1.3583  0.0556  0.8168
15402TIP3    H267698   5.748   4.120   1.120  1.4899 -0.5281  1.1152
15403TIP3   OH267699   4.379   6.567  14.620  0.6140 -0.1825  0.2659
15403TIP3    H167700   4.292   6.528  14.616  0.8560 -0.7075  0.0627
15403TIP3    H267701   4.382   6.612  14.704 -0.0060  0.2087  0.0825
15404TIP3   OH267702   4.385   4.662   3.297  0.1557  0.4551  0.2334
15404TIP3    H167703   4.369   4.678   3.204  0.1991  1.5431  0.3984
15404TIP3    H267704   4.464   4.608   3.299 -0.7552 -0.9369 -0.4066
15405TIP3   OH267705   0.548   6.224  13.009 -0.1592 -0.0132 -0.2584
15405TIP3    H167706   0.457   6.226  12.979 -0.3885  1.1067  0.4585
15405TIP3    H267707   0.597   6.188  12.935 -1.0802  0.0795 -0.9330
15406TIP3   OH267708   3.414   0.289  13.458  0.6015 -0.5620  0.2688
15406TIP3    H167709   3.447   0.373  13.425 -0.0890 -0.5392 -0.4015
15406TIP3    H267710   3.344   0.313  13.518 -1.0042 -0.6431 -1.4571
15407TIP3   OH267711   3.693   3.403   2.074  0.4049 -0.0001  0.7202
15407TIP3    H167712   3.676   3.327   2.129  0.9209  0.2178  1.1945
15407TIP3    H267713   3.765   3.376   2.018  0.5470  0.1147  0.8458
15408TIP3   OH267714   5.589   0.286   2.706 -0.7715  0.3975  0.0704
15408TIP3    H167715   5.649   0.354   2.675 -2.4150  1.5057 -0.8052
15408TIP3    H267716   5.529   0.332   2.764 -1.2325 -0.5505  0.3577
15409TIP3   OH267717   1.906   6.449  13.308  0.0127  0.4683 -0.0801
15409TIP3    H167718   1.974   6.506  13.273 -0.2559 -0.1174 -1.6652
15409TIP3    H267719   1.914   6.369  13.256 -1.1163 -0.0566  0.5270
15410TIP3   OH267720   6.352   2.656  13.390 -0.4161  0.4493  0.1994
15410TIP3    H167721   6.277   2.625  13.441 -0.6757  1.4301  0.4334
15410TIP3    H267722   6.428   2.636  13.445 -0.2953 -2.1189 -0.7734
15411TIP3   OH267723   4.776   1.688  12.739 -0.6651 -0.5013 -0.1986
15411TIP3    H167724   4.771   1.647  12.825  1.4592 -0.0678  0.1967
15411TIP3    H267725   4.740   1.623  12.679 -2.7222 -0.5833  1.0465
15412TIP3   OH267726   2.414   1.448  11.793  0.7274 -0.2599 -0.7909
15412TIP3    H167727   2.423   1.500  11.713 -2.5875  1.4478 -0.2426
15412TIP3    H267728   2.397   1.513  11.862 -0.4082 -1.8744  0.5318
15413TIP3   OH267729   4.484   6.170   4.895  0.4967 -0.6005  0.0359
15413TIP3    H167730   4.432   6.248   4.876  0.8918 -0.1548  0.7602
15413TIP3    H267731   4.431   6.098   4.861  0.7344  0.0575 -1.8902
15414TIP3   OH267732   2.277   0.558  15.795  0.4319  0.2402 -0.2474
15414TIP3    H167733   2.290   0.633  15.853  0.1071 -0.0049  0.1476
15414TIP3    H267734   2.227   0.495  15.847 -1.2472  0.6490 -1.2660
15415TIP3   OH267735   5.766   3.545  15.337  0.2350  0.3739 -0.6508
15415TIP3    H167736   5.708   3.527  15.411  1.0735 -0.0298 -0.0794
15415TIP3    H267737   5.799   3.459  15.311 -0.5470  0.4444 -1.9148
15416TIP3   OH267738   4.036   5.992   3.380  0.0731 -0.1591 -0.0772
15416TIP3    H167739   4.096   5.924   3.350 -1.1998 -0.4702 -2.1082
15416TIP3    H267740   3.963   5.989   3.318 -2.1996  0.0328  2.3857
15417TIP3   OH267741   1.321   5.964   4.018 -0.3002 -0.0266  0.2863
15417TIP3    H167742   1.266   5.890   3.994  1.7219 -1.0088 -1.6786
15417TIP3    H267743   1.397   5.924   4.061  0.9666  0.8262 -1.0787
15418TIP3   OH267744   2.473   3.866   3.201 -0.2304  0.3550  0.1043
15418TIP3    H167745   2.398   3.812   3.225 -1.1154  1.6733  0.4317
15418TIP3    H267746   2.435   3.951   3.179  1.0821  0.7593 -0.7302
15419TIP3   OH267747   6.810   3.071   3.439  0.0177 -0.5092 -0.2330
15419TIP3    H167748   6.800   3.093   3.531 -1.4946 -0.6916 -0.3272
15419TIP3    H267749   6.758   2.992   3.428  1.8093 -1.6836 -0.8350
15420TIP3   OH267750   6.129   0.996  16.487  0.4176  0.2290  0.0026
15420TIP3    H167751   6.144   0.988  16.581 -0.9724 -0.7497  0.1784
15420TIP3    H267752   6.113   0.906  16.458  0.1627  0.6006 -1.0553
15421TIP3   OH267753   5.532   1.635   4.056  0.3526 -0.6199  0.0436
15421TIP3    H167754   5.612   1.688   4.056 -0.2716  0.3588 -0.3879
15421TIP3    H267755   5.560   1.548   4.028  0.9713  0.2125 -2.1321
15422TIP3   OH267756   5.519   2.912   3.099 -0.2605  0.4319  0.5744
15422TIP3    H167757   5.464   2.834   3.100 -1.3540  1.1682  0.7454
15422TIP3    H267758   5.574   2.902   3.021 -2.1095  0.6086 -0.8206
15423TIP3   OH267759   6.700   2.953   6.566  0.0021 -0.2334  0.1771
15423TIP3    H167760   6.649   3.032   6.547  0.2665 -0.3472 -1.0803
15423TIP3    H267761   6.733   2.967   6.655 -0.2147  0.9291  0.0913
15424TIP3   OH267762   1.824   0.339   1.414 -0.2676  0.3202  0.3808
15424TIP3    H167763   1.826   0.252   1.453 -0.4804 -0.0891 -0.4867
15424TIP3    H267764   1.730   0.359   1.408 -0.2242  0.5274  0.4102
15425TIP3   OH267765   1.137   5.328  16.963 -0.1353 -0.0258  0.5391
15425TIP3    H167766   1.048   5.294  16.961 -0.0849 -0.1643 -0.9306
15425TIP3    H267767   1.145   5.371  17.048 -1.4318 -0.4385  0.8952
15426TIP3   OH267768   3.404   2.507  17.119 -0.2296  0.2882  0.0005
15426TIP3    H167769   3.491   2.524  17.155 -0.6167 -1.2459  1.7906
15426TIP3    H267770   3.415   2.428  17.065 -0.5751 -0.1652  0.5810
15427TIP3   OH267771   0.473   3.110  13.154 -0.1565  0.5545  0.0001
15427TIP3    H167772   0.530   3.082  13.225  0.0351 -0.8017 -0.6553
15427TIP3    H267773   0.395   3.055  13.162 -0.0318  0.2175 -0.9613
15428TIP3   OH267774   0.020   5.510  12.924 -0.5596 -0.4188 -0.8035
15428TIP3    H167775   0.029   5.466  13.008  0.8517 -0.7952 -1.1290
15428TIP3    H267776  -0.074   5.530  12.917 -0.7055 -0.4489  0.8074
15429TIP3   OH267777   6.013   3.812   3.594  0.2554 -0.4135 -0.4498
15429TIP3    H167778   6.073   3.810   3.668  1.5986  1.8143 -1.3758
15429TIP3    H267779   5.926   3.821   3.633  0.7631 -0.8701  0.8481
15430TIP3   OH267780   3.847   6.731  16.588 -1.0536 -0.4982  0.1922
15430TIP3    H167781   3.807   6.797  16.645 -1.7709  0.5351 -1.4153
15430TIP3    H267782   3.805   6.745  16.503  0.6995 -1.2927 -0.8541
15431TIP3   OH267783   0.631   3.173   5.547 -1.2446 -0.5790 -0.0979
15431TIP3    H167784   0.543   3.162   5.509 -1.2907 -0.7741  0.0664
15431TIP3    H267785   0.615   3.212   5.633 -1.1015  0.5257 -0.5569
15432TIP3   OH267786   0.729   1.645  16.846  0.4448 -0.0280  0.0092
15432TIP3    H167787   0.671   1.569  16.852 -0.4676  0.6550  0.0901
15432TIP3    H267788   0.773   1.635  16.762  1.2655 -1.2850  0.5621
15433TIP3   OH267789   2.985   4.446  16.258  0.3376  0.1685  0.0087
15433TIP3    H167790   2.968   4.463  16.351 -1.4946 -0.7932 -0.0988
15433TIP3    H267791   2.950   4.523  16.213  2.4254  1.2642  0.1328
15434TIP3   OH267792   0.290   5.512  10.722  0.0491 -0.0884  0.5051
15434TIP3    H167793   0.285   5.536  10.629  0.2862  2.0743  1.0001
15434TIP3    H267794   0.199   5.507  10.750 -0.0072  0.0817  0.3539
15435TIP3   OH267795   3.041   1.669   0.638 -0.1149 -0.4160 -0.6180
15435TIP3    H167796   3.003   1.733   0.578 -1.3684 -0.4406  0.1072
15435TIP3    H267797   3.019   1.584   0.600 -1.8098 -0.4586  0.3258
15436TIP3   OH267798   4.777   0.672   0.150  0.2809  0.0302  0.4095
15436TIP3    H167799   4.749   0.703   0.064  0.3665  0.0095  0.3737
15436TIP3    H267800   4.822   0.590   0.132 -1.5387 -1.0872  0.6812
15437TIP3   OH267801   3.342   4.088   0.331 -0.4601 -0.2106 -0.4028
15437TIP3    H167802   3.305   4.111   0.246 -1.1283 -1.7213 -0.5582
15437TIP3    H267803   3.280   4.121   0.395 -1.1275 -1.0299 -0.6024
15438TIP3   OH267804   3.112   3.026   0.331  0.2397  0.0573 -0.2938
15438TIP3    H167805   3.058   2.960   0.287 -0.0855 -0.5255  0.9105
15438TIP3    H267806   3.199   3.015   0.295 -0.1672  0.1155 -1.3190
15439TIP3   OH267807   4.695   2.373   3.677 -0.1949 -0.3388  0.4458
15439TIP3    H167808   4.787   2.364   3.702 -0.3063  1.4044  1.6361
15439TIP3    H267809   4.647   2.360   3.759 -0.8045  1.6714  0.4577
15440TIP3   OH267810   1.002   2.825   3.546 -0.1809  0.3800  0.0912
15440TIP3    H167811   0.986   2.742   3.592 -1.0795  0.4959  0.0110
15440TIP3    H267812   1.018   2.799   3.455  0.3126  0.2451  0.2118
15441TIP3   OH267813   0.236   0.838   5.029  0.0516 -0.3147 -0.2464
15441TIP3    H167814   0.192   0.808   5.108  2.9200 -1.5160  1.0681
15441TIP3    H267815   0.177   0.902   4.990 -2.6730 -1.6805  1.3695
15442TIP3   OH267816   4.150   0.894   0.392 -0.1461 -0.6376 -0.5764
15442TIP3    H167817   4.183   0.890   0.482 -1.7582 -1.6737  0.0107
15442TIP3    H267818   4.059   0.924   0.401 -0.0547  0.1289 -1.9501
15443TIP3   OH267819   0.234   0.151   4.724  0.0354 -0.6512 -0.7398
15443TIP3    H167820   0.299   0.138   4.793 -2.3353 -3.5859  1.1548
15443TIP3    H267821   0.261   0.093   4.654  0.2522 -0.7257 -0.5950
15444TIP3   OH267822   5.774   2.102  16.785  0.1057  0.1779 -0.2714
15444TIP3    H167823   5.818   2.018  16.768 -0.4177 -0.4410  1.2725
15444TIP3    H267824   5.696   2.078  16.835 -0.3336  1.5573 -0.2701
15445TIP3   OH267825   2.753   5.708   1.427  0.6134 -0.3941 -0.6836
15445TIP3    H167826   2.799   5.788   1.450 -0.6149 -0.0734  0.8734
15445TIP3    H267827   2.819   5.639   1.435  0.8187  0.0038  1.8025
15446TIP3   OH267828   4.738   2.025  12.559  0.0408  0.0705 -0.4618
15446TIP3    H167829   4.818   2.077  12.565  0.2855 -0.4174  0.7708
15446TIP3    H267830   4.707   2.018  12.649  0.4576 -2.5879 -0.4564
15447TIP3   OH267831   5.528   5.037  12.103 -0.6269  0.2053 -0.3054
15447TIP3    H167832   5.502   4.966  12.161  1.5271  0.0647  0.5755
15447TIP3    H267833   5.491   5.116  12.143  1.2300  0.1730  1.6159
15448TIP3   OH267834   4.812   5.622  14.248  0.1200 -0.3215  0.4648
15448TIP3    H167835   4.856   5.681  14.309 -1.4512  2.1600 -0.6408
15448TIP3    H267836   4.878   5.604  14.181  0.5700  0.3860  0.7028
15449TIP3   OH267837   3.758   2.079  11.444  0.1762 -0.0653 -0.2610
15449TIP3    H167838   3.705   2.105  11.519  0.5231  0.6055 -0.2448
15449TIP3    H267839   3.848   2.083  11.476  0.2342 -1.9814 -0.0374
15450TIP3   OH267840   2.268   0.361  14.816 -0.5119 -0.9202  0.2950
15450TIP3    H167841   2.220   0.384  14.895  1.5254  4.2200  0.3904
15450TIP3    H267842   2.357   0.341  14.846  0.3989  1.5000 -0.5511
15451TIP3   OH267843   0.767   3.129  16.767 -0.1301 -0.0096  0.3906
15451TIP3    H167844   0.824   3.160  16.697 -3.1048  2.6571 -1.0922
15451TIP3    H267845   0.735   3.209  16.809 -2.3515 -1.3534  1.4448
15452TIP3   OH267846   3.785   4.470   0.464 -0.2268  0.3229  0.0212
15452TIP3    H167847   3.798   4.495   0.372  1.0945  2.3712  0.7118
15452TIP3    H267848   3.712   4.524   0.494  2.2487  3.2393  1.3477
15453TIP3   OH267849   6.702   3.756  15.458  0.2734 -0.1071  0.0277
15453TIP3    H167850   6.708   3.700  15.380  0.4057  1.1609 -0.9090
15453TIP3    H267851   6.657   3.834  15.427  0.6245  0.5507  1.1603
15454TIP3   OH267852   1.872   1.834   6.177  0.3031 -0.4833  0.2823
15454TIP3    H167853   1.889   1.784   6.257 -0.3219  0.0221  0.7403
15454TIP3    H267854   1.800   1.892   6.199  2.0392  1.8137  0.2806
15455TIP3   OH267855   3.043   1.191  13.950 -0.1920 -0.5464  0.9528
15455TIP3    H167856   3.027   1.279  13.917 -0.8291 -1.0678 -0.1683
15455TIP3    H267857   2.975   1.137  13.910  2.4452 -2.3111 -1.5587
15456TIP3   OH267858   6.099   4.830   0.761 -0.9271 -0.2016 -0.5107
15456TIP3    H167859   6.147   4.752   0.733 -2.0875 -1.2055  0.1873
15456TIP3    H267860   6.158   4.872   0.824 -0.6116 -0.9789 -0.2595
15457TIP3   OH267861   5.112   3.537  16.435 -0.1440  0.6069  0.0157
15457TIP3    H167862   5.056   3.575  16.366  1.8388  0.8934 -1.5440
15457TIP3    H267863   5.197   3.526  16.393  1.6834  2.3646  2.8941
15458TIP3   OH267864   2.925   6.661   2.105 -0.0922 -0.3548 -0.0153
15458TIP3    H167865   2.955   6.721   2.036 -2.2970  0.2128 -0.5960
15458TIP3    H267866   2.921   6.715   2.184 -1.2225  0.0927 -0.3442
15459TIP3   OH267867   2.061   4.031  15.716  0.4239 -0.9646 -0.0479
15459TIP3    H167868   2.050   4.018  15.810 -0.8702  3.0006  0.5552
15459TIP3    H267869   2.023   3.952  15.676 -3.1778 -0.9392  2.7423
15460TIP3   OH267870   5.314   4.961   2.409 -0.1738  0.9234  0.6384
15460TIP3    H167871   5.231   5.007   2.399  0.9792  2.7396 -1.6933
15460TIP3    H267872   5.292   4.869   2.388 -1.6082  1.3447  0.1203
15461TIP3   OH267873   4.513   5.160   4.770  0.1689 -0.5010  0.0041
15461TIP3    H167874   4.582   5.225   4.781 -0.1913 -0.0834 -0.1881
15461TIP3    H267875   4.458   5.195   4.700 -0.0229 -1.0160 -0.1046
15462TIP3   OH267876   5.110   4.792   3.513  0.5628 -0.3865  0.0377
15462TIP3    H167877   5.201   4.771   3.533  1.1308  2.2800  0.6721
15462TIP3    H267878   5.065   4.786   3.597 -0.0351 -2.2439 -0.3659
15463TIP3   OH267879   2.957   5.924   2.005  0.3493 -0.3566  0.2722
15463TIP3    H167880   2.996   6.002   1.964  0.2024 -0.7678 -0.6919
15463TIP3    H267881   3.027   5.886   2.057 -0.6624  2.7566  4.4000
15464TIP3   OH267882   6.630   2.691   0.266 -0.0176 -0.1398  0.1863
15464TIP3    H167883   6.634   2.751   0.191  1.2680  0.1687  0.4625
15464TIP3    H267884   6.722   2.675   0.288 -0.3659 -0.0264  1.8474
15465TIP3   OH267885   1.195   5.924  15.044  0.2293 -0.8389 -0.1760
15465TIP3    H167886   1.190   5.881  15.129  0.0959 -0.2850  0.0971
15465TIP3    H267887   1.267   5.987  15.052 -0.7372  0.2664  0.0128
15466TIP3   OH267888   5.114   1.542  13.105 -0.1259  0.2788  0.2645
15466TIP3    H167889   5.194   1.490  13.112 -0.5823 -0.5267 -0.3325
15466TIP3    H267890   5.052   1.498  13.163 -0.6604 -0.1539 -0.6011
15467TIP3   OH267891   1.421   3.247   1.982  0.1684  0.1256  0.6059
15467TIP3    H167892   1.371   3.181   2.028  0.2138  0.0080  0.4863
15467TIP3    H267893   1.433   3.317   2.046  1.1391 -0.4860  1.1140
15468TIP3   OH267894   6.838   3.277   3.267  0.1438  0.0820  0.1302
15468TIP3    H167895   6.831   3.193   3.313  3.2080 -0.6266 -0.4653
15468TIP3    H267896   6.759   3.281   3.213 -1.6475 -0.8646  2.4994
15469TIP3   OH267897   2.654   5.030  15.335  0.0810 -0.3402  0.5037
15469TIP3    H167898   2.655   4.954  15.393 -0.2302  0.2262  1.2560
15469TIP3    H267899   2.568   5.026  15.293  0.0526 -0.3869  0.5659
15470TIP3   OH267900   5.527   2.700   1.989 -0.3202 -0.3390  0.5140
15470TIP3    H167901   5.442   2.745   1.986  0.1853  0.6334  0.3822
15470TIP3    H267902   5.587   2.761   1.947  0.6119 -0.6700  1.3456
15471TIP3   OH267903   6.284   4.470  13.163 -0.5331  0.0277 -0.4483
15471TIP3    H167904   6.369   4.507  13.188  0.5735 -0.0415 -3.6146
15471TIP3    H267905   6.226   4.491  13.237  2.7994 -2.5557  3.2971
15472TIP3   OH267906   4.115   4.903   3.401  0.0271  0.0193 -0.3516
15472TIP3    H167907   4.135   4.820   3.444 -0.7709  0.4761  0.9504
15472TIP3    H267908   4.029   4.890   3.363 -0.8816  0.7788  1.3543
15473TIP3   OH267909   6.481   2.731   4.309 -0.2982 -0.0169 -0.6502
15473TIP3    H167910   6.399   2.726   4.359 -0.6793 -0.2674 -1.2911
15473TIP3    H267911   6.522   2.812   4.340  0.2222 -0.9067  1.1712
15474TIP3   OH267912   1.816   1.313   2.675 -0.4394 -0.3220 -0.0855
15474TIP3    H167913   1.776   1.373   2.738  0.1348  1.0107 -0.9388
15474TIP3    H267914   1.743   1.263   2.639 -0.8550 -0.6087  1.1179
15475TIP3   OH267915   6.481   2.467   0.215  0.2539  0.4435 -0.7226
15475TIP3    H167916   6.556   2.446   0.271  0.9219  0.2217 -1.6856
15475TIP3    H267917   6.464   2.560   0.233  0.1097  0.2508  0.2332
15476TIP3   OH267918   1.338   0.239  13.027 -1.1577  0.0512 -0.2136
15476TIP3    H167919   1.390   0.178  12.975 -1.7224 -0.3186 -0.3551
15476TIP3    H267920   1.341   0.203  13.116 -2.5503 -0.9313 -0.5254
15477TIP3   OH267921   5.590   0.988  12.685 -0.0305 -0.5015 -0.6191
15477TIP3    H167922   5.498   0.974  12.710  0.2639 -1.1410  0.1472
15477TIP3    H267923   5.586   1.059  12.621 -1.1417 -1.0588 -1.2041
15478TIP3   OH267924   0.853   5.832  13.308 -0.0345 -0.2515  0.3472
15478TIP3    H167925   0.811   5.836  13.394  1.9755 -0.3149  1.4109
15478TIP3    H267926   0.841   5.920  13.272  1.3283  0.6225  1.8821
15479TIP3   OH267927   3.925   4.684  12.107 -0.1999 -0.0894 -0.4818
15479TIP3    H167928   4.001   4.700  12.051 -0.1920  1.1649 -0.1359
15479TIP3    H267929   3.962   4.661  12.192 -0.2175 -1.1672 -0.7503
15480TIP3   OH267930   4.586   0.271  16.582 -0.1260 -0.1093 -0.2435
15480TIP3    H167931   4.672   0.243  16.616 -0.4297  0.0345  0.6504
15480TIP3    H267932   4.523   0.242  16.648 -0.9509 -1.6257 -1.6223
15481TIP3   OH267933   3.072   3.979   0.652  0.0411 -0.5042  0.0074
15481TIP3    H167934   3.025   3.956   0.572  1.5084  0.9345 -1.3740
15481TIP3    H267935   3.123   3.901   0.673 -1.2989 -1.3204  0.2657
15482TIP3   OH267936   2.047   1.316  14.830 -0.1285  0.0302 -0.5514
15482TIP3    H167937   1.961   1.351  14.808  0.1355 -0.0578 -1.8160
15482TIP3    H267938   2.030   1.226  14.856 -0.6952  0.7498  1.7460
15483TIP3   OH267939   5.759   0.162   4.265 -0.0132 -0.5870 -1.0537
15483TIP3    H167940   5.845   0.198   4.286 -0.2830 -0.8250  0.5863
15483TIP3    H267941   5.707   0.237   4.237 -0.0304  0.0076  0.5209
15484TIP3   OH267942   2.526   4.782  12.379  0.2430 -0.0676 -0.0321
15484TIP3    H167943   2.606   4.731  12.368  0.4151 -0.0461  0.9920
15484TIP3    H267944   2.540   4.861  12.327  1.3994  0.4906  1.0721
15485TIP3   OH267945   2.703   2.823   3.379 -0.5552  0.1085  0.1932
15485TIP3    H167946   2.651   2.902   3.395  0.8369  0.7009  2.1385
15485TIP3    H267947   2.736   2.798   3.465 -0.4646 -2.2848 -0.4673
15486TIP3   OH267948   3.141   0.562   1.907 -0.2506 -0.7140 -0.7239
15486TIP3    H167949   3.108   0.521   1.827  0.7116 -1.4003 -0.7890
15486TIP3    H267950   3.074   0.544   1.973 -1.4703  0.5948 -1.5466
15487TIP3   OH267951   4.298   6.426  15.837 -0.1077 -0.2674  0.4341
15487TIP3    H167952   4.298   6.403  15.744 -2.4825  0.8588  0.0967
15487TIP3    H267953   4.338   6.350  15.881  1.2315 -0.7309 -1.4849
15488TIP3   OH267954   4.174   4.885  10.647 -0.5661 -0.6843  0.3016
15488TIP3    H167955   4.233   4.951  10.684  0.2799  0.1478 -2.2797
15488TIP3    H267956   4.086   4.923  10.657 -0.1753  0.4263 -0.2735
15489TIP3   OH267957   2.874   0.785   1.991  0.3267  0.5131  0.0842
15489TIP3    H167958   2.842   0.789   1.901  1.0760 -0.1707 -0.2214
15489TIP3    H267959   2.968   0.768   1.982  0.5211  1.0597  0.9862
15490TIP3   OH267960   1.726   5.389   5.853 -0.6607 -0.2732 -0.4151
15490TIP3    H167961   1.720   5.415   5.946 -1.0207  1.1348 -0.8015
15490TIP3    H267962   1.778   5.309   5.854 -1.3566 -0.7464  1.0825
15491TIP3   OH267963   4.450   2.474   1.174  0.0679 -0.0161  0.7448
15491TIP3    H167964   4.495   2.389   1.178 -2.3852 -1.4355  0.3191
15491TIP3    H267965   4.437   2.489   1.080 -0.4786  0.2605  0.8636
15492TIP3   OH267966   4.826   1.169   5.292  0.4540  0.2032  0.2433
15492TIP3    H167967   4.861   1.208   5.212  0.9396 -0.8210 -0.0622
15492TIP3    H267968   4.750   1.223   5.314  0.0394  0.2341 -1.1652
15493TIP3   OH267969   3.117   3.496   1.883  0.1793  0.7131  0.2778
15493TIP3    H167970   3.069   3.516   1.964  1.2927  1.0572  0.8847
15493TIP3    H267971   3.192   3.445   1.913  0.3882  0.5070 -0.5997
15494TIP3   OH267972   3.588   6.771   5.537 -0.3516  0.5432 -0.6298
15494TIP3    H167973   3.567   6.850   5.587  1.0237  0.5621 -0.0211
15494TIP3    H267974   3.607   6.803   5.449  0.0065  0.8738 -0.4367
15495TIP3   OH267975   3.266   5.720  14.910  0.5820 -0.3634 -0.0872
15495TIP3    H167976   3.284   5.730  14.817  1.2002  0.0311  0.0693
15495TIP3    H267977   3.328   5.654  14.940  1.5161  0.6802  0.3629
15496TIP3   OH267978   1.416   3.635  16.692  0.0690 -0.0003 -0.0978
15496TIP3    H167979   1.415   3.663  16.783 -0.3590 -0.1258 -0.0641
15496TIP3    H267980   1.473   3.558  16.691  0.5823  0.3700 -0.0511
15497TIP3   OH267981   4.553   2.702  15.034 -0.1087 -0.3510  0.2947
15497TIP3    H167982   4.541   2.658  15.118  0.6786 -1.6521 -0.2551
15497TIP3    H267983   4.502   2.650  14.972  2.1349 -1.5103 -0.6709
15498TIP3   OH267984   2.602   1.275   5.632  0.2666 -0.1502 -0.5698
15498TIP3    H167985   2.688   1.275   5.673 -0.4755 -0.4211  1.0731
15498TIP3    H267986   2.585   1.367   5.610  1.3175 -0.2107 -1.7196
15499TIP3   OH267987   5.144   1.703   4.234  0.4651  0.0720 -0.3739
15499TIP3    H167988   5.204   1.773   4.209  0.3927 -0.1086 -1.0921
15499TIP3    H267989   5.082   1.698   4.161  0.1290 -0.3557 -0.0668
15500TIP3   OH267990   1.727   1.654  14.891 -0.3814 -0.4779 -0.0546
15500TIP3    H167991   1.819   1.634  14.907 -0.2785 -1.0575 -1.2349
15500TIP3    H267992   1.725   1.748  14.876 -0.1533 -0.2921  1.0222
15501TIP3   OH267993   6.312   0.731  12.634  0.8253  0.3945 -0.2752
15501TIP3    H167994   6.277   0.734  12.545  0.4402 -0.8205 -0.1859
15501TIP3    H267995   6.407   0.737  12.623  0.8525 -0.7917 -0.8644
15502TIP3   OH267996   3.390   0.102   4.026 -0.2458  0.1633  0.2778
15502TIP3    H167997   3.405   0.072   3.937  2.2818  1.8440  0.0334
15502TIP3    H267998   3.301   0.138   4.025 -0.3670 -0.1098 -1.4643
15503TIP3   OH267999   6.838   1.830   2.462 -0.3361  0.3560  0.1428
15503TIP3    H168000   6.898   1.902   2.481 -0.3412  0.3560  0.1588
15503TIP3    H268001   6.752   1.871   2.455 -0.6876  0.0870  2.2398
15504TIP3   OH268002   1.009   3.023  15.871  0.5941 -0.1170 -0.3237
15504TIP3    H168003   1.021   3.013  15.776 -1.4512 -0.8431 -0.5449
15504TIP3    H268004   0.958   2.947  15.897 -0.5938  1.0877  1.0232
15505TIP3   OH268005   0.494   6.303   1.017 -0.2965  0.0254  0.8689
15505TIP3    H168006   0.492   6.306   1.112  2.0720 -0.8767  1.0064
15505TIP3    H268007   0.563   6.364   0.992  0.3548 -1.0591 -0.1281
15506TIP3   OH268008   0.614   3.657   3.034  0.0195  0.0539 -0.3471
15506TIP3    H168009   0.529   3.627   3.066 -0.2217  1.1663  0.0973
15506TIP3    H268010   0.667   3.666   3.113  0.0173  0.9652 -0.4410
15507TIP3   OH268011   0.898   2.171  11.148 -0.2985  0.2774 -0.3567
15507TIP3    H168012   0.929   2.197  11.062 -1.0429  0.2502 -0.6417
15507TIP3    H268013   0.941   2.232  11.208  1.4249 -0.6618 -0.5658
15508TIP3   OH268014   2.323   5.847  12.290 -0.2610  0.6099 -0.3012
15508TIP3    H168015   2.335   5.826  12.197  0.9594  2.3512 -0.5972
15508TIP3    H268016   2.364   5.933  12.300  2.3087 -0.7747  2.5084
15509TIP3   OH268017   0.450   1.570   3.404 -0.5512  0.1376  0.0627
15509TIP3    H168018   0.418   1.623   3.331  1.1792  1.8904  0.4822
15509TIP3    H268019   0.430   1.480   3.379 -1.9708  0.8351 -1.5369
15510TIP3   OH268020   2.285   0.344  16.093  0.2587  0.6794  0.2515
15510TIP3    H168021   2.232   0.397  16.034  2.1560  0.7235 -1.5495
15510TIP3    H268022   2.284   0.391  16.176 -2.7107  0.4879  0.4180
15511TIP3   OH268023   2.568   2.982   2.442  0.4192 -0.1515  0.2870
15511TIP3    H168024   2.574   3.077   2.451  3.9242 -0.3692  1.7590
15511TIP3    H268025   2.482   2.960   2.478  0.8996  2.1962  3.3059
15512TIP3   OH268026   3.774   1.254   5.105 -0.3270  0.3365  0.0041
15512TIP3    H168027   3.768   1.169   5.061  0.0951  0.8909 -1.1552
15512TIP3    H268028   3.704   1.252   5.170 -0.1564 -0.9980  0.1847
15513TIP3   OH268029   6.002   0.131  16.654  0.1027 -0.3385  0.0699
15513TIP3    H168030   6.062   0.145  16.727 -0.4930 -0.6303  0.6302
15513TIP3    H268031   5.968   0.218  16.634  0.9809 -0.1207 -0.4903
15514TIP3   OH268032   2.587   6.594   0.059 -0.5761  0.1165  0.0344
15514TIP3    H168033   2.599   6.658   0.129  0.1945  0.4228 -0.3570
15514TIP3    H268034   2.574   6.511   0.105  0.5992  0.1942  0.5583
15515TIP3   OH268035   5.108   4.090  12.219  0.0010 -0.1146 -0.5126
15515TIP3    H168036   5.013   4.096  12.226 -0.0869 -1.7608  0.2579
15515TIP3    H268037   5.124   4.000  12.190  1.3607 -0.2930  0.6677
15516TIP3   OH268038   1.693   1.648   2.134  0.1361  0.7413 -0.2744
15516TIP3    H168039   1.787   1.630   2.135  0.0715  0.3964  1.4402
15516TIP3    H268040   1.687   1.738   2.101  1.1910  1.2965  0.9416
15517TIP3   OH268041   1.297   3.894   2.708 -0.5241  0.0461  0.6185
15517TIP3    H168042   1.229   3.932   2.763 -1.0942 -0.5138  0.3114
15517TIP3    H268043   1.249   3.853   2.636  0.1654  0.0505  0.1495
15518TIP3   OH268044   4.567   3.905  11.309  0.4911 -0.1367 -0.0918
15518TIP3    H168045   4.541   3.935  11.222 -1.2765  1.9601  1.0541
15518TIP3    H268046   4.499   3.841  11.333  1.6148 -1.5877 -0.6570
15519TIP3   OH268047   4.776   2.544   4.814  0.0676 -0.8894 -0.0811
15519TIP3    H168048   4.837   2.559   4.886  0.5304 -1.9691 -0.2270
15519TIP3    H268049   4.759   2.450   4.815 -0.7134 -0.7722 -0.7508
15520TIP3   OH268050   1.221   1.079  16.375  0.0847 -0.4400  0.5291
15520TIP3    H168051   1.194   1.115  16.460  0.0158 -2.3703  1.3756
15520TIP3    H268052   1.142   1.034  16.343  0.0327  0.4971 -0.7005
15521TIP3   OH268053   4.588   4.086   2.596  0.3533  0.3231 -0.2769
15521TIP3    H168054   4.523   4.115   2.532 -0.9661 -0.2719  0.7490
15521TIP3    H268055   4.650   4.034   2.545 -0.4699  0.1655 -1.1398
15522TIP3   OH268056   0.012   0.530  11.238  0.3272 -0.5401 -0.5194
15522TIP3    H168057   0.009   0.625  11.249 -0.5130 -0.5191 -0.8517
15522TIP3    H268058   0.104   0.508  11.247  0.6755  0.4369 -1.4389
15523TIP3   OH268059   4.296   3.132  15.910 -0.4774  0.5208  0.5457
15523TIP3    H168060   4.235   3.188  15.958 -0.9079  0.5245  0.0056
15523TIP3    H268061   4.373   3.187  15.896 -0.7157  0.8206  0.4180
15524TIP3   OH268062   6.213   6.048   2.554 -0.6586 -0.0597  0.1503
15524TIP3    H168063   6.271   5.992   2.606  0.7129  2.6141  1.7458
15524TIP3    H268064   6.235   6.028   2.463  1.5763 -0.3671  0.6997
15525TIP3   OH268065   4.425   2.518   2.280  0.2133  0.2237 -0.0401
15525TIP3    H168066   4.483   2.537   2.354  0.4687  0.5024 -0.3097
15525TIP3    H268067   4.337   2.521   2.316  0.2429  1.8310 -0.0533
15526TIP3   OH268068   1.370   5.519  14.895  0.5006 -0.0338 -0.3744
15526TIP3    H168069   1.435   5.496  14.828  2.6067  1.8019  0.9052
15526TIP3    H268070   1.388   5.459  14.967  0.6982  0.3877 -0.0696
15527TIP3   OH268071   0.005   6.517  14.282  0.1620 -0.1857  0.3945
15527TIP3    H168072   0.041   6.451  14.223  2.0728 -0.4394  1.7499
15527TIP3    H268073  -0.084   6.489  14.299 -0.4482 -0.1503 -2.2513
15528TIP3   OH268074   2.678   3.169   1.864  0.3284 -0.0011 -0.0553
15528TIP3    H168075   2.698   3.076   1.859 -2.9451 -0.8696  0.4908
15528TIP3    H268076   2.724   3.208   1.789 -0.1486 -2.4799 -1.7586
15529TIP3   OH268077   5.121   4.708   5.638  0.5644 -0.4054 -0.3980
15529TIP3    H168078   5.205   4.665   5.648  0.3167 -0.7323  0.3821
15529TIP3    H268079   5.068   4.674   5.710 -0.5688 -0.9695 -1.4572
15530TIP3   OH268080   4.301   4.893   1.605 -0.1711 -0.3718 -0.0807
15530TIP3    H168081   4.240   4.820   1.617  1.2501 -1.4016  1.2929
15530TIP3    H268082   4.348   4.872   1.524  0.8249 -1.4780  0.7493
15531TIP3   OH268083   0.855   2.167  16.980 -0.5223 -0.2901  0.4407
15531TIP3    H168084   0.790   2.187  16.913 -0.4903 -0.7224  0.2764
15531TIP3    H268085   0.932   2.138  16.930 -0.4457 -0.4625  0.6589
15532TIP3   OH268086   1.085   4.853  15.858 -0.1468 -0.7069  0.0115
15532TIP3    H168087   1.152   4.910  15.821 -1.4659  1.2683  0.5144
15532TIP3    H268088   1.130   4.807  15.930  0.3956  1.5404  1.1896
15533TIP3   OH268089   2.643   1.994  15.872  0.0516  0.2539 -0.2899
15533TIP3    H168090   2.632   2.069  15.813 -4.6133  0.7970  0.8169
15533TIP3    H268091   2.597   1.922  15.828 -1.7120  0.1146  1.6049
15534TIP3   OH268092   3.565   3.155   0.910 -0.3855 -0.7254 -0.2746
15534TIP3    H168093   3.507   3.151   0.986  1.0126 -1.3404  0.7815
15534TIP3    H268094   3.605   3.069   0.905  1.6577  0.1588  0.0068
15535TIP3   OH268095   3.334   2.566  15.188 -0.3891 -0.7832  0.3502
15535TIP3    H168096   3.312   2.545  15.279  0.2315  0.4681  0.8188
15535TIP3    H268097   3.429   2.557  15.184 -0.0739  1.7755  0.5940
15536TIP3   OH268098   6.426   2.215  13.242  0.1366 -0.4833  0.2071
15536TIP3    H168099   6.400   2.307  13.236 -1.0487 -0.6508  2.1814
15536TIP3    H268100   6.346   2.166  13.225  0.6224 -1.1521 -0.1919
15537TIP3   OH268101   0.235   3.000  13.664 -0.1992 -0.1428  0.3837
15537TIP3    H168102   0.266   3.026  13.577 -1.3937  1.1053  0.2910
15537TIP3    H268103   0.290   3.049  13.725 -0.7355  0.6112  0.2693
15538TIP3   OH268104   5.301   6.568  16.590  0.2583 -0.5829 -0.2806
15538TIP3    H168105   5.249   6.509  16.536  0.2305 -1.9856  1.2160
15538TIP3    H268106   5.261   6.563  16.677  0.4655  1.4111 -0.0168
15539TIP3   OH268107   5.456   2.246  15.787 -0.0784 -0.5648 -0.4536
15539TIP3    H168108   5.482   2.182  15.854  1.7592  0.9202  0.3334
15539TIP3    H268109   5.378   2.207  15.747 -1.4713 -1.3922  2.7130
15540TIP3   OH268110   5.741   4.603  11.081  0.0617  0.0981 -0.1379
15540TIP3    H168111   5.667   4.595  11.021 -1.0308  2.1959  0.8243
15540TIP3    H268112   5.778   4.689  11.062  2.2617 -0.8806 -0.5477
15541TIP3   OH268113   0.228   0.293   6.304 -0.3546 -0.1158  0.0553
15541TIP3    H168114   0.315   0.253   6.299 -1.0275 -1.4582 -1.5567
15541TIP3    H268115   0.168   0.219   6.313 -1.4799  0.6651 -0.8546
15542TIP3   OH268116   1.418   0.390  16.343  0.2266  0.0713  0.1482
15542TIP3    H168117   1.364   0.400  16.265 -0.3506 -1.6972  0.2771
15542TIP3    H268118   1.506   0.374  16.309 -0.3360 -2.5645 -0.2577
15543TIP3   OH268119   4.631   1.436  12.668  0.2892  0.1307 -0.1425
15543TIP3    H168120   4.620   1.436  12.763 -0.5895  0.7291 -0.2324
15543TIP3    H268121   4.625   1.343  12.643 -3.1276  0.1727  0.0353
15544TIP3   OH268122   1.656   0.597   0.829 -0.4121  0.1271 -0.5336
15544TIP3    H168123   1.721   0.565   0.766  0.0058  0.6832 -0.3956
15544TIP3    H268124   1.611   0.519   0.860 -0.9660 -0.1179 -1.8982
15545TIP3   OH268125   6.528   5.716  15.214 -0.1141 -0.1492 -0.2372
15545TIP3    H168126   6.530   5.635  15.163  0.2588  0.0173 -0.4933
15545TIP3    H268127   6.571   5.781  15.158 -0.4872  0.2495 -0.0759
15546TIP3   OH268128   1.884   5.744   6.609  0.5647  0.0102  0.0563
15546TIP3    H168129   1.796   5.712   6.628 -0.2837  1.0162 -1.8534
15546TIP3    H268130   1.921   5.680   6.549 -0.2528  1.2829 -1.9133
15547TIP3   OH268131   2.570   0.301  11.739  0.2418 -0.2688 -0.0724
15547TIP3    H168132   2.485   0.319  11.700  1.0944 -1.5183 -2.7647
15547TIP3    H268133   2.601   0.386  11.769 -1.6846  0.2927  0.4779
15548TIP3   OH268134   3.759   4.360  14.177 -0.1448 -0.3364 -0.5078
15548TIP3    H168135   3.801   4.446  14.177  0.2367 -0.5026 -1.6120
15548TIP3    H268136   3.819   4.304  14.226 -2.2351  0.8025  3.7722
15549TIP3   OH268137   3.311   3.936  11.296  0.4154 -0.3441  0.9342
15549TIP3    H168138   3.372   3.923  11.223  0.5931  0.1712  0.9878
15549TIP3    H268139   3.247   3.999  11.263  0.8568  0.3739  1.4325
15550TIP3   OH268140   6.495   2.054  12.652  0.5143 -0.0486  0.4673
15550TIP3    H168141   6.497   2.018  12.741 -2.8987  0.5014  0.9176
15550TIP3    H268142   6.423   2.007  12.609 -0.4145  2.2784 -0.7184
15551TIP3   OH268143   4.972   3.506  15.425  0.5181  0.8716  0.1630
15551TIP3    H168144   4.973   3.512  15.521 -0.3209  0.1333  0.2254
15551TIP3    H268145   4.983   3.413  15.407  2.1105  1.1583 -0.5128
15552TIP3   OH268146   5.716   3.549   3.510 -0.3290 -0.2003 -0.1109
15552TIP3    H168147   5.720   3.636   3.471 -0.0825  0.2172  0.8319
15552TIP3    H268148   5.774   3.553   3.585 -0.9265 -0.9387  0.4083
15553TIP3   OH268149   1.958   5.855  12.924 -0.4142 -0.2748 -0.0735
15553TIP3    H168150   1.984   5.792  12.857  0.4734 -0.4853  0.4516
15553TIP3    H268151   2.040   5.898  12.950 -0.9787  0.9795 -0.3008
15554TIP3   OH268152   0.753   1.208   6.784  0.0326 -0.4884 -0.4439
15554TIP3    H168153   0.708   1.270   6.727  0.2782  0.5136  0.4276
15554TIP3    H268154   0.836   1.251   6.805  0.2179 -1.1306  0.1556
15555TIP3   OH268155   5.082   2.850   0.977 -0.1985  0.6019 -0.1778
15555TIP3    H168156   5.118   2.772   0.934  0.3620  1.1919 -0.7829
15555TIP3    H268157   5.151   2.916   0.970 -0.6476  1.1399  0.3877
15556TIP3   OH268158   2.335   1.968  10.742  0.3511  0.0072  0.5539
15556TIP3    H168159   2.256   1.983  10.793 -0.4774  0.8575 -0.9105
15556TIP3    H268160   2.309   1.903  10.676  0.7187  0.6076 -0.2077
15557TIP3   OH268161   3.038   5.534   3.828 -0.0242  0.0495 -0.7480
15557TIP3    H168162   3.075   5.619   3.853  0.2819 -0.7598  1.7586
15557TIP3    H268163   3.097   5.501   3.761  1.9883  0.2201  0.8665
15558TIP3   OH268164   5.970   5.827  17.174  0.1450  0.3989  0.5841
15558TIP3    H168165   6.007   5.758  17.120  0.2389 -0.0950  1.2737
15558TIP3    H268166   5.875   5.812  17.170  0.1824  0.0730  0.9493
15559TIP3   OH268167   5.110   1.692   3.829  0.1123  0.0490  0.5148
15559TIP3    H168168   5.091   1.613   3.879 -0.3735  0.8200  1.6091
15559TIP3    H268169   5.199   1.680   3.797 -0.0429 -1.0320  0.4733
15560TIP3   OH268170   0.966   4.814  14.304  0.0187 -0.7323 -0.1156
15560TIP3    H168171   1.048   4.780  14.269  0.1374 -0.4272 -0.1318
15560TIP3    H268172   0.899   4.753  14.272 -0.4054  1.4059 -3.9176
15561TIP3   OH268173   3.751   4.599   0.217 -0.0342 -0.1860  0.0653
15561TIP3    H168174   3.672   4.546   0.207  1.3821 -2.6506  0.9362
15561TIP3    H268175   3.792   4.597   0.131  0.1695 -0.8465  0.1683
15562TIP3   OH268176   4.911   2.846   5.581  0.3991 -0.3520  0.0601
15562TIP3    H168177   4.849   2.799   5.637  1.1560 -1.6253 -0.1261
15562TIP3    H268178   4.859   2.876   5.507 -0.4847  0.7845  1.0980
15563TIP3   OH268179   6.338   1.300  12.723  0.7067 -0.2319  0.1108
15563TIP3    H168180   6.291   1.334  12.800  0.0121 -0.2878 -0.2838
15563TIP3    H268181   6.284   1.227  12.693  1.0196 -0.2571 -0.3872
15564TIP3   OH268182   3.897   5.138   2.965  0.3023  0.0105  0.3542
15564TIP3    H168183   3.989   5.141   2.941  0.6885 -2.2341  1.2793
15564TIP3    H268184   3.895   5.161   3.058 -0.1366  0.5526  0.2146
15565TIP3   OH268185   3.063   1.072   2.988  0.4859  0.5689 -0.0325
15565TIP3    H168186   3.138   1.038   2.940  1.2155  0.6212  1.0451
15565TIP3    H268187   3.034   1.148   2.937  0.4310 -0.1241 -1.0721
15566TIP3   OH268188   2.467   3.076  11.194 -0.4513 -0.4326 -0.1976
15566TIP3    H168189   2.487   3.157  11.147 -1.7456 -0.5426 -0.9975
15566TIP3    H268190   2.505   3.088  11.281  0.5462  0.4674 -0.7399
15567TIP3   OH268191   3.115   3.747  14.546 -0.1863  0.5225  0.1151
15567TIP3    H168192   3.073   3.820  14.590 -1.8911 -0.0695 -0.4750
15567TIP3    H268193   3.206   3.775  14.534 -0.5459  2.0812  0.8745
15568TIP3   OH268194   0.937   3.046  15.109 -0.6452  0.4533 -0.1787
15568TIP3    H168195   0.897   3.032  15.023 -0.1317  0.4094 -0.4133
15568TIP3    H268196   1.013   2.988  15.110 -0.3409  0.8509  0.0993
15569TIP3   OH268197   1.516   3.912  14.804  0.1901  0.4245 -0.0768
15569TIP3    H168198   1.423   3.897  14.824  0.2651  0.4728  0.3238
15569TIP3    H268199   1.520   4.004  14.779 -0.4665 -0.4075 -3.6969
15570TIP3   OH268200   5.105   6.074   5.454  0.6205 -0.4621 -0.6896
15570TIP3    H168201   5.126   6.061   5.547  1.6798 -1.1507 -1.0107
15570TIP3    H268202   5.059   5.994   5.429  0.2220 -0.2219 -0.7371
15571TIP3   OH268203   2.105   0.300   2.809 -0.2447  0.6372  0.0076
15571TIP3    H168204   2.072   0.318   2.897 -0.7208 -0.7744  0.1344
15571TIP3    H268205   2.119   0.387   2.771  1.4509  1.2921  1.9914
15572TIP3   OH268206   5.205   4.007   3.312 -0.0766  0.5552  0.1466
15572TIP3    H168207   5.228   4.053   3.232 -3.1764  1.2605 -0.4330
15572TIP3    H268208   5.130   4.054   3.347 -1.0975 -1.8897  1.5161
15573TIP3   OH268209   6.486   3.787  14.700  0.2886  0.6373 -0.3063
15573TIP3    H168210   6.451   3.788  14.611 -1.7482 -0.2308  0.4316
15573TIP3    H268211   6.574   3.752  14.691  0.2244  0.8513 -2.0091
15574TIP3   OH268212   1.021   1.232  10.292 -0.5168 -0.0789  0.2577
15574TIP3    H168213   0.945   1.176  10.310 -0.3338 -0.4863 -0.2063
15574TIP3    H268214   1.094   1.171  10.283 -0.3016  0.2374 -0.1762
15575TIP3   OH268215   4.908   3.672  10.697  0.2974 -0.0569  0.5418
15575TIP3    H168216   4.846   3.599  10.692  0.2915 -0.0478  0.4779
15575TIP3    H268217   4.967   3.658  10.623 -1.3405  1.4913 -1.1842
15576TIP3   OH268218   0.730   6.493  16.549 -0.1511 -0.3531  0.7317
15576TIP3    H168219   0.684   6.547  16.484  1.2558  0.4560  0.3524
15576TIP3    H268220   0.795   6.553  16.586  1.5758 -1.8201  0.1887
15577TIP3   OH268221   5.711   6.650   4.237 -0.4516 -0.0570  0.3727
15577TIP3    H168222   5.805   6.664   4.249 -0.3837 -0.2624  0.0988
15577TIP3    H268223   5.677   6.635   4.325  0.0768 -1.8425  0.3039
15578TIP3   OH268224   4.016   3.756  15.950 -0.0719 -0.1398 -0.2201
15578TIP3    H168225   3.935   3.805  15.960  0.6517  0.9745  0.4489
15578TIP3    H268226   4.005   3.678  16.004 -1.3410 -0.8920 -1.4972
15579TIP3   OH268227   4.447   4.796  16.540 -0.3090  0.3647 -0.3978
15579TIP3    H168228   4.437   4.834  16.628 -2.9634 -0.7508 -0.1244
15579TIP3    H268229   4.504   4.720  16.553 -2.0375 -0.8015  0.7484
15580TIP3   OH268230   4.681   0.794  13.050 -0.1501  0.1780  0.1731
15580TIP3    H168231   4.715   0.748  13.127 -1.2817 -0.1839  0.4741
15580TIP3    H268232   4.725   0.754  12.976 -0.0855 -0.4376  0.5398
15581TIP3   OH268233   4.384   1.951   4.860  0.2179  0.5014  0.1466
15581TIP3    H168234   4.299   1.994   4.863 -0.3711 -0.6578  2.5031
15581TIP3    H268235   4.393   1.921   4.770 -1.4112  1.4879 -0.3836
15582TIP3   OH268236   4.001   3.506   4.325  0.3308  0.0081 -0.5106
15582TIP3    H168237   3.981   3.545   4.410 -1.0297  0.4025 -0.9800
15582TIP3    H268238   4.078   3.554   4.294 -0.1351  0.9845 -0.1993
15583TIP3   OH268239   1.758   3.452  12.811 -0.1289  0.3472 -0.2462
15583TIP3    H168240   1.769   3.526  12.750  1.2638 -1.1344 -1.9166
15583TIP3    H268241   1.674   3.414  12.787 -0.9610  1.4655  0.7716
15584TIP3   OH268242   4.255   1.161   1.660  0.1554 -0.3591  0.0600
15584TIP3    H168243   4.181   1.116   1.700 -1.8343  1.8723 -0.8605
15584TIP3    H268244   4.328   1.099   1.667 -2.1752 -3.3977 -0.5655
15585TIP3   OH268245   0.623   3.563   0.945 -0.3738  0.2253  0.0235
15585TIP3    H168246   0.677   3.510   0.886 -0.0955  2.0429 -1.4333
15585TIP3    H268247   0.533   3.540   0.922 -0.3766 -2.7786  2.4257
15586TIP3   OH268248   1.075   5.922  12.520 -0.2444 -0.3389 -0.1822
15586TIP3    H168249   1.112   5.859  12.581 -0.5083  0.7794  1.1903
15586TIP3    H268250   1.010   5.970  12.572 -0.6602  0.4815 -1.4185
15587TIP3   OH268251   4.209   2.147   1.340  0.0535  0.2423 -0.2173
15587TIP3    H168252   4.200   2.215   1.406  0.8073  0.0372  0.1052
15587TIP3    H268253   4.144   2.169   1.274 -0.4465  0.6658  0.4048
15588TIP3   OH268254   0.905   6.112   0.356 -0.3322  0.0580 -0.1852
15588TIP3    H168255   0.864   6.087   0.273 -1.2487  2.1163 -0.3961
15588TIP3    H268256   0.983   6.057   0.361 -0.7256 -0.7314 -1.9860
15589TIP3   OH268257   3.448   4.257  13.258  0.4885 -0.1570  0.3054
15589TIP3    H168258   3.438   4.164  13.279  1.3455 -0.4548 -0.5361
15589TIP3    H268259   3.467   4.259  13.165 -0.1616  0.9223  0.1826
15590TIP3   OH268260   6.278   5.045  15.086 -0.1351  0.0927 -0.6238
15590TIP3    H168261   6.256   4.972  15.144  1.4346 -0.7069 -0.9594
15590TIP3    H268262   6.226   5.118  15.117 -0.2916 -0.6633  0.9733
15591TIP3   OH268263   4.754   2.081   2.553 -0.6603  0.6538 -0.4045
15591TIP3    H168264   4.787   2.007   2.502  0.9682  0.1759  1.2273
15591TIP3    H268265   4.808   2.155   2.525 -0.0105  0.4690  0.3295
15592TIP3   OH268266   1.843   6.761   3.323 -0.4790  0.2140  0.2550
15592TIP3    H168267   1.852   6.854   3.302  0.3647  0.4620  1.5540
15592TIP3    H268268   1.874   6.715   3.245 -2.8368  0.9583 -1.2032
15593TIP3   OH268269   0.278   3.751   5.501 -0.3832 -0.4249 -0.7521
15593TIP3    H168270   0.266   3.689   5.573  0.0822  0.2046 -0.1186
15593TIP3    H268271   0.189   3.774   5.475 -0.5925  0.5912  0.7329
15594TIP3   OH268272   5.724   6.559  12.303 -0.0262 -0.2984  0.1756
15594TIP3    H168273   5.649   6.606  12.340 -0.1178 -0.6517  0.4457
15594TIP3    H268274   5.692   6.470  12.290  0.3856 -0.4787  0.4024
15595TIP3   OH268275   2.446   1.770   5.613 -0.3772 -0.0366  0.2400
15595TIP3    H168276   2.453   1.724   5.697 -0.5165 -1.1547 -0.3405
15595TIP3    H268277   2.352   1.784   5.602 -0.5804 -1.9801 -0.7963
15596TIP3   OH268278   1.076   6.703  12.551 -0.1564  0.1005 -0.1686
15596TIP3    H168279   1.032   6.784  12.575 -3.4250 -0.7424 -2.6059
15596TIP3    H268280   1.144   6.730  12.489  0.4914  1.1621  0.9799
15597TIP3   OH268281   0.108   4.208  16.395  0.1770 -0.2848 -0.2172
15597TIP3    H168282   0.134   4.280  16.337  2.3600 -1.2922 -0.6304
15597TIP3    H268283   0.083   4.137  16.335 -1.8890  0.0470  0.1822
15598TIP3   OH268284   2.862   2.191   1.408 -0.1821  0.2313  0.1678
15598TIP3    H168285   2.800   2.127   1.442  1.5851 -1.3873  0.5499
15598TIP3    H268286   2.926   2.202   1.478  1.1619  0.1248 -0.9949
15599TIP3   OH268287   4.794   6.526  13.656 -0.0112 -0.3390 -0.0400
15599TIP3    H168288   4.846   6.478  13.721  0.4813  1.4863  0.9737
15599TIP3    H268289   4.858   6.578  13.608 -0.6880  0.4845 -0.0627
15600TIP3   OH268290   5.655   6.712   0.887 -0.1492  0.1473 -0.5196
15600TIP3    H168291   5.691   6.765   0.958 -1.2801 -0.6450  0.7048
15600TIP3    H268292   5.570   6.753   0.868 -0.4006 -0.3722 -0.5410
15601TIP3   OH268293   4.718   1.692  10.844  0.1381 -0.1071 -0.1190
15601TIP3    H168294   4.666   1.766  10.876 -0.9280 -0.6822 -0.4769
15601TIP3    H268295   4.679   1.669  10.760  0.2234 -1.3107  0.1464
15602TIP3   OH268296   4.837   5.649   1.848  0.3249 -0.6507 -0.5472
15602TIP3    H168297   4.773   5.706   1.805  0.2362 -0.0613  0.3369
15602TIP3    H268298   4.897   5.709   1.892  1.0429 -1.2188 -0.7307
15603TIP3   OH268299   3.346   6.531  13.749 -0.1323  0.0317 -0.5658
15603TIP3    H168300   3.354   6.593  13.676 -0.3724  1.7788  0.8131
15603TIP3    H268301   3.258   6.494  13.740 -0.7619  1.4097 -0.3089
15604TIP3   OH268302   3.309   3.836   2.730  0.4477  0.2291 -0.8514
15604TIP3    H168303   3.297   3.928   2.706 -2.3659 -0.0149 -0.6514
15604TIP3    H268304   3.348   3.796   2.652 -1.8648  0.8754 -2.4355
15605TIP3   OH268305   0.317   1.169   3.518 -0.1525 -0.3378 -0.3075
15605TIP3    H168306   0.296   1.262   3.527 -1.8224 -0.7108 -0.1485
15605TIP3    H268307   0.389   1.154   3.580 -0.0552  0.7710 -0.1374
15606TIP3   OH268308   6.124   6.418  14.529  0.1250 -0.8508  0.2118
15606TIP3    H168309   6.209   6.415  14.571  0.1732  0.1637  0.2036
15606TIP3    H268310   6.076   6.344  14.566  0.5111 -0.5702  1.2961
15607TIP3   OH268311   5.292   1.949  14.905 -0.3887  0.8003 -0.0582
15607TIP3    H168312   5.250   2.033  14.885 -1.1883  0.6321  0.8395
15607TIP3    H268313   5.370   1.972  14.955 -1.5990  0.9707  1.8638
15608TIP3   OH268314   0.470   6.699   1.440 -0.2702  0.1290 -0.3443
15608TIP3    H168315   0.524   6.620   1.434 -0.4221  0.0855 -1.4665
15608TIP3    H268316   0.524   6.762   1.488  1.8338  0.8844 -3.4038
15609TIP3   OH268317   4.372   2.634  10.661  0.0642  0.6060 -0.4037
15609TIP3    H168318   4.420   2.595  10.588 -0.8963 -0.0640 -0.7079
15609TIP3    H268319   4.325   2.560  10.701 -1.5713  1.3880 -0.8057
15610TIP3   OH268320   0.146   3.982  10.931  0.0968  0.2820  0.7459
15610TIP3    H168321   0.138   3.898  10.976  0.6927  0.7144  1.6715
15610TIP3    H268322   0.234   4.013  10.952  0.6565  0.1967 -1.2658
15611TIP3   OH268323   5.491   4.069   2.726 -0.5964 -0.5737  0.3393
15611TIP3    H168324   5.579   4.106   2.732 -0.5561 -0.8500  1.6173
15611TIP3    H268325   5.433   4.144   2.735 -0.4973 -0.5604  0.9005
15612TIP3   OH268326   4.731   4.676  17.056  0.5014  0.4737 -0.0700
15612TIP3    H168327   4.699   4.765  17.041 -1.2835 -0.0138  0.6621
15612TIP3    H268328   4.805   4.687  17.115  0.9201  1.5276 -0.7501
15613TIP3   OH268329   5.153   2.492   2.084  0.1800  0.0379 -0.8708
15613TIP3    H168330   5.135   2.581   2.054  1.7319 -0.6402 -4.3732
15613TIP3    H268331   5.067   2.450   2.089 -0.5474  1.6189  0.6610
15614TIP3   OH268332   0.195   2.574  13.768  0.3681 -0.3004  0.1221
15614TIP3    H168333   0.206   2.560  13.674 -1.9560  0.7176 -0.3623
15614TIP3    H268334   0.133   2.646  13.775 -1.2857 -1.7966  2.4365
15615TIP3   OH268335   5.874   0.219  12.895  0.0371 -0.6534 -0.1095
15615TIP3    H168336   5.828   0.232  12.978 -0.5960  0.9072 -0.6627
15615TIP3    H268337   5.966   0.214  12.919 -0.0252  1.0814  0.5914
15616TIP3   OH268338   3.902   4.825  15.479  0.4205 -0.1125 -0.1105
15616TIP3    H168339   3.965   4.860  15.541  0.1450 -0.7298  0.5334
15616TIP3    H268340   3.844   4.899  15.458 -0.4250 -0.2556  1.5659
15617TIP3   OH268341   6.342   3.349  14.847 -0.2760 -0.0625 -0.0316
15617TIP3    H168342   6.357   3.268  14.798 -3.3732 -2.0160  1.8483
15617TIP3    H268343   6.273   3.394  14.797 -0.4051  0.0908  0.2841
15618TIP3   OH268344   3.609   3.782  16.840  0.3325 -0.1349 -0.3522
15618TIP3    H168345   3.680   3.839  16.811  0.3084 -0.8063 -1.8134
15618TIP3    H268346   3.654   3.706  16.879  0.3667  0.5299  0.9705
15619TIP3   OH268347   3.242   2.965   0.851 -0.1534 -0.0335 -0.0607
15619TIP3    H168348   3.232   2.932   0.761 -2.7333 -2.2980  0.9039
15619TIP3    H268349   3.298   2.901   0.894 -0.1858  0.1856  0.3127
15620TIP3   OH268350   2.233   5.173  14.210  0.2082 -0.0863 -0.2518
15620TIP3    H168351   2.286   5.245  14.177 -1.0119  0.4154 -1.2030
15620TIP3    H268352   2.152   5.215  14.240  0.5386 -0.7525  1.7316
15621TIP3   OH268353   0.433   5.409  12.229  0.1056 -0.5243  0.1106
15621TIP3    H168354   0.440   5.501  12.203  3.8174 -0.6022  0.2552
15621TIP3    H268355   0.445   5.411  12.324  1.1183 -1.1656  0.0115
15622TIP3   OH268356   6.409   6.590   5.457 -0.4877  0.1623  0.4279
15622TIP3    H168357   6.392   6.505   5.417  2.2469 -0.3695  0.2086
15622TIP3    H268358   6.432   6.570   5.547  0.7750  0.5591  0.2167
15623TIP3   OH268359   1.672   1.271  16.942  0.4084 -0.2897 -0.2955
15623TIP3    H168360   1.652   1.341  16.880 -0.3751 -0.8889 -0.7423
15623TIP3    H268361   1.587   1.231  16.962  0.8172 -0.9892  0.0930
15624TIP3   OH268362   0.626   5.732  14.040  0.2990 -0.0784 -0.8858
15624TIP3    H168363   0.569   5.807  14.021  1.0858  0.7877  0.0826
15624TIP3    H268364   0.566   5.657  14.041 -0.9383  0.8577  0.5182
15625TIP3   OH268365   0.993   2.717  13.859  0.4664 -0.0335  0.1947
15625TIP3    H168366   0.924   2.761  13.910 -1.0723 -1.1568 -0.8357
15625TIP3    H268367   1.046   2.673  13.925 -0.5460 -0.1698  0.9559
15626TIP3   OH268368   3.260   0.900  10.080  0.5617 -0.0698  0.1157
15626TIP3    H168369   3.169   0.870  10.085  1.0969 -1.6029  1.2673
15626TIP3    H268370   3.253   0.996  10.078 -1.0500  0.0394  3.3574
15627TIP3   OH268371   0.905   3.125   5.447  0.0295 -0.0188 -0.2163
15627TIP3    H168372   0.960   3.102   5.523 -0.8970 -1.6395  0.0038
15627TIP3    H268373   0.823   3.155   5.486 -0.1193  0.0374 -0.5777
15628TIP3   OH268374   6.503   1.842  15.732 -0.2328 -0.2590  0.1250
15628TIP3    H168375   6.525   1.749  15.733  0.1572 -0.1956 -0.9366
15628TIP3    H268376   6.587   1.887  15.723 -0.5169  0.1244 -0.8015
15629TIP3   OH268377   0.330   5.105   2.883 -0.5255 -0.2188  0.1945
15629TIP3    H168378   0.273   5.074   2.813 -0.6979 -1.8083  0.9957
15629TIP3    H268379   0.418   5.081   2.855  0.0238  3.2302 -1.5788
15630TIP3   OH268380   0.129   0.075   3.962  0.6247 -0.0542  0.4507
15630TIP3    H168381   0.084   0.158   3.947  1.5730  0.2388 -0.9802
15630TIP3    H268382   0.083   0.013   3.906 -0.1994 -0.5558  1.6572
15631TIP3   OH268383   1.941   4.256  13.493  0.1741 -0.1787  0.1718
15631TIP3    H168384   2.020   4.298  13.527  0.7019  0.6064 -1.8486
15631TIP3    H268385   1.926   4.182  13.552  1.7513  0.3159  1.2725
15632TIP3   OH268386   6.679   4.430  15.601 -0.2362 -0.2902  0.1651
15632TIP3    H168387   6.717   4.347  15.571  0.6589 -0.0066  0.4715
15632TIP3    H268388   6.738   4.497  15.566 -1.5967  0.2946 -1.0586
15633TIP3   OH268389   1.765   1.062  14.931 -0.6472  0.9349  0.3387
15633TIP3    H168390   1.859   1.046  14.922 -0.8071  0.3996 -0.5745
15633TIP3    H268391   1.753   1.151  14.898 -0.4785  0.9354  0.2753
15634TIP3   OH268392   5.667   3.746   2.385  0.4472 -0.2808 -0.6215
15634TIP3    H168393   5.677   3.828   2.434  0.8383 -0.2787 -0.7050
15634TIP3    H268394   5.592   3.762   2.327  0.0536 -0.2414 -0.1148
15635TIP3   OH268395   2.604   5.327   3.409 -0.3250  0.1648 -0.2199
15635TIP3    H168396   2.559   5.352   3.490 -0.7051  0.5938 -0.5591
15635TIP3    H268397   2.622   5.233   3.420 -0.9184  0.0816  0.1051
15636TIP3   OH268398   0.428   0.546  14.660  0.3781 -0.2989  0.0478
15636TIP3    H168399   0.370   0.550  14.584  0.4159  0.5541  0.0560
15636TIP3    H268400   0.422   0.455  14.690 -0.3735 -0.4021 -0.3985
15637TIP3   OH268401   2.093   0.869   5.962  0.2600 -0.6363  0.1441
15637TIP3    H168402   2.131   0.927   6.028 -0.8140 -1.0527  1.1719
15637TIP3    H268403   2.018   0.829   6.006  0.5755 -2.2994 -0.7501
15638TIP3   OH268404   3.849   2.159  13.212  0.1668  0.3150  0.5271
15638TIP3    H168405   3.857   2.212  13.133  0.7910 -2.3121 -1.2859
15638TIP3    H268406   3.802   2.081  13.185 -4.0569  1.2731  3.8911
15639TIP3   OH268407   6.087   1.908   2.099  0.6394 -0.3393 -0.1278
15639TIP3    H168408   6.152   1.974   2.075  0.0013  0.7714  1.1065
15639TIP3    H268409   6.099   1.894   2.192  0.3462 -1.5393 -0.2476
15640TIP3   OH268410   2.517   0.930   2.199 -0.6698 -0.3908 -0.3466
15640TIP3    H168411   2.431   0.946   2.161 -0.0146  1.1881 -1.2562
15640TIP3    H268412   2.579   0.961   2.132  0.6770 -2.6335 -0.2680
15641TIP3   OH268413   2.426   2.565  14.178  0.0417 -0.0630 -0.0755
15641TIP3    H168414   2.405   2.493  14.118  1.7242 -0.3576 -0.3417
15641TIP3    H268415   2.487   2.527  14.240  0.5996  1.0233  0.0616
15642TIP3   OH268416   0.554   2.616  11.279  0.7322  0.3529  0.1028
15642TIP3    H168417   0.636   2.578  11.246  0.6449  0.8875 -0.7807
15642TIP3    H268418   0.525   2.556  11.347  0.3290 -1.4738 -1.5720
15643TIP3   OH268419   0.891   2.433  13.890  0.1303 -0.2155 -0.0199
15643TIP3    H168420   0.960   2.484  13.933  2.4599 -2.1517 -1.2089
15643TIP3    H268421   0.925   2.417  13.802 -1.2913 -2.2546 -0.2703
15644TIP3   OH268422   4.062   1.975  13.971 -0.2096 -0.1137  0.2310
15644TIP3    H168423   4.031   1.886  13.988 -2.5507  0.8142  1.2553
15644TIP3    H268424   4.078   1.977  13.876  1.5992 -2.0563  0.4170
15645TIP3   OH268425   2.832   4.678  12.555  0.1348 -0.1676 -0.0439
15645TIP3    H168426   2.849   4.770  12.533 -0.8699 -0.4046 -2.1088
15645TIP3    H268427   2.760   4.681  12.617  0.5584  0.4437  0.4357
15646TIP3   OH268428   4.630   5.683  12.634  0.4022 -0.7163 -0.1686
15646TIP3    H168429   4.538   5.685  12.663  0.1760  1.4175 -0.8595
15646TIP3    H268430   4.664   5.601  12.670 -1.4123 -0.9391  1.2319
15647TIP3   OH268431   2.509   3.064  15.574 -0.5118  0.3496 -0.3493
15647TIP3    H168432   2.539   3.079  15.664 -0.1391  1.2345 -0.6095
15647TIP3    H268433   2.589   3.066  15.522 -0.9096  1.9113 -0.9511
15648TIP3   OH268434   5.489   5.434   4.162  0.1948 -0.3444  0.5312
15648TIP3    H168435   5.496   5.476   4.076  1.8937 -2.1494 -0.2998
15648TIP3    H268436   5.454   5.502   4.219 -2.3489  0.5145 -1.8366
15649TIP3   OH268437   5.096   6.237   0.305  0.1583 -0.0770  0.5824
15649TIP3    H168438   5.128   6.326   0.294  1.6307 -0.5535  0.8350
15649TIP3    H268439   5.108   6.218   0.398 -0.3205 -0.4905  0.5675
15650TIP3   OH268440   1.793   1.689  16.157  0.5020  0.7913  0.7065
15650TIP3    H168441   1.739   1.760  16.122 -0.5107  0.7745  2.1782
15650TIP3    H268442   1.793   1.623  16.087 -0.4314  1.2725  0.2300
15651TIP3   OH268443   5.351   1.913  11.631 -0.1118 -0.4545  0.2902
15651TIP3    H168444   5.367   1.954  11.546  1.1780 -1.1620  0.1536
15651TIP3    H268445   5.351   1.985  11.693 -3.3646  0.3866 -0.4872
15652TIP3   OH268446   5.957   3.284   5.619  0.2015  0.6154 -0.7029
15652TIP3    H168447   5.976   3.333   5.539  1.0909  1.4854  0.0129
15652TIP3    H268448   5.994   3.197   5.603 -0.1511  0.5912 -1.4464
15653TIP3   OH268449   3.604   2.428   5.824 -0.3476 -0.2531 -0.2244
15653TIP3    H168450   3.647   2.446   5.908  1.4470 -0.3356 -1.0919
15653TIP3    H268451   3.659   2.363   5.781  0.3037  1.7238 -2.6104
15654TIP3   OH268452   5.294   5.413  11.890 -0.3839 -0.3909  0.0331
15654TIP3    H168453   5.343   5.348  11.840  0.4657  0.2653 -0.0110
15654TIP3    H268454   5.360   5.457  11.944 -0.8535  0.7301 -0.2667
15655TIP3   OH268455   5.787   2.328   4.438 -0.4210  0.1480 -0.0447
15655TIP3    H168456   5.841   2.401   4.408 -0.0090  0.2310  0.8884
15655TIP3    H268457   5.799   2.325   4.532 -0.1153 -1.3804 -0.0939
15656TIP3   OH268458   6.427   3.604   2.148  0.2920  0.4475 -0.7435
15656TIP3    H168459   6.395   3.681   2.195  0.3987 -0.9959  1.8678
15656TIP3    H268460   6.350   3.548   2.138  0.6728 -0.1401 -0.4368
15657TIP3   OH268461   3.522   6.279  13.677 -0.6052 -0.2757  0.3602
15657TIP3    H168462   3.523   6.217  13.604 -0.4501  2.9153 -2.5907
15657TIP3    H268463   3.513   6.365  13.636  0.8051  1.8785  4.0523
15658TIP3   OH268464   2.047   6.790   2.373 -0.1729  0.8122 -0.5908
15658TIP3    H168465   2.088   6.848   2.437 -0.9126 -1.2903  1.9914
15658TIP3    H268466   2.053   6.837   2.290 -2.0851  5.2860  1.4642
15659TIP3   OH268467   4.650   1.352   5.386  0.4383 -0.4308 -0.2263
15659TIP3    H168468   4.678   1.435   5.425 -1.7759 -0.1627  0.9583
15659TIP3    H268469   4.582   1.376   5.323 -1.4459 -1.3929  1.3446
15660TIP3   OH268470   6.806   2.285   0.897  0.0245 -0.5951  0.5899
15660TIP3    H168471   6.723   2.314   0.858 -0.0874 -0.2970  1.0444
15660TIP3    H268472   6.813   2.193   0.871 -0.3128 -0.5450  0.3116
15661TIP3   OH268473   0.791   1.586  14.380  0.2889 -0.1959 -0.3792
15661TIP3    H168474   0.885   1.583  14.361 -0.0790 -0.5464 -2.2675
15661TIP3    H268475   0.755   1.509  14.335 -0.9609  0.1238  0.0407
15662TIP3   OH268476   5.987   6.351   3.485 -0.0567  0.2757  0.6336
15662TIP3    H168477   6.003   6.445   3.491 -0.3832  0.3224  0.8241
15662TIP3    H268478   6.019   6.315   3.568  2.4681 -0.1569 -0.4526
15663TIP3   OH268479   0.620   0.164   4.909 -0.1521 -0.1961  0.3618
15663TIP3    H168480   0.635   0.122   4.824 -0.8656 -1.3386  0.7818
15663TIP3    H268481   0.656   0.103   4.973  1.9015  1.3891  0.8531
15664TIP3   OH268482   2.083   1.628  14.292 -0.3718  0.8271  0.2373
15664TIP3    H168483   2.052   1.671  14.212  1.0605  1.2852 -0.1154
15664TIP3    H268484   2.119   1.544  14.261 -1.1366  0.3564  0.6128
15665TIP3   OH268485   6.390   0.586   5.565 -0.2993  0.1997  0.4458
15665TIP3    H168486   6.374   0.631   5.482 -2.3308  0.6192  1.0017
15665TIP3    H268487   6.371   0.494   5.545 -1.4542  0.3909  0.5604
15666TIP3   OH268488   0.767   1.044   3.739  0.1210  0.3778  0.5398
15666TIP3    H168489   0.676   1.071   3.726 -0.0996 -0.4979  0.1416
15666TIP3    H268490   0.760   0.957   3.779  0.7229 -1.0751 -2.3037
15667TIP3   OH268491   4.872   1.011  11.063 -0.5168  0.2056  0.5430
15667TIP3    H168492   4.806   0.997  11.131 -0.4654 -1.4409  0.2839
15667TIP3    H268493   4.907   1.098  11.082 -1.6514  0.4559  1.6354
15668TIP3   OH268494   5.648   6.531   5.998  0.4030  0.4248 -0.0478
15668TIP3    H168495   5.676   6.584   6.073  0.1429 -0.0952  0.4237
15668TIP3    H268496   5.697   6.568   5.924 -0.6190  2.0637  0.0450
15669TIP3   OH268497   4.708   5.978   6.044 -0.0823  0.0622 -0.4173
15669TIP3    H168498   4.803   5.982   6.050  0.1289  0.0774 -2.7023
15669TIP3    H268499   4.679   5.952   6.132  1.9022  1.4228  0.7145
15670TIP3   OH268500   5.012   2.918   4.793  0.4216  0.1850 -0.0909
15670TIP3    H168501   4.917   2.927   4.787  0.2447 -1.2145  0.2293
15670TIP3    H268502   5.047   2.973   4.723 -0.5895  1.2919  0.2576
15671TIP3   OH268503   1.594   1.154  15.797 -0.7178  0.1129  0.4313
15671TIP3    H168504   1.578   1.062  15.775 -2.7789  0.5971 -0.2659
15671TIP3    H268505   1.621   1.153  15.888  0.8457 -1.3003  0.0080
15672TIP3   OH268506   3.833   2.548   4.206 -1.0601  0.3125  0.0209
15672TIP3    H168507   3.844   2.637   4.172 -0.5873  0.9587  1.7866
15672TIP3    H268508   3.799   2.560   4.294  1.2990 -1.1259  1.2325
15673TIP3   OH268509   6.369   2.080  12.140 -0.0354  0.3211 -0.1802
15673TIP3    H168510   6.427   2.117  12.206  0.3140  0.3258 -0.4852
15673TIP3    H268511   6.353   2.151  12.078  1.2060 -0.2058 -1.1498
15674TIP3   OH268512   0.952   6.426   5.523  0.0113 -0.3984  0.7700
15674TIP3    H168513   0.947   6.514   5.560 -0.0009 -0.8024  1.7848
15674TIP3    H268514   0.951   6.439   5.429  0.1598  0.6969  0.9041
15675TIP3   OH268515   4.995   2.667   1.496 -0.2328  0.1171 -0.3164
15675TIP3    H168516   4.961   2.730   1.432 -2.0355 -0.7718 -0.2907
15675TIP3    H268517   5.080   2.641   1.461  0.5152  2.4208 -0.3969
15676TIP3   OH268518   0.613   3.112  11.500 -0.2463 -0.2794 -0.7785
15676TIP3    H168519   0.708   3.105  11.513 -0.3026 -0.7339 -0.5801
15676TIP3    H268520   0.592   3.040  11.441 -0.5122 -0.3770 -0.5691
15677TIP3   OH268521   1.594   2.152   0.860 -0.0158  0.3110 -0.2240
15677TIP3    H168522   1.535   2.108   0.920 -0.5846  1.6930  0.2894
15677TIP3    H268523   1.535   2.200   0.800  0.5642  1.2628 -0.0498
15678TIP3   OH268524   1.656   5.841   3.613  0.1569  0.2350 -0.5108
15678TIP3    H168525   1.684   5.847   3.521  0.5783  0.3046 -0.3830
15678TIP3    H268526   1.730   5.878   3.662 -0.6491  1.5633 -0.2344
15679TIP3   OH268527   4.824   6.513  15.274  0.1265 -0.0092 -0.1521
15679TIP3    H168528   4.787   6.519  15.186 -0.5361  1.0807  0.1790
15679TIP3    H268529   4.787   6.432  15.311 -0.2620 -0.0236 -0.5724
15680TIP3   OH268530   5.331   2.018  12.637 -0.1643  0.9242  0.1593
15680TIP3    H168531   5.353   2.093  12.582  1.1960  0.4412  0.0039
15680TIP3    H268532   5.299   1.952  12.575  2.3377  0.0071 -0.2800
15681TIP3   OH268533   5.935   3.418  10.837 -0.5294 -0.1623 -0.0079
15681TIP3    H168534   5.906   3.462  10.916  3.2439  0.6010  1.1910
15681TIP3    H268535   5.972   3.335  10.867  0.7101  0.0126 -0.9442
15682TIP3   OH268536   1.104   5.684  11.821  0.7449  0.2303  0.1531
15682TIP3    H168537   1.117   5.609  11.763 -0.7810  0.6466 -0.7903
15682TIP3    H268538   1.124   5.760  11.767 -0.4615  0.6107  0.1974
15683TIP3   OH268539   4.754   1.196   0.617 -0.1266 -0.6194 -0.1347
15683TIP3    H168540   4.697   1.217   0.690 -0.1398 -2.1368  0.3230
15683TIP3    H268541   4.703   1.221   0.539 -0.1246  0.9628  0.3290
15684TIP3   OH268542   4.854   3.844  16.203 -0.1304  0.3422  0.2564
15684TIP3    H168543   4.897   3.872  16.284 -1.5414 -2.5159  2.1753
15684TIP3    H268544   4.762   3.869  16.214 -0.6859 -1.5782  0.4152
15685TIP3   OH268545   6.420   6.288   4.091 -0.7466 -0.0385  0.1120
15685TIP3    H168546   6.513   6.270   4.099 -0.6228  1.2358  2.5073
15685TIP3    H268547   6.379   6.232   4.157 -1.5551  0.1729 -0.2003
15686TIP3   OH268548   5.170   1.278   5.633  0.1458  0.1562 -0.1003
15686TIP3    H168549   5.075   1.276   5.626  0.0584 -0.9463  0.9746
15686TIP3    H268550   5.194   1.189   5.660  1.2679  0.9921  1.9118
15687TIP3   OH268551   6.480   0.131  13.028  0.0559  0.0964 -0.5485
15687TIP3    H168552   6.453   0.122  12.937  1.0858 -0.8208 -0.7950
15687TIP3    H268553   6.553   0.069  13.037 -0.8205 -0.7496  1.2245
15688TIP3   OH268554   0.502   0.507   2.785  0.2278 -0.2584  0.9211
15688TIP3    H168555   0.490   0.565   2.710  1.6238 -1.0387  0.0583
15688TIP3    H268556   0.421   0.457   2.790 -0.1549  0.2952  0.3775
15689TIP3   OH268557   4.256   3.926  10.900 -0.0563  0.2214 -0.7131
15689TIP3    H168558   4.245   4.002  10.957  2.6872  1.1884 -1.3208
15689TIP3    H268559   4.175   3.922  10.850 -0.6986  2.1136  0.0842
15690TIP3   OH268560   3.160   0.934   1.177  0.5038 -0.1865  0.1096
15690TIP3    H168561   3.203   1.009   1.218 -0.0974 -0.1371  0.6568
15690TIP3    H268562   3.231   0.871   1.161  1.1557  0.8049 -1.0910
15691TIP3   OH268563   6.729   3.750  15.011 -0.1371 -0.5394 -0.7127
15691TIP3    H168564   6.693   3.723  15.095  0.9611  0.1852  0.0175
15691TIP3    H268565   6.675   3.823  14.983  0.9432  0.8319  0.5865
15692TIP3   OH268566   5.178   0.516  13.266  0.0142  0.2144 -0.0465
15692TIP3    H168567   5.242   0.453  13.233  0.4500  1.1306 -1.0142
15692TIP3    H268568   5.168   0.495  13.358 -0.7594 -2.0354 -0.5902
15693TIP3   OH268569   1.508   0.475  12.705  0.1516 -0.2842  0.2173
15693TIP3    H168570   1.599   0.471  12.676  0.1130 -1.0413  0.1672
15693TIP3    H268571   1.463   0.526  12.638  0.6799  0.7689  0.6432
15694TIP3   OH268572   2.645   5.225   5.214 -0.0634 -0.0935  0.0232
15694TIP3    H168573   2.644   5.270   5.130 -0.8303  0.6292  0.4038
15694TIP3    H268574   2.713   5.158   5.205 -1.8861 -1.7828 -2.0897
15695TIP3   OH268575   0.070   0.067  16.574  0.0304  0.1202  0.0799
15695TIP3    H168576   0.113   0.055  16.659  0.3665 -0.8261 -0.2047
15695TIP3    H268577  -0.006   0.009  16.577  0.7354 -0.8940 -0.7050
15696TIP3   OH268578   3.864   1.243  16.805  0.0668  0.1082 -0.1761
15696TIP3    H168579   3.877   1.335  16.824 -1.2288 -0.1070  2.1163
15696TIP3    H268580   3.792   1.241  16.742 -1.2683  0.6548  1.2718
15697TIP3   OH268581   5.359   4.054   3.072 -0.3406  0.1021 -0.4256
15697TIP3    H168582   5.396   4.135   3.108 -1.0746 -0.2620  1.2569
15697TIP3    H268583   5.435   4.006   3.038  0.4061  0.5521  0.5399
15698TIP3   OH268584   0.117   6.782   2.026  0.4910  0.4148  0.6666
15698TIP3    H168585   0.033   6.826   2.025  0.1859 -0.1593  0.3085
15698TIP3    H268586   0.122   6.738   2.111  0.6447  0.8488  0.8834
15699TIP3   OH268587   4.462   4.199  14.918  0.3721 -0.1248 -0.1223
15699TIP3    H168588   4.462   4.266  14.986 -0.1882 -0.8870  0.6540
15699TIP3    H268589   4.516   4.129  14.954  1.7724  0.2891 -1.3365
15700TIP3   OH268590   2.855   3.470   3.591  0.5137  0.0718 -0.5275
15700TIP3    H168591   2.804   3.544   3.625 -0.2673 -0.4153 -0.6077
15700TIP3    H268592   2.943   3.505   3.577  0.0300  1.1228 -1.0333
15701TIP3   OH268593   6.080   0.510  15.594  0.3041  0.3097  0.2787
15701TIP3    H168594   6.105   0.603  15.592 -0.0304  0.4216  0.8709
15701TIP3    H268595   6.007   0.503  15.533  0.4476  0.3960  0.0944
15702TIP3   OH268596   0.878   1.825   3.051 -0.0966 -0.0301 -0.0699
15702TIP3    H168597   0.907   1.893   2.990 -0.9626 -0.7500 -1.3403
15702TIP3    H268598   0.866   1.871   3.134  0.9463  1.0222 -0.4651
15703TIP3   OH268599   5.613   3.719  12.847  0.2242 -0.3451  0.2276
15703TIP3    H168600   5.565   3.666  12.910 -0.0650 -0.0414  0.2664
15703TIP3    H268601   5.557   3.721  12.769 -1.2482  2.3999  1.2417
15704TIP3   OH268602   2.003   6.180  12.131 -0.7109  0.8755 -0.8152
15704TIP3    H168603   2.030   6.203  12.220  2.4630 -1.3028 -1.0442
15704TIP3    H268604   1.959   6.258  12.098 -0.8670  2.2006  2.2053
15705TIP3   OH268605   2.562   4.159   4.928 -0.2159  0.1367 -0.0695
15705TIP3    H168606   2.602   4.246   4.928  1.1820 -0.4560  1.3955
15705TIP3    H268607   2.632   4.100   4.899  0.2672 -0.9857  3.0210
15706TIP3   OH268608   5.698   5.880  16.020  0.2991  0.0054  0.1074
15706TIP3    H168609   5.618   5.912  16.061  0.8879  0.0075  1.2957
15706TIP3    H268610   5.733   5.956  15.974 -0.3338  0.0261 -0.3446
15707TIP3   OH268611   1.729   6.532  13.100  0.1564  0.5825 -0.7535
15707TIP3    H168612   1.818   6.503  13.120  1.2212  2.3875 -2.4525
15707TIP3    H268613   1.692   6.460  13.049  0.8856  0.0877 -0.6068
15708TIP3   OH268614   3.304   3.683   5.039  0.3377 -0.2152  0.2324
15708TIP3    H168615   3.252   3.727   5.106  1.7087 -1.2198  2.0431
15708TIP3    H268616   3.301   3.590   5.063  1.2384 -0.5463 -0.8392
15709TIP3   OH268617   6.007   4.387  12.925 -0.3919  1.0026  0.0242
15709TIP3    H168618   6.003   4.402  13.019 -0.0151  1.8399 -0.0778
15709TIP3    H268619   5.993   4.293  12.914 -1.6622  1.0882  0.8216
15710TIP3   OH268620   6.737   5.369  15.257 -0.4352 -0.1052  0.2347
15710TIP3    H168621   6.690   5.375  15.174  1.6759  1.8646 -0.9349
15710TIP3    H268622   6.814   5.316  15.238 -0.0180  0.2083  0.9792
15711TIP3   OH268623   6.512   5.070   2.042  0.5393  0.3449  0.1052
15711TIP3    H168624   6.436   5.114   2.080  0.6643  1.1362 -0.5301
15711TIP3    H268625   6.476   5.000   1.988  0.3720 -1.3459  2.2546
15712TIP3   OH268626   3.569   1.927   1.308  0.1064 -0.3930 -0.1770
15712TIP3    H168627   3.537   1.838   1.294 -1.4575 -0.0457  0.9798
15712TIP3    H268628   3.655   1.915   1.349  0.6610 -1.3347 -1.5219
15713TIP3   OH268629   6.579   5.363   4.908  0.5867  0.8915  0.7481
15713TIP3    H168630   6.652   5.376   4.968  0.8915  2.9444  0.0091
15713TIP3    H268631   6.547   5.451   4.890 -1.6605  0.0934  0.5234
15714TIP3   OH268632   2.190   0.319   3.735 -0.4771 -0.2871  0.3914
15714TIP3    H168633   2.270   0.337   3.785 -0.7007  0.2748  0.5620
15714TIP3    H268634   2.212   0.244   3.680 -0.5523 -1.6553  2.1242
15715TIP3   OH268635   6.441   2.905  12.914  0.0573  0.0511 -0.3854
15715TIP3    H168636   6.434   2.899  13.009  0.4317  1.9102 -0.2082
15715TIP3    H268637   6.433   2.814  12.884  0.5348 -0.6412  1.4442
15716TIP3   OH268638   2.211   3.043   2.263 -0.1237 -0.1465 -0.6418
15716TIP3    H168639   2.189   3.136   2.264 -1.3643 -0.3578 -2.4183
15716TIP3    H268640   2.129   2.999   2.240 -0.0037 -1.8772  1.8504
15717TIP3   OH268641   6.628   5.295   1.940  0.1310 -0.4184  0.2814
15717TIP3    H168642   6.604   5.208   1.971 -0.3423 -0.4006 -0.0409
15717TIP3    H268643   6.724   5.294   1.940  0.1315 -1.0675 -0.0817
15718TIP3   OH268644   1.501   6.774   4.767 -0.7189  0.4844  0.4094
15718TIP3    H168645   1.411   6.762   4.797 -0.6899 -2.4395 -0.3258
15718TIP3    H268646   1.541   6.832   4.831 -2.6215  0.3420  1.8074
15719TIP3   OH268647   2.075   4.341   2.412  0.1168  0.0264 -0.5584
15719TIP3    H168648   2.077   4.358   2.506 -1.3361 -2.0856 -0.0508
15719TIP3    H268649   2.029   4.257   2.405  0.6141 -0.0955 -3.1325
15720TIP3   OH268650   1.126   3.017   1.929  0.4754  0.1314  0.1062
15720TIP3    H168651   1.169   3.070   1.863  1.3021  0.8366  1.1742
15720TIP3    H268652   1.174   3.036   2.010 -0.1231 -1.1561  0.7946
15721TIP3   OH268653   0.807   3.500   5.197  0.1335  0.1409  0.2905
15721TIP3    H168654   0.799   3.478   5.290  1.1542  2.1768  0.9084
15721TIP3    H268655   0.732   3.556   5.179  0.8776  1.1681  0.3510
15722TIP3   OH268656   3.143   3.371   1.050 -0.4358 -0.4416  0.1325
15722TIP3    H168657   3.059   3.326   1.037  0.1948 -1.6325  0.0114
15722TIP3    H268658   3.193   3.350   0.971 -0.1465  0.5787  0.0317
15723TIP3   OH268659   6.192   5.244  12.371  0.4898  0.0019 -0.0915
15723TIP3    H168660   6.260   5.305  12.399  0.3298 -1.0792  3.0577
15723TIP3    H268661   6.110   5.291  12.387  0.4160 -0.2231  0.1989
15724TIP3   OH268662   5.301   2.035   3.393  0.4329  0.4344  0.7678
15724TIP3    H168663   5.225   2.052   3.449 -0.6166 -0.2601 -0.4215
15724TIP3    H268664   5.309   2.114   3.339  0.3386  0.3615  0.6471
15725TIP3   OH268665   3.943   6.200   5.062  0.0152 -0.4084  0.0048
15725TIP3    H168666   4.016   6.161   5.014  0.9029  1.9365 -0.6819
15725TIP3    H268667   3.876   6.217   4.996  0.0086  0.0263  0.1175
15726TIP3   OH268668   6.417   5.166  12.089  0.1867  0.3389  0.1941
15726TIP3    H168669   6.453   5.161  12.177  1.9133  1.3885 -0.4122
15726TIP3    H268670   6.458   5.094  12.041  0.8674  1.0326 -0.2829
15727TIP3   OH268671   2.146   1.861   4.362 -0.4358  0.3725  0.2191
15727TIP3    H168672   2.172   1.938   4.312  0.0149 -0.1577 -0.3679
15727TIP3    H268673   2.219   1.800   4.354 -0.0652  0.5245  2.0756
15728TIP3   OH268674   5.000   6.223   2.434  0.7232 -0.1389 -0.0562
15728TIP3    H168675   5.063   6.249   2.501  0.6351 -0.8731  0.3128
15728TIP3    H268676   4.972   6.306   2.395 -0.1330  0.4059  1.6323
15729TIP3   OH268677   1.617   1.093   5.111 -0.9049  0.7375  0.0276
15729TIP3    H168678   1.686   1.159   5.119  0.9133 -1.1612  1.0919
15729TIP3    H268679   1.559   1.110   5.185 -1.4142  2.1316 -0.6655
15730TIP3   OH268680   4.745   2.065  11.276  0.3061 -0.0720 -0.1802
15730TIP3    H168681   4.750   2.051  11.182  0.2737  1.7992 -0.4987
15730TIP3    H268682   4.834   2.048  11.308  0.6986  0.7390 -0.7964
15731TIP3   OH268683   6.451   0.833  16.725 -0.8410  0.4311  0.8121
15731TIP3    H168684   6.362   0.805  16.703 -1.3276  0.9674  2.0176
15731TIP3    H268685   6.440   0.889  16.802  0.5734  0.2518  1.1658
15732TIP3   OH268686   6.329   1.837  15.489 -0.1228 -0.1251  0.3186
15732TIP3    H168687   6.290   1.752  15.466  0.4755  0.2860 -2.6233
15732TIP3    H268688   6.339   1.833  15.584 -0.6389 -3.1156  0.3660
15733TIP3   OH268689   0.357   3.646  16.721  0.3515 -0.2488 -0.0636
15733TIP3    H168690   0.397   3.602  16.795  0.1029 -1.4501 -0.6248
15733TIP3    H268691   0.269   3.609  16.715 -0.6114  1.7470  0.6420
15734TIP3   OH268692   2.712   4.338   3.539  0.5290  0.4444 -0.0975
15734TIP3    H168693   2.665   4.255   3.531 -1.1853  1.3125  0.2875
15734TIP3    H268694   2.675   4.392   3.468 -0.4176  1.7450  1.3147
15735TIP3   OH268695   4.707   0.619  11.370 -0.6712 -0.7490  0.1472
15735TIP3    H168696   4.777   0.682  11.383 -0.3482 -1.0653 -0.0364
15735TIP3    H268697   4.632   0.656  11.417 -0.6601  0.0562 -0.4601
15736TIP3   OH268698   6.624   6.398   5.949 -0.1337 -0.0602  0.5787
15736TIP3    H168699   6.570   6.438   6.017 -0.3627  0.7083 -0.0414
15736TIP3    H268700   6.627   6.305   5.972  0.0783  0.2351  1.8226
15737TIP3   OH268701   0.679   3.322  13.394  0.0832  0.7904 -0.1216
15737TIP3    H168702   0.672   3.322  13.489  1.4381  0.9109  0.0016
15737TIP3    H268703   0.664   3.231  13.368  1.6352  0.3561  0.4001
15738TIP3   OH268704   4.635   1.667   6.664  0.0360  0.1125  0.0484
15738TIP3    H168705   4.650   1.740   6.603  0.7812  0.3094  0.4498
15738TIP3    H268706   4.685   1.691   6.742  2.3682 -1.9232 -0.6937
15739TIP3   OH268707   2.612   3.320   0.087  0.6563 -0.2445 -0.1722
15739TIP3    H168708   2.616   3.243   0.030 -0.1441  0.1750 -0.8142
15739TIP3    H268709   2.520   3.326   0.113  0.4070  1.2927 -1.2714
15740TIP3   OH268710   3.261   3.306   3.459  0.3668 -0.5146  0.2674
15740TIP3    H168711   3.289   3.330   3.548 -1.9136 -0.9043  1.1758
15740TIP3    H268712   3.340   3.313   3.406  1.8446 -0.4057  2.3532
15741TIP3   OH268713   1.844   2.706  16.132  0.0276 -0.1471 -0.5675
15741TIP3    H168714   1.857   2.753  16.214  0.1286 -0.6193 -0.3134
15741TIP3    H268715   1.752   2.719  16.111  0.3627  1.3932 -1.2601
15742TIP3   OH268716   6.044   0.674  10.620  0.4193 -0.3527 -0.6786
15742TIP3    H168717   6.115   0.717  10.667  0.9736 -3.9016  2.1807
15742TIP3    H268718   6.087   0.636  10.543  1.6269 -1.9341  0.6964
15743TIP3   OH268719   0.106   3.425  14.702  0.2972 -0.2664 -0.0131
15743TIP3    H168720   0.099   3.360  14.771  1.5842 -1.8477 -1.2777
15743TIP3    H268721   0.171   3.389  14.641  0.3432  1.7554 -1.2746
15744TIP3   OH268722   2.901   4.201  15.811 -0.3438  0.3680 -0.0845
15744TIP3    H168723   2.855   4.125  15.848 -1.9680  1.7476  0.8776
15744TIP3    H268724   2.950   4.238  15.884 -0.2470  0.7209 -0.3264
15745TIP3   OH268725   0.405   4.313   0.333  0.4089  0.5049  0.4910
15745TIP3    H168726   0.429   4.221   0.340 -1.6997 -0.1391  0.1019
15745TIP3    H268727   0.432   4.352   0.416  0.2021 -0.7638  1.1661
15746TIP3   OH268728   6.549   6.383  14.970 -0.4095  0.5473  0.2159
15746TIP3    H168729   6.523   6.327  15.043  0.4595 -0.4369 -0.1975
15746TIP3    H268730   6.598   6.324  14.911 -1.4206  1.2051 -1.3485
15747TIP3   OH268731   1.554   4.048   5.658 -0.0297  0.0543  0.2189
15747TIP3    H168732   1.581   4.109   5.726  0.4227 -0.1833  0.2573
15747TIP3    H268733   1.619   4.060   5.588 -0.2140 -0.0437  0.0305
15748TIP3   OH268734   5.985   4.661  15.659 -0.0124  0.3479 -0.5752
15748TIP3    H168735   5.949   4.667  15.748  0.1454 -1.9317 -0.2914
15748TIP3    H268736   5.921   4.706  15.604 -0.6344  0.8984  0.5631
15749TIP3   OH268737   6.353   1.326   6.097  0.4015 -0.1615 -0.1054
15749TIP3    H168738   6.306   1.407   6.076 -0.1556 -0.2716  0.6561
15749TIP3    H268739   6.385   1.340   6.187  3.7176  0.7778 -1.2848
15750TIP3   OH268740   6.379   0.265  17.072 -0.0045 -0.3688 -0.2967
15750TIP3    H168741   6.409   0.295  17.157  0.9770 -1.0869 -0.3798
15750TIP3    H268742   6.459   0.238  17.026 -0.5661 -0.4195 -1.2679
15751TIP3   OH268743   4.032   4.239  15.098 -0.1201 -0.5010  0.6797
15751TIP3    H168744   4.108   4.182  15.116 -0.2154 -0.0609  2.6514
15751TIP3    H268745   4.049   4.273  15.010  1.4387 -1.2556  0.6421
15752TIP3   OH268746   3.818   5.444   0.208 -0.1014 -0.4780  0.0486
15752TIP3    H168747   3.764   5.366   0.196 -0.3720  0.0420 -3.0471
15752TIP3    H268748   3.887   5.417   0.267 -2.3653 -1.8524  2.2617
15753TIP3   OH268749   0.083   6.527  10.628  0.2225  0.9218  0.0919
15753TIP3    H168750   0.026   6.599  10.654  0.0476  0.4327  1.0993
15753TIP3    H268751   0.168   6.568  10.612 -0.6141  1.8490 -2.5455
15754TIP3   OH268752   2.935   0.980  15.629 -0.4513 -0.4141  0.3825
15754TIP3    H168753   2.956   1.072  15.612 -0.5386 -0.3557  0.5872
15754TIP3    H268754   3.019   0.935  15.625 -0.6129 -0.6198 -1.5257
15755TIP3   OH268755   6.151   5.120   4.457 -0.2574  0.2743 -0.1510
15755TIP3    H168756   6.158   5.063   4.380  2.2427 -0.6963  0.6811
15755TIP3    H268757   6.059   5.118   4.481 -0.3805 -3.0937 -0.4562
15756TIP3   OH268758   0.207   3.429  13.523  0.3054  0.2189 -0.0583
15756TIP3    H168759   0.242   3.493  13.461 -1.4951  1.6723  0.3439
15756TIP3    H268760   0.224   3.466  13.609 -2.3485  1.1589  0.1572
15757TIP3   OH268761   6.257   3.373  14.573 -0.3008 -0.2359  0.3360
15757TIP3    H168762   6.350   3.381  14.551 -0.3066  1.4518  0.7565
15757TIP3    H268763   6.216   3.447  14.529 -1.1697 -0.0085  1.4733
15758TIP3   OH268764   3.873   1.594  12.584  0.4459  0.1426 -0.7464
15758TIP3    H168765   3.795   1.622  12.536 -0.6684 -1.7604 -0.1517
15758TIP3    H268766   3.839   1.554  12.664  2.0267 -0.7530 -0.4819
15759TIP3   OH268767   2.985   1.942  12.284  0.0340  0.0967 -0.7513
15759TIP3    H168768   2.917   1.997  12.244 -0.0583  1.0138  0.6337
15759TIP3    H268769   3.043   2.003  12.329  0.4708 -0.8682  0.0304
15760TIP3   OH268770   0.306   1.742   0.149 -0.3819  0.4078 -0.3194
15760TIP3    H168771   0.280   1.751   0.057 -0.9413  2.1252 -0.0283
15760TIP3    H268772   0.322   1.648   0.160 -0.1028  0.1922 -2.2158
15761TIP3   OH268773   0.194   4.554   0.348 -0.0219 -0.0649 -0.1764
15761TIP3    H168774   0.159   4.548   0.259 -0.4568 -0.1030 -0.0055
15761TIP3    H268775   0.249   4.476   0.357 -0.0805 -0.1286 -0.3649
15762TIP3   OH268776   2.497   0.450  15.016  0.7889 -0.2617 -0.4433
15762TIP3    H168777   2.426   0.492  15.065  0.8953  0.9915 -1.3205
15762TIP3    H268778   2.542   0.522  14.973  2.2279 -1.1001 -0.4045
15763TIP3   OH268779   1.004   5.966   2.024  0.0216  0.3332 -0.6854
15763TIP3    H168780   1.017   6.057   2.048 -1.4744  0.3505  0.1624
15763TIP3    H268781   0.934   5.935   2.081 -0.1223 -1.0959 -1.5661
15764TIP3   OH268782   6.485   4.921   2.337  0.6675 -0.0749 -0.5729
15764TIP3    H168783   6.529   4.919   2.252 -0.3943  0.1651 -1.1424
15764TIP3    H268784   6.428   4.998   2.333  1.9683  1.0361  1.0738
15765TIP3   OH268785   6.550   6.015   5.661  0.1822  0.0895  0.0088
15765TIP3    H168786   6.480   6.071   5.694 -0.5379  0.4298 -1.9558
15765TIP3    H268787   6.539   6.016   5.566  2.1998 -0.7325 -0.2885
15766TIP3   OH268788   3.751   2.394  14.633 -0.4909  0.2544  0.3781
15766TIP3    H168789   3.724   2.483  14.654  2.8273  1.1820  1.4016
15766TIP3    H268790   3.786   2.401  14.544 -3.9909 -1.1035 -1.2885
15767TIP3   OH268791   2.060   5.987   1.623 -0.5152 -0.0716  0.8387
15767TIP3    H168792   2.099   6.070   1.597  0.7369 -0.4869  1.3026
15767TIP3    H268793   2.107   5.962   1.703  0.8455 -2.3787 -0.5605
15768TIP3   OH268794   4.475   2.740  15.636 -0.3531 -0.1448 -0.2258
15768TIP3    H168795   4.462   2.783  15.721  0.8876  0.7180 -0.4535
15768TIP3    H268796   4.569   2.722  15.632 -0.6322 -1.6542 -0.7430
15769TIP3   OH268797   0.664   6.248  15.522 -0.4304  0.1583  0.5671
15769TIP3    H168798   0.717   6.322  15.550  1.7998 -1.8969  2.2324
15769TIP3    H268799   0.696   6.226  15.434  1.1490 -0.6691  1.3066
15770TIP3   OH268800   1.295   2.877  16.424  0.7853  0.3143  0.2847
15770TIP3    H168801   1.376   2.879  16.374  0.7384 -0.4287  0.1679
15770TIP3    H268802   1.313   2.818  16.498  0.0744 -0.6330 -0.2637
15771TIP3   OH268803   0.420   4.597  14.420 -0.6514 -0.5276 -0.2110
15771TIP3    H168804   0.499   4.642  14.448 -1.0544  0.7614 -1.0306
15771TIP3    H268805   0.367   4.588  14.500 -0.2530 -0.1902  0.0907
15772TIP3   OH268806   1.275   0.146   3.792 -0.2319 -0.0768 -0.1655
15772TIP3    H168807   1.355   0.136   3.844 -0.2402 -0.3784 -0.2065
15772TIP3    H268808   1.269   0.064   3.741 -1.0289 -0.4426  0.4901
15773TIP3   OH268809   3.457   3.366   4.852 -0.0829 -0.0842  0.4639
15773TIP3    H168810   3.495   3.392   4.936 -0.0873 -0.3890  0.5586
15773TIP3    H268811   3.454   3.271   4.855 -1.8360 -0.0600  0.9097
15774TIP3   OH268812   2.041   3.982   3.725 -0.0489  0.8105  0.0752
15774TIP3    H168813   1.951   3.950   3.717 -0.0472  1.2371 -2.1258
15774TIP3    H268814   2.079   3.927   3.794 -1.4745 -0.5998 -0.1940
15775TIP3   OH268815   3.520   3.919  13.573 -0.2045 -0.2788 -0.3407
15775TIP3    H168816   3.603   3.962  13.596 -0.6656 -0.3195  1.5596
15775TIP3    H268817   3.492   3.963  13.492  2.7033 -1.7570 -2.3326
15776TIP3   OH268818   0.471   2.352   4.679  0.0229  0.2632  0.5442
15776TIP3    H168819   0.408   2.291   4.640  0.1431  0.4714  0.0283
15776TIP3    H268820   0.508   2.400   4.605  3.8829 -2.7006  0.2199
15777TIP3   OH268821   0.299   3.129  11.576  0.2201  0.0296  0.7588
15777TIP3    H168822   0.274   3.160  11.663  1.0744 -0.6392  1.2686
15777TIP3    H268823   0.388   3.096  11.588  0.7452  0.8576 -0.6071
15778TIP3   OH268824   3.538   1.783  16.030 -0.5032 -0.0735 -0.2913
15778TIP3    H168825   3.462   1.745  16.074 -0.6242  1.0661  0.5150
15778TIP3    H268826   3.546   1.871  16.067  2.2055 -0.7351  0.9377
15779TIP3   OH268827   5.226   4.308   3.884  0.1284  0.6141  0.0547
15779TIP3    H168828   5.244   4.399   3.860  0.8279  0.2309 -0.9613
15779TIP3    H268829   5.214   4.310   3.979 -0.6476  1.8813 -0.0403
15780TIP3   OH268830   6.044   4.388   3.698 -0.1993  0.0418 -0.0101
15780TIP3    H168831   6.127   4.402   3.653 -0.3934 -0.0452 -0.3974
15780TIP3    H268832   5.980   4.437   3.647 -0.5543 -0.6730 -0.2768
15781TIP3   OH268833   6.455   5.297   4.303  0.2377  0.2366  0.3206
15781TIP3    H168834   6.440   5.374   4.359  0.1541  0.0654  0.5348
15781TIP3    H268835   6.427   5.223   4.357  0.9110  0.0020  0.3480
15782TIP3   OH268836   3.859   0.882  12.736  0.0964 -0.3744  0.0345
15782TIP3    H168837   3.831   0.959  12.687 -0.2578 -0.6131 -0.1399
15782TIP3    H268838   3.944   0.859  12.699  0.5515  0.3650  0.5805
15783TIP3   OH268839   3.880   2.085  12.878 -0.6583 -0.7445 -0.4050
15783TIP3    H168840   3.895   2.044  12.793 -2.7997  2.2792 -2.4458
15783TIP3    H268841   3.788   2.065  12.898 -1.4375  1.8835 -0.9515
15784TIP3   OH268842   3.069   3.049  11.721 -0.2171 -0.1478  0.6580
15784TIP3    H168843   3.098   3.129  11.677 -0.2798  1.4478  3.3039
15784TIP3    H268844   3.132   3.037  11.793 -1.6898 -0.9833  1.8716
15785TIP3   OH268845   0.235   4.099   1.509 -0.6438  0.3503 -0.1642
15785TIP3    H168846   0.246   4.120   1.416 -3.6006  0.0194 -0.6700
15785TIP3    H268847   0.269   4.176   1.555 -1.3109  1.5688 -1.6255
15786TIP3   OH268848   3.579   0.992  13.635 -0.2956 -0.1463 -0.2468
15786TIP3    H168849   3.569   0.897  13.625  0.9930 -0.1757 -1.5614
15786TIP3    H268850   3.625   1.020  13.556  0.3794  1.4185  0.6577
15787TIP3   OH268851   1.603   1.038   4.281  0.0341  0.2439 -0.3580
15787TIP3    H168852   1.646   1.123   4.293 -1.3917  0.9539  0.0775
15787TIP3    H268853   1.574   1.040   4.189  0.0517  0.2132 -0.3638
15788TIP3   OH268854   0.731   4.228  11.810  0.7110 -0.0220 -0.1147
15788TIP3    H168855   0.732   4.307  11.864 -2.6373 -0.3198  0.6252
15788TIP3    H268856   0.771   4.161  11.866 -0.2780  0.2691  0.9892
15789TIP3   OH268857   6.311   3.179   2.630  0.2313  0.5119 -0.1670
15789TIP3    H168858   6.286   3.097   2.587  0.3866  0.3095  0.1208
15789TIP3    H268859   6.312   3.158   2.723 -1.6999  1.3809  0.0923
15790TIP3   OH268860   0.178   1.576   1.108  0.2988 -0.3146 -0.8585
15790TIP3    H168861   0.189   1.629   1.187 -0.2871 -1.4548  0.0153
15790TIP3    H268862   0.151   1.639   1.041 -0.3634  0.5017  0.1403
15791TIP3   OH268863   6.175   3.235   6.423  0.5356  0.9508  0.2366
15791TIP3    H168864   6.081   3.231   6.438  0.4717  2.2770  0.2975
15791TIP3    H268865   6.214   3.239   6.510  0.5972  1.1208  0.2030
15792TIP3   OH268866   3.783   6.065   2.905 -0.9704 -0.0473 -0.3870
15792TIP3    H168867   3.846   6.008   2.861  0.6867  2.3031 -1.2936
15792TIP3    H268868   3.731   6.007   2.960  1.8229 -2.1653  0.2141
15793TIP3   OH268869   5.233   5.312  15.284  0.4258  0.1896  0.4723
15793TIP3    H168870   5.193   5.281  15.203  1.3021 -0.4136  0.2545
15793TIP3    H268871   5.168   5.371  15.322  0.1104  0.6982 -0.8058
15794TIP3   OH268872   0.281   3.986  16.048  0.4588 -0.4880 -0.4405
15794TIP3    H168873   0.215   3.931  16.004 -1.2637  0.9307  0.2281
15794TIP3    H268874   0.238   4.071  16.057  2.1698  0.3069  0.6528
15795TIP3   OH268875   4.207   3.561  11.974 -0.4428 -0.4399  0.2311
15795TIP3    H168876   4.245   3.473  11.976 -0.8314 -0.6074  0.5224
15795TIP3    H268877   4.185   3.579  12.066  0.0918  0.1639  0.2459
15796TIP3   OH268878   3.248   1.016  15.796  0.1853 -0.2165 -0.2735
15796TIP3    H168879   3.301   0.941  15.772  2.5604  1.2973 -0.0900
15796TIP3    H268880   3.202   0.989  15.876  0.6642 -1.5943 -0.4524
15797TIP3   OH268881   0.847   1.011  15.670 -0.0128  0.0377  0.0947
15797TIP3    H168882   0.850   0.962  15.753  1.7273  0.6645  0.4601
15797TIP3    H268883   0.848   0.944  15.602 -2.1808 -0.5129  0.5325
15798TIP3   OH268884   5.175   4.317  14.088  0.2706  0.0947 -0.0797
15798TIP3    H168885   5.243   4.383  14.099 -0.7683  1.1121  0.3703
15798TIP3    H268886   5.147   4.295  14.176  0.7655 -1.1645 -0.2030
15799TIP3   OH268887   6.191   1.834   4.696 -0.6785 -0.5565  0.1087
15799TIP3    H168888   6.217   1.743   4.712  0.0595 -0.6065 -1.2587
15799TIP3    H268889   6.243   1.884   4.759 -0.3728 -0.9984  0.2192
15800TIP3   OH268890   3.219   4.430  15.697 -0.2703  0.5030  0.3416
15800TIP3    H168891   3.156   4.413  15.628 -1.3537  0.9744  1.1827
15800TIP3    H268892   3.294   4.469  15.653 -0.7871  0.4410 -0.6012
15801TIP3   OH268893   3.102   5.016  12.055  0.3153  0.0076  0.2138
15801TIP3    H168894   3.099   4.928  12.093  1.3588  0.1373  0.6398
15801TIP3    H268895   3.189   5.048  12.077 -0.1771  1.2824  0.3421
15802TIP3   OH268896   5.179   1.825   0.852 -0.2755  0.0199 -0.0611
15802TIP3    H168897   5.205   1.733   0.855 -0.6770 -0.1207 -0.7164
15802TIP3    H268898   5.109   1.828   0.787 -1.1920  0.5719  0.9280
15803TIP3   OH268899   0.902   6.155  12.659  0.4649 -0.3555 -0.7066
15803TIP3    H168900   0.956   6.224  12.698  0.8324 -1.1413  0.2135
15803TIP3    H268901   0.877   6.190  12.574 -0.4321  1.4668  0.2285
15804TIP3   OH268902   6.317   6.172   6.128  0.2366 -0.1788 -0.0892
15804TIP3    H168903   6.368   6.183   6.208 -2.3326  2.5576  1.3489
15804TIP3    H268904   6.328   6.255   6.080 -0.3467 -0.7621 -1.2917
15805TIP3   OH268905   4.427   6.645   3.113  0.5062 -0.1812 -0.1876
15805TIP3    H168906   4.417   6.718   3.052 -0.0381  0.3801  0.5743
15805TIP3    H268907   4.412   6.682   3.199  1.3909 -0.9493  0.3226
15806TIP3   OH268908   0.312   4.347   2.028  0.1817  0.6447  0.0135
15806TIP3    H168909   0.261   4.267   2.036 -0.8381  1.3917  1.2734
15806TIP3    H268910   0.387   4.334   2.087 -1.4466  1.6748  2.4407
15807TIP3   OH268911   2.694   4.597  16.336 -0.1442  0.0061  0.7409
15807TIP3    H168912   2.763   4.613  16.271  0.3223  0.1568  1.2713
15807TIP3    H268913   2.739   4.597  16.420 -0.8588  0.5976  1.1390
15808TIP3   OH268914   6.791   3.139   2.536 -0.0499 -0.0404 -0.2078
15808TIP3    H168915   6.862   3.145   2.473 -0.0093  0.2125 -0.1422
15808TIP3    H268916   6.717   3.183   2.494 -0.0984 -0.0964 -0.1819
15809TIP3   OH268917   4.903   1.576   2.801 -0.0010  0.1615  0.0487
15809TIP3    H168918   4.917   1.482   2.790  1.8812  0.5550 -1.3964
15809TIP3    H268919   4.954   1.599   2.878  0.3590  0.1669 -0.1917
15810TIP3   OH268920   2.589   0.710  16.078  0.2654  0.4084 -0.0707
15810TIP3    H168921   2.565   0.728  16.169  0.1886 -0.6799  0.1436
15810TIP3    H268922   2.509   0.729  16.028  0.6526  2.1587 -0.0888
15811TIP3   OH268923   6.283   1.341  11.919  0.2678  0.1238  0.0887
15811TIP3    H168924   6.352   1.388  11.965  2.2100 -1.1056 -1.3976
15811TIP3    H268925   6.311   1.342  11.827 -1.0067 -1.5546 -0.3619
15812TIP3   OH268926   5.218   0.161  11.732  0.0026 -0.3186 -0.2216
15812TIP3    H168927   5.305   0.124  11.720  0.3921  0.5922 -0.2541
15812TIP3    H268928   5.176   0.152  11.647  0.3796  0.0333 -0.4489
15813TIP3   OH268929   0.430   6.213   4.934  0.1265  0.0937  0.0002
15813TIP3    H168930   0.476   6.173   5.007  1.3784 -0.4919 -1.0728
15813TIP3    H268931   0.347   6.166   4.929  0.4804 -0.5782  0.3960
15814TIP3   OH268932   2.552   4.771   0.767 -0.6310 -0.1968  0.1092
15814TIP3    H168933   2.559   4.708   0.695 -0.0146 -1.5636  1.3144
15814TIP3    H268934   2.578   4.721   0.844  0.4453  1.7140  1.0373
15815TIP3   OH268935   1.094   3.315  14.426 -0.2416  0.1130 -0.0166
15815TIP3    H168936   1.144   3.395  14.438 -1.0968  0.5871  0.4952
15815TIP3    H268937   1.107   3.292  14.334  1.0230  0.1331  0.1398
15816TIP3   OH268938   3.508   0.681   3.657 -0.4167 -0.3373  0.5358
15816TIP3    H168939   3.470   0.753   3.607  1.8618  0.3534 -0.3249
15816TIP3    H268940   3.465   0.603   3.622 -0.2596  0.3071 -1.1812
15817TIP3   OH268941   6.829   1.872   5.403 -0.2749 -0.6670  0.0686
15817TIP3    H168942   6.821   1.830   5.488 -0.4518 -1.5658 -0.3704
15817TIP3    H268943   6.911   1.921   5.408 -0.3744 -0.5654  0.8070
15818TIP3   OH268944   2.877   0.331  14.724 -0.6242  1.0450 -0.2789
15818TIP3    H168945   2.852   0.359  14.812 -1.2864  0.3454 -0.2298
15818TIP3    H268946   2.973   0.327  14.726 -0.6650 -1.0579  1.1154
15819TIP3   OH268947   3.926   4.737   5.098 -0.0610  0.8120  0.1355
15819TIP3    H168948   3.982   4.814   5.110 -0.3161  1.1015 -0.4687
15819TIP3    H268949   3.973   4.666   5.142 -0.4892  1.5744  1.9277
15820TIP3   OH268950   5.756   2.450   0.757 -0.8566  0.4211 -0.1488
15820TIP3    H168951   5.773   2.449   0.663  1.5523  2.1330  0.1836
15820TIP3    H268952   5.814   2.383   0.792 -1.1579  0.3411  0.2022
15821TIP3   OH268953   4.932   4.068  11.143 -0.4053  0.0171  0.3267
15821TIP3    H168954   5.007   4.096  11.091 -0.7043  0.3018  0.0491
15821TIP3    H268955   4.903   3.987  11.102 -0.0466 -0.2807  0.6398
15822TIP3   OH268956   4.881   4.426  14.106  0.2432 -0.4667  0.0232
15822TIP3    H168957   4.925   4.430  14.022  0.7896 -0.1067  0.3256
15822TIP3    H268958   4.794   4.389  14.086 -0.2377  1.1151 -0.9316
15823TIP3   OH268959   5.238   5.885   2.234  0.3136  0.4118  0.1004
15823TIP3    H168960   5.257   5.914   2.324 -1.5734  1.0284  0.3492
15823TIP3    H268961   5.305   5.927   2.181  0.3739  1.5427  1.0281
15824TIP3   OH268962   6.040   3.522  16.532  0.3892  0.2709  0.2235
15824TIP3    H168963   6.112   3.513  16.469 -0.8853  0.1621 -1.2688
15824TIP3    H268964   6.004   3.434  16.541  0.5157  0.2932  1.0943
15825TIP3   OH268965   0.558   3.025  16.193 -0.0364  0.1883  0.0139
15825TIP3    H168966   0.532   3.116  16.206 -0.6797 -0.0021  0.1265
15825TIP3    H268967   0.642   3.017  16.238 -0.9700  0.2019  1.8616
15826TIP3   OH268968   0.111   1.631   0.634  0.3420 -0.1710 -0.0837
15826TIP3    H168969   0.023   1.631   0.671 -0.4502 -1.5800 -1.7911
15826TIP3    H268970   0.110   1.559   0.571  3.0929 -1.0039  0.6837
15827TIP3   OH268971   0.246   0.276  13.968  0.3101 -0.4912  0.4655
15827TIP3    H168972   0.150   0.267  13.971 -0.1080  2.2436 -1.1793
15827TIP3    H268973   0.268   0.256  13.877  1.1239  0.1851  0.5041
15828TIP3   OH268974   5.228   2.427  15.414  0.1513  0.5068 -0.4632
15828TIP3    H168975   5.315   2.425  15.373 -0.0017  0.0370 -0.7676
15828TIP3    H268976   5.184   2.348  15.382 -0.0346  0.2171  0.4598
15829TIP3   OH268977   0.515   4.864   4.337  0.3252 -0.5360 -0.1474
15829TIP3    H168978   0.510   4.945   4.387 -0.4228 -0.7291  0.1113
15829TIP3    H268979   0.528   4.892   4.247  5.0115 -0.2071  0.3745
15830TIP3   OH268980   0.597   5.423   1.719 -0.5001 -0.5591  0.0660
15830TIP3    H168981   0.611   5.403   1.626  1.9353 -0.9087  0.4518
15830TIP3    H268982   0.525   5.487   1.719  1.1281  1.4526 -2.2978
15831TIP3   OH268983   2.658   4.226  11.481 -0.0484  0.1069  0.4055
15831TIP3    H168984   2.734   4.173  11.505  1.1581  1.1275 -0.9891
15831TIP3    H268985   2.628   4.189  11.398 -0.3759  0.4194  0.3828
15832TIP3   OH268986   2.864   5.776  15.243  0.0434 -0.3897 -0.6922
15832TIP3    H168987   2.816   5.849  15.204 -1.7105 -1.3554 -0.4299
15832TIP3    H268988   2.924   5.747  15.174  0.6536  1.1700 -0.8521
15833TIP3   OH268989   2.714   4.967   4.918 -0.4797 -0.0143  0.1016
15833TIP3    H168990   2.656   4.939   4.847 -1.2257 -0.5810  0.9032
15833TIP3    H268991   2.655   4.989   4.990  0.2797 -0.2939  0.8352
15834TIP3   OH268992   1.047   5.634  12.686 -0.2050  0.0523  0.6077
15834TIP3    H168993   0.999   5.690  12.747 -0.0729 -0.2180  0.9640
15834TIP3    H268994   1.124   5.607  12.735  0.0915  0.1308  0.1884
15835TIP3   OH268995   1.349   1.224  14.511 -0.1127  0.0218  0.1326
15835TIP3    H168996   1.298   1.301  14.535  1.6326  1.4587 -0.5504
15835TIP3    H268997   1.426   1.227  14.569  0.8878 -0.1437 -1.1432
15836TIP3   OH268998   2.241   0.748   1.262 -0.3367  0.3669 -0.5395
15836TIP3    H168999   2.151   0.721   1.243 -0.6769 -0.3389  1.7930
15836TIP3    H269000   2.295   0.676   1.231 -0.7799 -0.3155  0.2499
15837TIP3   OH269001   5.489   1.173  11.556  0.0549 -0.2186  0.1627
15837TIP3    H169002   5.534   1.189  11.473  0.7754 -1.1980  0.3497
15837TIP3    H269003   5.403   1.139  11.530  0.1132 -0.1029 -0.1844
15838TIP3   OH269004   2.355   5.044  11.325  0.1302 -1.0837  0.0905
15838TIP3    H169005   2.262   5.031  11.345  0.1463 -0.7289  0.4045
15838TIP3    H269006   2.357   5.057  11.230 -0.1226 -1.2458  0.0609
15839TIP3   OH269007   1.481   5.138  11.417  0.9300  0.1132  0.2230
15839TIP3    H169008   1.418   5.165  11.484  0.7064 -1.4015  0.6708
15839TIP3    H269009   1.428   5.117  11.341  1.1765  1.7246 -0.4230
15840TIP3   OH269010   3.039   5.403  16.893  0.1088  0.5419 -0.3730
15840TIP3    H169011   3.034   5.369  16.982 -2.1732 -1.7486 -1.2511
15840TIP3    H269012   3.133   5.418  16.877  0.5047  1.9705  2.6442
15841TIP3   OH269013   4.581   5.336  16.076  0.0034  0.1137 -0.0692
15841TIP3    H169014   4.489   5.352  16.096  0.4166  2.3464  0.3773
15841TIP3    H269015   4.580   5.287  15.994 -1.5694 -0.7809  0.4393
15842TIP3   OH269016   5.419   4.686  11.750 -0.5010  0.0619 -0.0355
15842TIP3    H169017   5.506   4.647  11.758  0.2207  1.6665  0.3554
15842TIP3    H269018   5.359   4.611  11.745  0.8117 -1.0722  0.5685
15843TIP3   OH269019   1.750   3.492   0.470 -1.2269  0.0640  0.5556
15843TIP3    H169020   1.765   3.443   0.551 -0.8211 -0.9759 -0.1329
15843TIP3    H269021   1.832   3.540   0.456 -0.7650 -0.8469  0.0385
15844TIP3   OH269022   4.919   1.299   2.812  0.2209  0.0147  0.8939
15844TIP3    H169023   4.876   1.283   2.896 -3.6397 -1.2352 -1.0635
15844TIP3    H269024   4.965   1.217   2.793  0.0611 -0.1563  1.2458
15845TIP3   OH269025   5.898   1.437   0.598  0.3385  0.1397 -0.2264
15845TIP3    H169026   5.852   1.459   0.679  0.3321 -1.4305  0.2282
15845TIP3    H269027   5.829   1.428   0.532  0.2067  0.0778 -0.0800
15846TIP3   OH269028   6.708   6.814   3.570 -0.0480  0.1528 -0.5452
15846TIP3    H169029   6.684   6.724   3.545  0.1607 -0.0490 -0.0289
15846TIP3    H269030   6.630   6.866   3.550 -1.6730 -0.7613  2.7470
15847TIP3   OH269031   0.926   2.778  11.926  0.3633 -0.0311 -0.0746
15847TIP3    H169032   0.887   2.812  12.007 -0.3039 -1.1291  0.0957
15847TIP3    H269033   0.851   2.751  11.873  0.8039  0.5227 -1.0004
15848TIP3   OH269034   5.636   1.492   5.756 -0.0268 -0.6105  0.0303
15848TIP3    H169035   5.629   1.428   5.685 -0.6690  0.2341 -0.6962
15848TIP3    H269036   5.569   1.466   5.819  0.1661 -1.0407  0.0579
15849TIP3   OH269037   1.226   0.383  11.042  0.0900  0.2461  0.4753
15849TIP3    H169038   1.223   0.288  11.055  1.9613 -0.2023 -1.7041
15849TIP3    H269039   1.190   0.396  10.954  0.7191  1.4314  0.3723
15850TIP3   OH269040   0.193   5.044  14.830 -0.1276  0.0996 -0.2569
15850TIP3    H169041   0.117   5.015  14.880 -0.5797  0.8832 -0.4693
15850TIP3    H269042   0.257   5.070  14.896  0.1634 -1.0396 -0.0687
15851TIP3   OH269043   2.042   3.252  13.970 -0.3185 -0.7483 -0.2815
15851TIP3    H169044   1.985   3.212  13.904 -0.7734 -1.1609  0.3484
15851TIP3    H269045   1.989   3.252  14.050 -0.6731  1.9402 -0.4414
15852TIP3   OH269046   4.690   5.673  12.178  0.2749  0.7901  0.2221
15852TIP3    H169047   4.708   5.611  12.249 -0.1375 -0.0113 -0.3560
15852TIP3    H269048   4.751   5.648  12.108 -1.1717 -0.2135 -0.7312
15853TIP3   OH269049   0.293   2.866  16.743  0.2791  0.0277 -0.0858
15853TIP3    H169050   0.250   2.914  16.673 -0.4337 -0.9932 -0.3615
15853TIP3    H269051   0.380   2.905  16.749 -0.0923  0.9653 -0.6771
15854TIP3   OH269052   1.452   2.572   5.211  0.1821  0.2564 -0.1742
15854TIP3    H169053   1.385   2.639   5.221  0.0852  0.2195 -0.5646
15854TIP3    H269054   1.533   2.615   5.240  0.1140  0.5303 -0.3854
15855TIP3   OH269055   0.967   4.754   1.760  0.5320 -0.5505  0.1039
15855TIP3    H169056   1.032   4.806   1.808 -0.1417 -0.4279  0.9131
15855TIP3    H269057   0.884   4.799   1.775  0.1514 -1.0702 -0.3671
15856TIP3   OH269058   2.474   2.522  15.008  0.0207  0.0173 -0.5071
15856TIP3    H169059   2.520   2.498  15.089 -1.8497 -0.9609  0.3148
15856TIP3    H269060   2.529   2.484  14.939  0.5345 -1.0325  0.4292
15857TIP3   OH269061   4.650   4.580   2.787 -0.2972 -0.3740 -0.2765
15857TIP3    H169062   4.664   4.506   2.727 -1.2095 -0.9899  0.2489
15857TIP3    H269063   4.560   4.608   2.772 -1.1588 -1.6389  1.9300
15858TIP3   OH269064   3.114   3.093  13.640 -0.2144 -0.0866  0.0113
15858TIP3    H169065   3.209   3.088  13.654 -0.0829 -1.2575 -1.1793
15858TIP3    H269066   3.085   3.002  13.641 -1.2299  0.2252 -0.3383
15859TIP3   OH269067   2.673   6.714  15.848  0.3189 -0.2429 -0.1143
15859TIP3    H169068   2.762   6.737  15.819 -0.0937  1.0809 -0.4115
15859TIP3    H269069   2.649   6.639  15.795  1.2051 -0.5252 -0.1413
15860TIP3   OH269070   1.006   1.499  15.955  0.6541  0.0592  0.3913
15860TIP3    H169071   1.021   1.590  15.979  2.3237 -0.0396 -0.0830
15860TIP3    H269072   1.064   1.449  16.013  0.7608 -0.5777 -0.2370
15861TIP3   OH269073   0.460   3.178  13.722 -0.1993  0.3024  0.7450
15861TIP3    H169074   0.442   3.269  13.702 -1.2463 -0.1470 -0.4377
15861TIP3    H269075   0.489   3.179  13.814 -0.1880  1.8037  0.7434
15862TIP3   OH269076   5.756   4.689  14.997 -0.3916  0.4445  0.0632
15862TIP3    H169077   5.694   4.624  14.962 -0.9975  0.8034  0.4557
15862TIP3    H269078   5.820   4.636  15.045 -0.2989  0.0570 -0.4656
15863TIP3   OH269079   0.468   3.823   3.581  0.0789 -0.4335  0.8816
15863TIP3    H169080   0.535   3.870   3.532  0.6488 -0.3278  1.7415
15863TIP3    H269081   0.390   3.827   3.525  0.7707 -0.5272 -0.1114
15864TIP3   OH269082   6.581   2.951  10.754 -1.0007  0.0621  0.2504
15864TIP3    H169083   6.505   3.005  10.735 -0.4788  0.7906  0.1878
15864TIP3    H269084   6.627   2.996  10.824  0.1934  0.4859 -0.7488
15865TIP3   OH269085   1.177   0.161   3.015  0.1113  0.4582 -0.0711
15865TIP3    H169086   1.088   0.127   3.029  0.0748  0.7909  0.5332
15865TIP3    H269087   1.232   0.083   3.012 -0.0432  0.3151  0.7696
15866TIP3   OH269088   6.159   4.204  16.625 -0.0732  0.4480 -0.6959
15866TIP3    H169089   6.241   4.197  16.576  1.4987 -0.1777  1.8252
15866TIP3    H269090   6.160   4.128  16.684 -1.5163  1.4755  0.7252
15867TIP3   OH269091   3.153   0.249  16.924 -0.5811 -0.6117  0.5529
15867TIP3    H169092   3.181   0.329  16.969 -1.1556  0.2878 -0.6413
15867TIP3    H269093   3.235   0.209  16.893 -0.3882  0.3179 -0.1601
15868TIP3   OH269094   1.140   2.037  14.843  0.5092 -0.1127  0.2963
15868TIP3    H169095   1.102   2.020  14.757  1.2851 -0.5447  0.0332
15868TIP3    H269096   1.193   2.116  14.832 -0.4617  0.6218  0.7191
15869TIP3   OH269097   2.413   5.580   5.269 -0.5252  0.5095 -0.2342
15869TIP3    H169098   2.348   5.517   5.237 -0.2640 -0.3113  0.7769
15869TIP3    H269099   2.368   5.626   5.340  0.1479 -0.4756  0.8707
15870TIP3   OH269100   3.724   2.608  14.204 -0.3850  0.9549  0.6876
15870TIP3    H169101   3.678   2.528  14.177  2.0007 -0.8384  1.5136
15870TIP3    H269102   3.716   2.610  14.299  0.1778  1.2796  0.7346
15871TIP3   OH269103   6.352   5.598  15.454 -0.6540  0.2032  0.1413
15871TIP3    H169104   6.388   5.511  15.465  0.2801  0.7618  1.9455
15871TIP3    H269105   6.405   5.639  15.385 -1.7953 -0.9485 -1.5024
15872TIP3   OH269106   5.625   3.498   6.047 -0.2463  0.2291  0.2507
15872TIP3    H169107   5.627   3.544   5.963 -2.1596 -0.0294  0.0123
15872TIP3    H269108   5.533   3.504   6.075 -0.2818 -2.2089  0.8933
15873TIP3   OH269109   5.005   0.386  16.655  0.6215 -0.0035  0.1216
15873TIP3    H169110   5.100   0.394  16.668  1.0618 -2.7488 -0.8074
15873TIP3    H269111   4.994   0.387  16.560 -0.1079 -1.0801  0.1816
15874TIP3   OH269112   0.116   2.658  16.772  0.0894  0.4321 -0.6684
15874TIP3    H169113   0.186   2.723  16.762 -0.7349  1.8442  1.7250
15874TIP3    H269114   0.152   2.593  16.832 -0.0276  0.1746 -0.8775
15875TIP3   OH269115   4.386   2.703  12.776  0.0345 -0.2438  0.1258
15875TIP3    H169116   4.299   2.731  12.804  0.2325  1.4310 -0.7860
15875TIP3    H269117   4.421   2.655  12.851 -0.7982  1.0203  1.3905
15876TIP3   OH269118   5.997   0.397   4.373 -0.1309  0.5978  0.3714
15876TIP3    H169119   6.032   0.483   4.349 -2.3391  1.3374 -0.3749
15876TIP3    H269120   5.928   0.416   4.437 -0.7620 -0.5945  0.0688
15877TIP3   OH269121   2.687   2.725  15.535  0.8395 -0.0814 -0.0516
15877TIP3    H169122   2.614   2.668  15.508  0.4701  0.4349 -0.1662
15877TIP3    H269123   2.749   2.720  15.463 -0.5483  2.0057 -1.5151
15878TIP3   OH269124   5.411   2.201  12.433  0.3268  0.1059  0.5283
15878TIP3    H169125   5.458   2.284  12.441 -1.1994  1.0502  0.0980
15878TIP3    H269126   5.382   2.199  12.342 -1.9709  0.4416  1.1862
15879TIP3   OH269127   1.671   0.429  11.665 -0.3278  0.1575  0.3189
15879TIP3    H169128   1.626   0.512  11.680  1.1308  1.0029  0.3170
15879TIP3    H269129   1.711   0.439  11.579 -0.1393 -0.5505  0.3209
15880TIP3   OH269130   0.711   0.266  13.423 -0.1911 -0.1637 -0.4498
15880TIP3    H169131   0.634   0.255  13.367  0.0756 -0.2659 -0.8008
15880TIP3    H269132   0.761   0.185  13.410  0.8681  0.6452 -1.6135
15881TIP3   OH269133   1.381   2.652   4.161  0.4844 -0.0437  0.1137
15881TIP3    H169134   1.455   2.653   4.100  0.3804  0.6125 -0.0143
15881TIP3    H269135   1.421   2.666   4.247  0.6784 -1.4127  0.2716
15882TIP3   OH269136   3.838   4.129   2.824  0.2266  0.3137  0.6139
15882TIP3    H169137   3.818   4.209   2.776 -1.0287 -0.6827 -0.5920
15882TIP3    H269138   3.904   4.085   2.770 -1.6691 -1.1282 -0.6401
15883TIP3   OH269139   1.043   4.587  17.198 -0.3165 -0.2882 -0.0341
15883TIP3    H169140   1.010   4.663  17.245  1.8519  0.4719  0.3912
15883TIP3    H269141   0.978   4.518  17.214 -1.3540  0.9294  1.1784
15884TIP3   OH269142   6.336   3.342   3.016  0.3184 -0.2878  0.5292
15884TIP3    H169143   6.340   3.251   2.986  1.3729 -0.3915  0.9281
15884TIP3    H269144   6.254   3.376   2.980 -0.0095 -1.3460  0.2401
15885TIP3   OH269145   2.146   3.942  12.968  0.7869 -0.0632 -0.6174
15885TIP3    H169146   2.171   4.004  13.036  0.8509 -1.4787  0.6984
15885TIP3    H269147   2.053   3.926  12.984  0.9110 -0.7479 -0.5696
15886TIP3   OH269148   4.225   2.409   0.584 -0.4320 -0.4633  0.2117
15886TIP3    H169149   4.202   2.483   0.527 -1.8161 -0.6015  0.5537
15886TIP3    H269150   4.273   2.349   0.528  1.3721  0.9749  0.0848
15887TIP3   OH269151   6.701   6.270  13.561  0.6185 -0.1164  0.2876
15887TIP3    H169152   6.729   6.260  13.470 -1.2855  0.8460 -0.4665
15887TIP3    H269153   6.660   6.186  13.582 -1.8664  0.6636 -0.9374
15888TIP3   OH269154   5.983   0.738  13.688 -0.0674 -0.3623 -0.0183
15888TIP3    H169155   6.052   0.803  13.675 -0.4458  0.1076  0.2750
15888TIP3    H269156   5.918   0.759  13.622  0.1752 -0.9552 -0.4500
15889TIP3   OH269157   1.614   1.319  10.825  0.6867  0.2555 -0.1547
15889TIP3    H169158   1.611   1.227  10.798 -3.6835 -0.2069  1.1209
15889TIP3    H269159   1.571   1.366  10.753 -1.4276  0.5036  1.1897
15890TIP3   OH269160   6.683   6.773  13.048 -0.1425 -0.1181  0.1792
15890TIP3    H169161   6.681   6.758  13.143  1.4475  1.9721  0.6120
15890TIP3    H269162   6.697   6.686  13.011 -0.7054 -0.9790  1.8407
15891TIP3   OH269163   6.410   2.777  11.811 -0.2495  0.8559 -0.5486
15891TIP3    H169164   6.476   2.788  11.743 -0.6783  3.5399 -0.6432
15891TIP3    H269165   6.387   2.866  11.837 -0.6472 -0.0407  2.6057
15892TIP3   OH269166   0.941   2.568   3.619 -0.2038  0.3291  0.2007
15892TIP3    H169167   0.963   2.508   3.690  1.4890 -0.8849 -1.2587
15892TIP3    H269168   0.872   2.522   3.570 -0.7954  0.8018  0.5747
15893TIP3   OH269169   1.343   6.731  11.423 -0.2897 -0.3947 -0.5439
15893TIP3    H169170   1.279   6.800  11.404  1.3806  1.3526 -0.1527
15893TIP3    H269171   1.308   6.685  11.499 -0.2753  1.6564  0.7577
15894TIP3   OH269172   3.479   1.149   5.932  0.0376 -0.4703 -0.1970
15894TIP3    H169173   3.425   1.076   5.902 -1.7585  0.7812 -0.1870
15894TIP3    H269174   3.451   1.164   6.022  0.5588  0.0735 -0.1192
15895TIP3   OH269175   0.691   6.150   3.874 -0.1854  0.4715  0.7330
15895TIP3    H169176   0.699   6.205   3.952  1.1631 -0.0592  1.0080
15895TIP3    H269177   0.715   6.208   3.801  0.1495  0.5462  0.8993
15896TIP3   OH269178   5.262   0.955  16.234  0.4481  0.0531  0.3913
15896TIP3    H169179   5.285   1.010  16.310 -0.5159  0.1656  0.6249
15896TIP3    H269180   5.305   0.997  16.160  0.0475  0.9171  0.6311
15897TIP3   OH269181   3.382   4.116   3.641 -0.5498 -0.1990  0.5533
15897TIP3    H169182   3.443   4.189   3.637  0.6401 -0.9354  3.2503
15897TIP3    H269183   3.318   4.140   3.708 -3.3843  0.5254 -2.1611
15898TIP3   OH269184   5.059   3.746   2.986 -0.1415  0.0574 -0.3107
15898TIP3    H169185   5.063   3.801   2.908  0.4756  1.6149  0.7642
15898TIP3    H269186   5.145   3.704   2.989  0.1337  0.6174 -0.0675
15899TIP3   OH269187   3.703   1.305  13.466 -0.3577 -0.4068 -0.1934
15899TIP3    H169188   3.679   1.356  13.544  0.6706 -4.8297  3.4753
15899TIP3    H269189   3.796   1.325  13.453 -0.0460 -0.9433  1.0057
15900TIP3   OH269190   0.502   3.806  14.035  0.3829  0.2488  0.6911
15900TIP3    H169191   0.503   3.874  14.103 -0.9373  0.6207  0.3802
15900TIP3    H269192   0.471   3.728  14.079  0.5175  0.2243  0.7414
15901TIP3   OH269193   0.582   2.173  15.421  0.2778  0.1473 -0.1061
15901TIP3    H169194   0.514   2.150  15.484 -0.6338  1.0275 -0.7366
15901TIP3    H269195   0.628   2.247  15.462 -0.0400  0.4457 -0.2883
15902TIP3   OH269196   2.635   0.587   3.999 -0.3508 -0.1807 -0.3987
15902TIP3    H169197   2.704   0.529   4.030 -0.2546 -0.7267 -1.5875
15902TIP3    H269198   2.581   0.604   4.076  0.3702 -0.7872  0.2477
15903TIP3   OH269199   3.627   3.253  13.747 -0.0390  0.1599  0.2128
15903TIP3    H169200   3.644   3.234  13.840 -1.8703  0.0651  0.5678
15903TIP3    H269201   3.700   3.308  13.720  0.7411 -0.1375  1.6025
15904TIP3   OH269202   5.891   4.502   3.297  0.2280 -0.0970 -0.2212
15904TIP3    H169203   5.829   4.455   3.241 -0.3180  2.8888 -2.3885
15904TIP3    H269204   5.973   4.454   3.287 -0.4016 -0.9362 -1.8884
15905TIP3   OH269205   2.453   3.850  17.079 -0.7564 -0.3221  0.8054
15905TIP3    H169206   2.531   3.835  17.025 -1.0524  4.7774 -1.6573
15905TIP3    H269207   2.386   3.794  17.040  0.5067 -1.2476 -0.1389
15906TIP3   OH269208   4.261   6.815   1.718 -0.1842  0.1649 -0.6589
15906TIP3    H169209   4.263   6.911   1.723  0.7963  0.1146  0.2100
15906TIP3    H269210   4.177   6.795   1.677 -0.4890  1.3893 -0.6713
15907TIP3   OH269211   2.753   1.748   6.184 -0.4465  0.1053 -0.2635
15907TIP3    H169212   2.715   1.664   6.213  1.1330 -0.4763  0.2144
15907TIP3    H269213   2.761   1.739   6.089  0.6624 -0.7282 -0.1149
15908TIP3   OH269214   1.745   5.052  13.937  0.3893 -0.0746 -0.3623
15908TIP3    H169215   1.774   5.032  14.026 -1.9038  0.2821  0.5422
15908TIP3    H269216   1.782   4.982  13.883  0.7944 -1.0179  1.0825
15909TIP3   OH269217   1.462   5.812   4.781  0.4750  0.0163  0.4492
15909TIP3    H169218   1.462   5.892   4.835 -0.2436 -0.2019  0.7768
15909TIP3    H269219   1.418   5.747   4.835  2.0314 -0.9225  0.6391
15910TIP3   OH269220   5.182   3.185   5.561 -0.3054  0.5927  0.2639
15910TIP3    H169221   5.174   3.174   5.466  0.0303  0.6473  0.2275
15910TIP3    H269222   5.273   3.161   5.581 -0.1482  1.3068  0.4591
15911TIP3   OH269223   1.989   4.075  13.162 -0.4732 -0.4514  0.0452
15911TIP3    H169224   1.967   4.016  13.233 -1.7095  0.1904  0.2156
15911TIP3    H269225   1.998   4.161  13.203 -1.9572  0.0728 -0.6553
15912TIP3   OH269226   3.381   0.444  10.394 -0.1861 -0.0619  0.1365
15912TIP3    H169227   3.409   0.360  10.359 -1.7183 -0.7824  0.5787
15912TIP3    H269228   3.306   0.469  10.340 -1.7559 -0.5465  1.9777
15913TIP3   OH269229   3.851   4.448   4.583  0.3327  0.2550 -0.1059
15913TIP3    H169230   3.862   4.362   4.544  1.0172  0.4659 -0.3983
15913TIP3    H269231   3.884   4.438   4.673 -1.6298 -0.3376  0.5984
15914TIP3   OH269232   1.989   4.573  15.118  0.2110 -0.0043 -0.7740
15914TIP3    H169233   2.037   4.631  15.176 -0.9976  0.0900  0.1693
15914TIP3    H269234   1.955   4.631  15.049 -0.7862  0.4016  0.0304
15915TIP3   OH269235   2.932   5.812  16.366 -0.1591  0.2797  0.7488
15915TIP3    H169236   2.839   5.788  16.367 -0.3899  1.1205  0.1665
15915TIP3    H269237   2.977   5.731  16.345 -0.5766 -0.6566  3.0908
15916TIP3   OH269238   4.364   6.616  14.349 -0.2929  0.3345  0.0351
15916TIP3    H169239   4.389   6.587  14.437 -0.5180  0.2170  0.0622
15916TIP3    H269240   4.323   6.701  14.362  0.2644  0.6209 -0.0320
15917TIP3   OH269241   2.661   5.746   1.888  0.3426  0.9622 -0.4575
15917TIP3    H169242   2.734   5.687   1.908  0.2816  1.1968  0.5194
15917TIP3    H269243   2.638   5.785   1.973 -1.7588 -0.0758 -0.4926
15918TIP3   OH269244   0.075   0.614   3.378 -0.2336 -0.2510 -0.2712
15918TIP3    H169245   0.027   0.692   3.349 -1.8706 -0.9307  0.4844
15918TIP3    H269246   0.088   0.629   3.472 -1.1400 -1.1538  0.0137
15919TIP3   OH269247   6.711   0.274  15.931  0.1665 -0.6343  0.5106
15919TIP3    H169248   6.786   0.255  15.988  0.3825 -2.1063 -0.2364
15919TIP3    H269249   6.734   0.357  15.889 -0.4162  1.0561  3.2022
15920TIP3   OH269250   1.378   1.687  14.205  0.0580  0.1889 -0.2459
15920TIP3    H169251   1.452   1.700  14.263  0.0402  1.3044 -0.4392
15920TIP3    H269252   1.401   1.736  14.126 -1.1348  1.0865 -0.0702
15921TIP3   OH269253   4.916   3.896  13.026 -0.4210 -0.7076 -0.6845
15921TIP3    H169254   4.995   3.948  13.008 -1.6872  1.4743 -0.2988
15921TIP3    H269255   4.948   3.816  13.066  1.5163  0.9417  1.2690
15922TIP3   OH269256   0.505   5.137  15.329  0.1471 -0.1003  0.5091
15922TIP3    H169257   0.448   5.097  15.395  0.0099 -3.4888 -1.4602
15922TIP3    H269258   0.587   5.153  15.376  0.2566 -2.9459  1.4919
15923TIP3   OH269259   3.550   1.816  15.474  0.3993 -0.0022  0.3525
15923TIP3    H169260   3.510   1.757  15.538 -0.0132 -0.6782 -0.5135
15923TIP3    H269261   3.479   1.877  15.451  0.2721 -0.3266 -0.1309
15924TIP3   OH269262   3.763   4.179   3.083 -0.0228 -0.0719 -0.4608
15924TIP3    H169263   3.769   4.119   3.157  0.3760 -0.2328 -0.6203
15924TIP3    H269264   3.820   4.141   3.016  0.0595  0.3632 -0.6431
15925TIP3   OH269265   0.178   0.978  15.891  0.1663 -0.1763 -0.5740
15925TIP3    H169266   0.204   0.945  15.806 -0.0332  0.2154 -0.7915
15925TIP3    H269267   0.259   0.986  15.940  0.4271  0.6774 -1.1171
15926TIP3   OH269268   1.935   4.888  14.820  0.2745 -0.2620 -0.2462
15926TIP3    H169269   1.895   4.914  14.737  2.4279 -1.0831 -1.6265
15926TIP3    H269270   1.953   4.795  14.810 -0.2340 -0.6018  1.5521
15927TIP3   OH269271   3.663   3.170  13.152  0.4069  0.0900 -0.4703
15927TIP3    H169272   3.630   3.091  13.195  0.4639 -0.0608 -0.7050
15927TIP3    H269273   3.589   3.203  13.102 -0.3787  1.5241  1.4938
15928TIP3   OH269274   0.994   5.807  10.563  0.3395 -0.5047 -0.1222
15928TIP3    H169275   1.057   5.753  10.611 -0.3513 -0.6702  0.6274
15928TIP3    H269276   1.039   5.831  10.483  1.2643 -0.8262  0.2864
15929TIP3   OH269277   2.834   0.026  14.653 -0.2785 -0.1374 -0.4514
15929TIP3    H169278   2.873   0.075  14.726  1.2169 -1.5626 -0.2471
15929TIP3    H269279   2.740   0.024  14.674 -0.3948  2.4694 -0.4174
15930TIP3   OH269280   5.373   3.521   4.471  0.1950 -0.4507  0.1004
15930TIP3    H169281   5.299   3.475   4.434  0.5215  0.4664 -1.7908
15930TIP3    H269282   5.348   3.538   4.562 -1.1105 -1.7548  0.0176
15931TIP3   OH269283   2.861   1.817   2.043 -0.0978 -0.0442 -0.2856
15931TIP3    H169284   2.879   1.736   2.090  1.7075 -0.6102 -1.8007
15931TIP3    H269285   2.914   1.883   2.087  0.0211 -0.1307 -0.2988
15932TIP3   OH269286   1.699   2.428   5.510 -0.4209 -0.1012 -0.1169
15932TIP3    H169287   1.638   2.354   5.516 -0.6986  0.1965  0.7821
15932TIP3    H269288   1.764   2.399   5.446 -1.1826 -0.6493 -0.6707
15933TIP3   OH269289   5.072   3.883   4.642 -0.2556  0.4148  0.1941
15933TIP3    H169290   5.048   3.846   4.557  0.5190  0.1786  0.0730
15933TIP3    H269291   5.117   3.964   4.621  0.5293  0.0260  0.3430
15934TIP3   OH269292   2.942   4.907  12.788 -0.4661 -0.0942  0.2681
15934TIP3    H169293   2.923   4.915  12.694 -1.8141  1.7231  0.6362
15934TIP3    H269294   3.034   4.881  12.792  0.0183  1.1405 -1.5580
15935TIP3   OH269295   0.850   5.398  11.993 -0.4068  0.1502 -0.1492
15935TIP3    H169296   0.897   5.329  12.040 -2.0659 -1.0848 -0.2062
15935TIP3    H269297   0.757   5.380  12.012 -1.0209  0.7418 -2.3729
15936TIP3   OH269298   0.678   0.008  15.158 -0.2861 -0.3377 -0.2226
15936TIP3    H169299   0.706   0.098  15.171  0.6514 -0.7610  0.8758
15936TIP3    H269300   0.605  -0.004  15.219 -1.6248  0.1713 -1.6494
15937TIP3   OH269301   5.022   0.201   0.508  0.2798 -0.4800  0.0681
15937TIP3    H169302   5.048   0.130   0.566  0.2294  0.0428  0.7430
15937TIP3    H269303   4.949   0.243   0.552 -0.6584 -0.9135 -1.0398
15938TIP3   OH269304   1.538   1.790  12.968 -0.5449  0.1337  0.3236
15938TIP3    H169305   1.599   1.829  13.031 -0.8328 -0.0285  0.7094
15938TIP3    H269306   1.458   1.775  13.018 -0.8222  0.1168 -0.1170
15939TIP3   OH269307   3.133   6.766  10.931  0.4994  0.1524  0.0745
15939TIP3    H169308   3.049   6.730  10.901  0.3609 -0.0334  0.6644
15939TIP3    H269309   3.194   6.692  10.925  1.3765  1.0119 -3.1794
15940TIP3   OH269310   5.990   2.973  12.290 -0.5588 -0.0982 -0.6768
15940TIP3    H169311   5.935   3.037  12.335 -0.6530  0.0126 -0.9429
15940TIP3    H269312   6.078   2.990  12.323 -0.4355  0.7841 -1.4048
15941TIP3   OH269313   3.168   3.268  16.845  0.3038 -1.3684  0.3972
15941TIP3    H169314   3.228   3.197  16.866 -0.0609 -1.6643  0.4558
15941TIP3    H269315   3.154   3.314  16.928  0.3742 -1.3591  0.4039
15942TIP3   OH269316   0.025   4.437   2.140  0.0882  0.7093 -0.0886
15942TIP3    H169317   0.008   4.441   2.046 -1.0916 -1.2849 -0.0158
15942TIP3    H269318   0.117   4.462   2.148  0.4101  0.2446 -1.8571
15943TIP3   OH269319   5.697   1.427   0.176 -0.1781  0.9252  0.0198
15943TIP3    H169320   5.674   1.466   0.092 -1.0482  1.4085  0.4784
15943TIP3    H269321   5.779   1.380   0.158 -1.4130 -0.7204 -1.5987
15944TIP3   OH269322   1.335   6.716  16.032 -0.1935  0.2831  0.2433
15944TIP3    H169323   1.273   6.745  16.100 -0.3726  1.2095 -0.3095
15944TIP3    H269324   1.338   6.788  15.969  0.1076 -0.4925 -0.6527
15945TIP3   OH269325   6.634   1.069  13.449 -0.5369  0.3164 -0.2816
15945TIP3    H169326   6.716   1.081  13.496 -1.4085  3.0301  0.7341
15945TIP3    H269327   6.569   1.052  13.518 -0.9560 -1.3293 -1.0274
15946TIP3   OH269328   1.937   1.082  13.789  0.2096 -0.5098  0.0753
15946TIP3    H169329   1.911   0.992  13.806  0.5008 -0.2572  2.1320
15946TIP3    H269330   2.020   1.092  13.836  0.7862  0.5116 -1.0958
15947TIP3   OH269331   5.967   2.565  13.209 -0.6060 -0.0911 -0.2867
15947TIP3    H169332   5.962   2.592  13.301 -1.1698  0.0633 -0.3631
15947TIP3    H269333   5.878   2.538  13.187 -0.7305  0.9603 -1.1307
15948TIP3   OH269334   4.507   4.874  12.819  0.1974 -0.0526  0.0547
15948TIP3    H169335   4.463   4.920  12.890  0.7097 -0.4223  0.6224
15948TIP3    H269336   4.600   4.878  12.842  0.2286 -1.7622  0.3823
15949TIP3   OH269337   3.241   1.810  13.136 -0.4000  0.2409  0.2872
15949TIP3    H169338   3.327   1.792  13.172 -0.8302 -0.0454  1.2066
15949TIP3    H269339   3.244   1.902  13.110  0.7770 -0.2463 -1.4424
15950TIP3   OH269340   6.250   1.337  15.743 -0.0833 -0.6764 -0.3485
15950TIP3    H169341   6.279   1.427  15.751  4.6494 -2.0801  1.4035
15950TIP3    H269342   6.183   1.327  15.811 -0.6240  1.4041 -0.5050
15951TIP3   OH269343   3.906   4.846  12.852 -0.6211  0.4963 -0.4878
15951TIP3    H169344   3.895   4.755  12.826 -0.6509  0.3693 -0.0378
15951TIP3    H269345   4.001   4.859  12.856 -0.5666 -0.1974  1.7426
15952TIP3   OH269346   0.109   0.419   1.046 -0.3002 -0.0057  0.0980
15952TIP3    H169347   0.204   0.409   1.055 -0.2862  0.7115  0.9013
15952TIP3    H269348   0.097   0.458   0.960  0.0462 -1.0810 -0.4633
15953TIP3   OH269349   1.614   4.460   3.759  0.0742  0.1277 -0.2943
15953TIP3    H169350   1.553   4.416   3.700 -0.1619  0.3747 -0.2326
15953TIP3    H269351   1.690   4.480   3.704 -0.7530  1.7329 -0.9140
15954TIP3   OH269352   6.324   1.543   1.524 -0.0844  0.6134  0.2895
15954TIP3    H169353   6.231   1.531   1.544 -0.4360 -1.9044 -2.3227
15954TIP3    H269354   6.325   1.570   1.432  1.7944  0.5100  0.2511
15955TIP3   OH269355   3.554   4.003   0.617 -0.1699  0.0451  0.3746
15955TIP3    H169356   3.486   4.039   0.674  0.1673  0.3887  0.5722
15955TIP3    H269357   3.558   4.064   0.543 -1.0651 -0.7650 -0.3597
15956TIP3   OH269358   6.225   5.701  14.177 -0.2535 -0.0774  0.2957
15956TIP3    H169359   6.282   5.773  14.203 -0.7612  0.0770  1.0107
15956TIP3    H269360   6.237   5.635  14.246  0.6522 -0.9422 -0.6513
15957TIP3   OH269361   1.661   2.993  16.704  0.2325 -0.3312 -0.3991
15957TIP3    H169362   1.589   2.987  16.766  0.1213 -0.7829 -0.5666
15957TIP3    H269363   1.640   2.928  16.636 -0.1040  0.7936 -1.3895
15958TIP3   OH269364   5.600   2.066  15.932  0.1692 -0.2703  0.0846
15958TIP3    H169365   5.676   2.026  15.890  1.6650  0.7862  1.6302
15958TIP3    H269366   5.560   1.996  15.983  0.1641 -0.8049 -0.6386
15959TIP3   OH269367   4.998   2.935  13.640 -0.6370  0.3849  0.1178
15959TIP3    H169368   4.953   3.009  13.600 -0.6337 -0.0648 -0.7454
15959TIP3    H269369   5.008   2.872  13.569  2.7164  1.0791 -0.1860
15960TIP3   OH269370   2.293   2.976  13.554 -0.2776 -0.1949  0.7694
15960TIP3    H169371   2.386   2.997  13.559  0.4141 -2.5727 -0.5988
15960TIP3    H269372   2.251   3.058  13.528  1.9706  0.0862 -2.5291
15961TIP3   OH269373   5.628   5.058   5.245 -0.1944 -0.0100  0.1759
15961TIP3    H169374   5.651   5.123   5.180 -0.3520 -0.1730 -0.0460
15961TIP3    H269375   5.669   5.088   5.326 -1.1279  0.9163  0.3241
15962TIP3   OH269376   0.672   5.951  12.991 -0.3744  0.2002 -0.5590
15962TIP3    H169377   0.659   5.903  13.073 -1.2332 -0.9928 -1.3680
15962TIP3    H269378   0.723   6.029  13.017  1.1700 -1.1725  0.7915
15963TIP3   OH269379   2.631   3.531  16.559 -0.1253 -0.5433 -0.1979
15963TIP3    H169380   2.631   3.524  16.654  0.1234  0.6528 -0.0962
15963TIP3    H269381   2.571   3.604  16.541  0.0174 -0.6067 -0.9474
15964TIP3   OH269382   1.049   0.147  14.986  0.3733  0.4464  0.0365
15964TIP3    H169383   1.007   0.065  14.959 -1.1551  0.4107  2.3161
15964TIP3    H269384   0.978   0.211  14.989  1.3533  1.6150 -0.6212
15965TIP3   OH269385   5.852   5.159   5.913 -0.3412 -0.5982  0.8622
15965TIP3    H169386   5.831   5.237   5.964  0.7205  0.4728 -0.2553
15965TIP3    H269387   5.948   5.159   5.909 -0.3799 -0.0493 -1.9098
15966TIP3   OH269388   3.638   2.329   0.403 -0.1361 -0.0195  0.1314
15966TIP3    H169389   3.731   2.339   0.385 -0.3623  0.2978 -0.9367
15966TIP3    H269390   3.599   2.413   0.378 -0.6248  0.1071  1.2427
15967TIP3   OH269391   0.950   5.026  15.428  0.4464 -0.4169  0.0359
15967TIP3    H169392   1.040   5.049  15.407  0.1722 -0.8136 -1.7610
15967TIP3    H269393   0.949   4.930  15.427  0.1768 -0.4361  0.9252
15968TIP3   OH269394   4.039   3.834  16.459  0.8307  0.2522  0.6430
15968TIP3    H169395   4.112   3.859  16.403 -1.4720  0.8659 -2.3141
15968TIP3    H269396   3.964   3.830  16.400 -1.0341 -3.2295  2.9542
15969TIP3   OH269397   3.659   5.728   3.959 -0.0464 -0.2850 -0.0014
15969TIP3    H169398   3.725   5.732   4.028  0.7723  0.4770 -0.8056
15969TIP3    H269399   3.698   5.674   3.891 -0.0559  0.5343 -0.6706
15970TIP3   OH269400   1.679   1.935   2.397 -0.1313 -0.2952 -0.2336
15970TIP3    H169401   1.645   1.855   2.355 -0.2078 -0.6162  0.4309
15970TIP3    H269402   1.606   1.966   2.451  0.6657 -1.1011  1.3649
15971TIP3   OH269403   5.711   0.552   4.958  0.0963  0.1985 -0.1858
15971TIP3    H169404   5.700   0.569   4.864 -0.1056  0.6961 -0.0748
15971TIP3    H269405   5.805   0.564   4.974  0.0035  0.9075 -0.1684
15972TIP3   OH269406   2.431   6.299   1.662 -0.0787 -0.0281 -0.0908
15972TIP3    H169407   2.408   6.272   1.751 -0.0167 -0.9044 -0.3243
15972TIP3    H269408   2.501   6.238   1.636 -0.0369  0.2698 -0.7041
15973TIP3   OH269409   5.208   2.685  13.044  0.2276  0.5861  0.4339
15973TIP3    H169410   5.164   2.659  12.964 -0.5276 -1.1076  1.3544
15973TIP3    H269411   5.185   2.777  13.056 -2.0208  0.0918  0.2153
15974TIP3   OH269412   1.961   4.869  16.021 -0.1959  0.4144  0.2216
15974TIP3    H169413   2.032   4.834  15.967  0.6489  0.2188  1.4239
15974TIP3    H269414   1.916   4.792  16.055 -0.7256  0.5367 -0.1829
15975TIP3   OH269415   3.092   2.596  16.253 -0.1019  0.2440 -0.6024
15975TIP3    H169416   3.031   2.652  16.206 -1.0426 -1.2987 -1.2978
15975TIP3    H269417   3.152   2.562  16.186 -0.2743 -0.4872 -0.4015
15976TIP3   OH269418   0.190   4.529   2.748  0.1729 -0.3033  0.3642
15976TIP3    H169419   0.110   4.570   2.716  1.3056  1.8047  0.0634
15976TIP3    H269420   0.175   4.516   2.841  0.0657  1.6087  0.6398
15977TIP3   OH269421   3.332   5.866   5.674  0.1242  0.4398  0.3490
15977TIP3    H169422   3.361   5.812   5.748 -1.4107  0.0448  0.7086
15977TIP3    H269423   3.367   5.821   5.597  0.2682 -0.1423  0.7421
15978TIP3   OH269424   5.420   2.884  16.454  0.0669 -0.3455  0.1604
15978TIP3    H169425   5.433   2.953  16.519  3.4514 -0.9198  0.3065
15978TIP3    H269426   5.457   2.920  16.373 -0.4295 -1.0657 -0.3960
15979TIP3   OH269427   4.303   1.230   5.193 -0.1818 -0.6305 -0.2486
15979TIP3    H169428   4.209   1.250   5.196  0.3934  3.7518 -2.6525
15979TIP3    H269429   4.333   1.241   5.284 -1.4849  1.6571 -0.0217
15980TIP3   OH269430   2.629   5.825   4.679 -0.3836 -0.1366  0.3834
15980TIP3    H169431   2.572   5.884   4.629 -0.8382 -0.8987 -0.0125
15980TIP3    H269432   2.643   5.871   4.762 -2.1523 -0.2212  0.7827
15981TIP3   OH269433   1.842   0.348  12.022  0.0294 -0.2914 -0.2603
15981TIP3    H169434   1.928   0.347  11.980  1.0251  1.0262  1.5794
15981TIP3    H269435   1.861   0.338  12.115 -2.1669 -4.5148 -0.0420
15982TIP3   OH269436   4.728   4.365  13.795  0.7937 -0.3230  0.3241
15982TIP3    H169437   4.675   4.444  13.797 -0.4690 -1.1345 -0.1908
15982TIP3    H269438   4.738   4.346  13.702  0.6683 -1.0462  0.4562
15983TIP3   OH269439   1.355   4.281   4.270 -0.5086  0.3322 -0.7530
15983TIP3    H169440   1.280   4.227   4.293  1.2450 -1.9609 -0.0431
15983TIP3    H269441   1.365   4.341   4.345 -0.4379 -0.7536  0.1403
15984TIP3   OH269442   5.863   6.053   2.461 -0.0366 -0.1400  0.2312
15984TIP3    H169443   5.919   5.993   2.511  0.1557  0.9300  1.3534
15984TIP3    H269444   5.924   6.120   2.428 -0.2190 -0.6399 -1.1583
15985TIP3   OH269445   5.538   1.227   0.495 -0.1150  0.3284  0.0463
15985TIP3    H169446   5.552   1.139   0.528  0.1193  0.1856 -0.4185
15985TIP3    H269447   5.445   1.244   0.510 -0.7397 -0.9012 -1.9406
15986TIP3   OH269448   5.826   3.338  11.274 -0.1317 -0.4267 -0.3291
15986TIP3    H169449   5.795   3.270  11.215  1.4475 -3.5020  2.0199
15986TIP3    H269450   5.791   3.313  11.360  2.1959  0.4326  0.9865
15987TIP3   OH269451   4.971   0.384   1.339 -0.7755 -0.0916  0.1263
15987TIP3    H169452   4.913   0.370   1.413  0.6796 -3.3695  0.8387
15987TIP3    H269453   5.020   0.302   1.332 -0.7093  0.1003 -4.3725
15988TIP3   OH269454   4.097   0.018  11.336 -0.0584 -0.7019  0.2542
15988TIP3    H169455   4.093   0.099  11.284 -0.9783 -0.4814  0.6614
15988TIP3    H269456   4.185  -0.016  11.319 -0.9110 -1.6320 -2.9595
15989TIP3   OH269457   1.744   1.807  17.151 -0.2755  0.0797  0.1935
15989TIP3    H169458   1.787   1.882  17.111 -1.2766  0.9388  0.6851
15989TIP3    H269459   1.718   1.837  17.238  0.5254 -1.2739  0.9356
15990TIP3   OH269460   1.863   3.493   2.154  0.1483  0.1441  0.2143
15990TIP3    H169461   1.790   3.481   2.093  1.5056  1.2098 -1.7109
15990TIP3    H269462   1.838   3.568   2.208 -0.8500 -0.5167  0.7137
15991TIP3   OH269463   1.303   0.617   3.892  0.0051  0.1204  0.2735
15991TIP3    H169464   1.398   0.626   3.882  0.1465  1.4232  2.3208
15991TIP3    H269465   1.267   0.674   3.824  0.6889 -0.0617 -0.2532
15992TIP3   OH269466   2.889   1.742   3.989  0.5452  0.0253 -0.1786
15992TIP3    H169467   2.956   1.680   4.016 -0.8272 -1.1739  0.6014
15992TIP3    H269468   2.836   1.695   3.925  0.4833  0.9907 -0.8669
15993TIP3   OH269469   2.244   2.183  10.601 -0.5922  0.3468 -0.3061
15993TIP3    H169470   2.279   2.156  10.516  1.7946  2.2485 -0.0535
15993TIP3    H269471   2.278   2.118  10.663  0.4646  0.7800 -0.4112
15994TIP3   OH269472   4.103   4.408   2.264 -0.1901 -0.8512 -0.0853
15994TIP3    H169473   4.107   4.346   2.336 -0.0686 -0.7478 -0.0033
15994TIP3    H269474   4.022   4.384   2.217  0.6952 -2.1488 -1.0249
15995TIP3   OH269475   3.979   0.640   1.579  0.8570  0.0883 -0.4925
15995TIP3    H169476   4.038   0.711   1.554  0.9725  0.0560 -0.3101
15995TIP3    H269477   3.892   0.681   1.581  0.9920  0.3483  0.1328
15996TIP3   OH269478   5.256   0.429  12.465 -0.3598  0.0704 -0.4253
15996TIP3    H169479   5.185   0.397  12.409 -0.2015  0.1219 -0.6583
15996TIP3    H269480   5.214   0.494  12.522 -0.4941  0.1248 -0.5852
15997TIP3   OH269481   3.440   0.125  14.985 -0.1532  0.1881 -0.3361
15997TIP3    H169482   3.466   0.083  14.903 -0.7250  0.2894 -0.5699
15997TIP3    H269483   3.377   0.065  15.024 -0.0659  0.2573 -0.0884
15998TIP3   OH269484   4.121   3.634   2.507  0.2590  0.2131 -0.1330
15998TIP3    H169485   4.155   3.568   2.447  1.2785  0.2610  0.3861
15998TIP3    H269486   4.181   3.635   2.581 -1.2992 -0.2819  1.2156
15999TIP3   OH269487   4.338   4.430  12.374  0.0574 -0.0219 -0.3372
15999TIP3    H169488   4.377   4.395  12.454  1.8056  2.5189  0.0135
15999TIP3    H269489   4.366   4.370  12.305 -0.2344 -1.4058  0.7128
16000TIP3   OH269490   1.414   3.881   2.255 -0.4445  0.1784  0.1917
16000TIP3    H169491   1.330   3.908   2.294 -2.1235 -1.7535 -1.8279
16000TIP3    H269492   1.390   3.848   2.168  2.4315 -0.5861 -0.3983
16001TIP3   OH269493   1.877   5.282   4.277  0.8564  0.3170 -0.3545
16001TIP3    H169494   1.909   5.348   4.338  0.7356  1.1197 -1.1412
16001TIP3    H269495   1.783   5.278   4.293  0.4540  2.1165 -1.9390
16002TIP3   OH269496   6.147   0.435  11.397 -0.4697 -0.0798  0.1669
16002TIP3    H169497   6.178   0.524  11.417 -1.7404  0.1323  1.3968
16002TIP3    H269498   6.225   0.381  11.400  0.0965  0.7533  1.0428
16003TIP3   OH269499   5.375   4.433  13.583 -0.2982  0.5479 -0.4084
16003TIP3    H169500   5.310   4.417  13.651  0.1646  0.9370  0.1313
16003TIP3    H269501   5.333   4.403  13.502 -0.6429 -0.4263  0.1237
16004TIP3   OH269502   4.541   5.625  11.510  0.7169  0.3828 -0.6468
16004TIP3    H169503   4.487   5.591  11.439 -0.0158 -0.0133  0.0834
16004TIP3    H269504   4.630   5.629  11.474  0.8449 -2.2696 -0.7993
16005TIP3   OH269505   5.081   3.470   2.688 -0.1827 -0.1917  0.3801
16005TIP3    H169506   5.144   3.499   2.755  0.8910 -1.4193 -0.0529
16005TIP3    H269507   5.037   3.395   2.727 -0.6846  0.0615  0.3034
16006TIP3   OH269508   2.865   1.710  13.615  0.2954  0.3319 -0.0970
16006TIP3    H169509   2.855   1.751  13.701  0.0701 -1.0991  0.6016
16006TIP3    H269510   2.784   1.661  13.602  1.9975 -3.0734  0.9551
16007TIP3   OH269511   0.547   3.434   4.330  0.1933 -0.9987 -0.4311
16007TIP3    H169512   0.609   3.413   4.260  0.9824 -1.9470  0.5359
16007TIP3    H269513   0.503   3.351   4.349  1.6691 -1.3411  1.8069
16008TIP3   OH269514   3.860   0.187  16.997  0.0360  0.4179  0.5106
16008TIP3    H169515   3.867   0.276  16.962 -1.5284 -0.4627 -2.3543
16008TIP3    H269516   3.824   0.136  16.925  1.9143 -2.8158  1.6568
16009TIP3   OH269517   0.805   1.840  16.601  0.7553 -0.4234 -0.4779
16009TIP3    H169518   0.897   1.863  16.618  0.4090 -0.5431  1.9757
16009TIP3    H269519   0.756   1.920  16.620  0.2750 -0.5985 -0.9621
16010TIP3   OH269520   4.350   6.341   1.933 -0.0868  0.3091 -0.0362
16010TIP3    H169521   4.316   6.332   2.022  2.3077  0.2565  0.9542
16010TIP3    H269522   4.334   6.256   1.892 -0.9868  0.2547  0.4141
16011TIP3   OH269523   5.169   3.626  15.859  0.1345 -0.0807  0.1300
16011TIP3    H169524   5.186   3.542  15.902 -0.9016 -0.4018 -0.0673
16011TIP3    H269525   5.252   3.674  15.867  0.7591 -1.1352  0.1991
16012TIP3   OH269526   5.467   0.159  13.428  0.6249 -0.4042  0.3489
16012TIP3    H169527   5.511   0.184  13.510  0.1244  0.0528  0.4822
16012TIP3    H269528   5.539   0.141  13.367  1.0001 -0.7654  0.8920
16013TIP3   OH269529   3.663   0.567   1.881  0.2318 -0.1642  0.9676
16013TIP3    H169530   3.573   0.596   1.869 -0.0257 -1.5246 -0.9426
16013TIP3    H269531   3.675   0.564   1.976 -2.0530 -0.8485  1.2992
16014TIP3   OH269532   1.139   4.681   4.581 -0.1320 -0.0890 -0.7007
16014TIP3    H169533   1.059   4.732   4.572 -0.3763 -0.3633 -0.1164
16014TIP3    H269534   1.145   4.662   4.674 -1.4385 -3.3338 -1.1708
16015TIP3   OH269535   4.423   2.858   1.218  0.1458  1.0210 -0.1105
16015TIP3    H169536   4.490   2.840   1.151 -1.5239 -2.0318 -1.1483
16015TIP3    H269537   4.371   2.929   1.181  0.3003  0.5522 -1.2729
16016TIP3   OH269538   6.544   2.228  16.938  0.6730  0.4758 -0.0755
16016TIP3    H169539   6.529   2.280  17.016 -0.7464 -0.1655  0.1074
16016TIP3    H269540   6.575   2.291  16.873  0.7479  1.2115  0.6579
16017TIP3   OH269541   3.870   3.713  12.495 -0.2459 -0.6364  1.1796
16017TIP3    H169542   3.888   3.777  12.427  0.8926 -1.7065  0.4270
16017TIP3    H269543   3.948   3.714  12.550 -0.0222 -1.6650  0.9069
16018TIP3   OH269544   0.863   1.737  15.671 -0.3267 -0.1432 -0.0023
16018TIP3    H169545   0.798   1.672  15.698 -0.5049  0.1823  0.3667
16018TIP3    H269546   0.813   1.799  15.617  0.1821 -1.2185 -1.7992
16019TIP3   OH269547   6.283   1.482   2.481 -0.3931  0.0640  0.4584
16019TIP3    H169548   6.348   1.414   2.496  0.0233  0.2850 -0.2583
16019TIP3    H269549   6.202   1.446   2.515 -0.3632 -1.1681 -0.6670
16020TIP3   OH269550   3.049   2.771   1.225 -0.2597  0.4131  0.0422
16020TIP3    H169551   2.957   2.753   1.204 -1.0190  1.9291  1.6899
16020TIP3    H269552   3.070   2.849   1.174 -0.1809  0.5750  0.3199
16021TIP3   OH269553   5.191   5.030   1.904 -0.9530  0.2771 -0.4257
16021TIP3    H169554   5.129   4.979   1.851 -2.3834  0.1341  1.3045
16021TIP3    H269555   5.225   4.968   1.968 -1.3485  1.0736  0.5698
16022TIP3   OH269556   2.130   1.702  12.271 -0.3822  0.1987  0.4862
16022TIP3    H169557   2.083   1.784  12.281 -1.5561 -0.1813 -1.3795
16022TIP3    H269558   2.064   1.634  12.281  0.0259 -0.4059 -0.6453
16023TIP3   OH269559   0.307   2.589   1.491  0.3281 -0.3631 -0.3997
16023TIP3    H169560   0.220   2.556   1.467 -0.1809  1.2375 -0.8540
16023TIP3    H269561   0.306   2.592   1.586 -0.4722  0.5129 -0.4208
16024TIP3   OH269562   4.472   5.150  15.095  0.0057  0.0301 -0.0056
16024TIP3    H169563   4.474   5.245  15.089 -0.1684  0.1264  1.2044
16024TIP3    H269564   4.438   5.132  15.183  1.1256 -1.1351  0.2201
16025TIP3   OH269565   5.055   0.341   5.790 -0.0715  0.1684 -0.7282
16025TIP3    H169566   5.147   0.323   5.768 -0.3670 -1.3652 -0.7709
16025TIP3    H269567   5.016   0.371   5.708 -0.4295 -2.5931 -1.6540
16026TIP3   OH269568   5.087   0.157  14.357 -0.0073 -0.3368 -0.1510
16026TIP3    H169569   5.074   0.080  14.301  0.6172 -0.0183 -0.7483
16026TIP3    H269570   5.142   0.216  14.304  0.3531  0.0909  0.6903
16027TIP3   OH269571   1.235   2.615  11.050 -0.3439  0.0790  0.0902
16027TIP3    H169572   1.291   2.664  10.989 -0.6804  0.0688 -0.2287
16027TIP3    H269573   1.293   2.593  11.122 -0.0711  0.5526  0.0252
16028TIP3   OH269574   6.016   0.779   6.154  0.2763 -0.3085 -0.0670
16028TIP3    H169575   6.053   0.802   6.069 -0.8686  2.3118  0.0482
16028TIP3    H269576   6.085   0.799   6.216  0.4807 -0.4854 -0.2345
16029TIP3   OH269577   5.522   4.303   5.259  0.2061 -0.1993  0.1203
16029TIP3    H169578   5.472   4.374   5.219  0.9724 -0.4095 -1.2504
16029TIP3    H269579   5.466   4.273   5.331 -0.0220  1.9410  0.9009
16030TIP3   OH269580   3.534   3.044   1.189 -0.0057 -0.1841  0.6903
16030TIP3    H169581   3.623   3.017   1.164 -0.6611 -1.1442 -0.6819
16030TIP3    H269582   3.479   2.969   1.169 -1.5207  1.2652 -0.8859
16031TIP3   OH269583   0.323   5.850  12.750  0.4627 -0.1539 -0.5338
16031TIP3    H169584   0.261   5.828  12.680 -0.3777  0.2091  0.0831
16031TIP3    H269585   0.290   5.803  12.827  0.6631  0.4415 -0.0794
16032TIP3   OH269586   5.335   0.872  12.778  0.2591  0.0245  0.6807
16032TIP3    H169587   5.325   0.783  12.813  0.7433 -0.2428  0.1583
16032TIP3    H269588   5.247   0.908  12.778 -0.0396 -0.6853  0.3067
16033TIP3   OH269589   3.116   3.325  13.452 -0.2798 -0.7206 -0.0755
16033TIP3    H169590   3.208   3.315  13.425  0.6209 -0.0366  2.4817
16033TIP3    H269591   3.107   3.266  13.527 -1.1580  1.1071  1.3219
16034TIP3   OH269592   4.658   6.539   3.673  0.1152  0.6645  0.3092
16034TIP3    H169593   4.727   6.580   3.725 -0.0866 -0.6572  1.7123
16034TIP3    H269594   4.705   6.486   3.609  0.3676  2.2148 -0.8480
16035TIP3   OH269595   5.433   1.425   1.836  0.4330  0.1420 -0.0610
16035TIP3    H169596   5.475   1.385   1.913 -1.8084 -1.8419  0.2157
16035TIP3    H269597   5.353   1.374   1.823  1.0046 -0.0073 -4.1083
16036TIP3   OH269598   1.427   2.211  13.514  0.5648 -0.0332  0.3264
16036TIP3    H169599   1.360   2.143  13.511  1.7534 -1.2352  0.1830
16036TIP3    H269600   1.437   2.232  13.607 -1.0607  1.2809  0.2544
16037TIP3   OH269601   3.521   4.786  15.283  0.5741 -0.7247 -0.4233
16037TIP3    H169602   3.509   4.830  15.367 -1.4029 -0.2464 -0.9060
16037TIP3    H269603   3.531   4.857  15.220  0.3397 -1.0363 -0.8198
16038TIP3   OH269604   4.153   1.629   5.355 -0.5436 -0.0314 -0.1242
16038TIP3    H169605   4.156   1.689   5.430  4.0359  1.4850 -1.1896
16038TIP3    H269606   4.128   1.684   5.281  1.3656  0.1161 -0.7100
16039TIP3   OH269607   6.634   3.798  12.224 -0.4790  0.8137  0.0057
16039TIP3    H169608   6.714   3.845  12.247  0.2542 -0.0562 -0.6907
16039TIP3    H269609   6.619   3.820  12.132  0.1851 -0.7067 -0.4929
16040TIP3   OH269610   0.004   0.187  14.084 -0.0040  0.1004 -0.1691
16040TIP3    H169611  -0.039   0.120  14.137  1.5860 -0.2768  0.6957
16040TIP3    H269612  -0.015   0.163  13.993 -0.4286 -0.8337  0.1630
16041TIP3   OH269613   0.833   3.191   5.847 -0.2082  0.2646 -0.1619
16041TIP3    H169614   0.841   3.103   5.884 -1.7252  0.0839 -0.1970
16041TIP3    H269615   0.739   3.207   5.843 -0.0156  1.2503 -1.6687
16042TIP3   OH269616   0.338   4.516  11.578  0.2564  0.2985  0.2920
16042TIP3    H169617   0.363   4.503  11.669  1.3756  2.5295  0.3783
16042TIP3    H269618   0.390   4.452  11.529  0.6072 -0.0595  1.1084
16043TIP3   OH269619   3.238   6.288  14.298  0.4828  0.4790 -0.1698
16043TIP3    H169620   3.152   6.247  14.295  0.0372  1.1925  1.6838
16043TIP3    H269621   3.237   6.351  14.227 -1.1021  1.5183  0.7216
16044TIP3   OH269622   3.712   6.624  13.709 -0.4972  0.3356 -0.1332
16044TIP3    H169623   3.641   6.618  13.774 -1.2346  1.9446 -0.7261
16044TIP3    H269624   3.788   6.588  13.754 -1.3639 -0.1235  1.0393
16045TIP3   OH269625   6.466   1.031   0.106  0.3381 -0.0405 -0.2214
16045TIP3    H169626   6.417   1.112   0.092  1.8171  1.2158  1.3893
16045TIP3    H269627   6.538   1.036   0.043 -0.9621 -1.4122 -1.9083
16046TIP3   OH269628   4.487   0.956  12.970  0.0720  0.1496 -0.4596
16046TIP3    H169629   4.559   0.895  12.988 -0.7464 -1.0389 -1.0741
16046TIP3    H269630   4.526   1.043  12.981  2.2276 -0.3837 -2.9789
16047TIP3   OH269631   4.063   6.548   5.383 -0.0273  0.1427  0.6568
16047TIP3    H169632   4.011   6.516   5.310 -0.6599  1.4211  0.5292
16047TIP3    H269633   4.151   6.560   5.347 -0.1547  0.0415  0.3154
16048TIP3   OH269634   4.167   2.888  11.743  0.0447 -0.3956 -0.0286
16048TIP3    H169635   4.258   2.912  11.731 -0.0413  1.3513  2.0544
16048TIP3    H269636   4.123   2.915  11.662  1.2108 -0.4502 -0.6926
16049TIP3   OH269637   4.217   3.867  14.169  0.3206 -0.3550 -0.3178
16049TIP3    H169638   4.186   3.927  14.236  0.9314 -0.3014 -0.0774
16049TIP3    H269639   4.275   3.920  14.115  0.2194 -0.5246 -0.5941
16050TIP3   OH269640   0.990   2.168  13.116  0.2995 -0.8588 -0.2615
16050TIP3    H169641   0.939   2.109  13.061  1.9427 -1.3308 -1.3460
16050TIP3    H269642   1.043   2.110  13.171  0.5340 -0.3836  0.0204
16051TIP3   OH269643   1.031   3.575   4.592 -0.0131 -0.7078 -0.2023
16051TIP3    H169644   0.938   3.554   4.581 -0.2285  0.8532 -1.8502
16051TIP3    H269645   1.076   3.506   4.542 -0.2062 -1.8301  1.1127
16052TIP3   OH269646   2.355   4.227  14.744 -0.4151  0.1753 -0.6178
16052TIP3    H169647   2.371   4.310  14.788 -1.0329 -0.1911  0.3269
16052TIP3    H269648   2.350   4.249  14.651 -3.7796  1.7292 -0.1987
16053TIP3   OH269649   5.697   5.627   2.940  0.7105 -0.3126  0.5972
16053TIP3    H169650   5.764   5.673   2.889 -0.1023  0.3806  0.1085
16053TIP3    H269651   5.689   5.542   2.897  1.3536 -0.4441  0.7310
16054TIP3   OH269652   0.442   0.189  10.907 -0.3570  0.1524 -0.2752
16054TIP3    H169653   0.499   0.202  10.831  0.0991 -0.3142 -0.0162
16054TIP3    H269654   0.416   0.097  10.902 -0.2686  0.1021  0.1752
16055TIP3   OH269655   2.450   3.750  13.170 -0.0474 -0.0682 -0.2268
16055TIP3    H169656   2.441   3.785  13.082 -0.7035  0.5651  0.0881
16055TIP3    H269657   2.513   3.678  13.161  1.7007  1.4684 -0.8038
16056TIP3   OH269658   2.096   3.972   5.830 -0.0769  0.6658  0.0883
16056TIP3    H169659   2.067   4.055   5.867  0.4864  0.3667  1.2421
16056TIP3    H269660   2.191   3.983   5.820 -0.4278  1.5805 -3.4763
16057TIP3   OH269661   2.734   2.146   1.811 -0.5676 -0.2006 -0.1446
16057TIP3    H169662   2.782   2.141   1.894  0.9906 -1.0003 -1.0492
16057TIP3    H269663   2.790   2.101   1.748 -2.2964 -0.7200 -1.3915
16058TIP3   OH269664   4.446   2.418  13.383  0.6338 -0.1126 -0.1861
16058TIP3    H169665   4.392   2.370  13.446 -0.5647  0.4895 -0.7112
16058TIP3    H269666   4.405   2.504  13.378  1.3734  0.2039 -0.9812
16059TIP3   OH269667   3.914   3.776  15.246  0.0056 -0.0045 -0.5068
16059TIP3    H169668   3.967   3.814  15.176  1.8781 -2.2831 -0.4539
16059TIP3    H269669   3.961   3.799  15.326 -0.5347  0.1469 -0.2286
16060TIP3   OH269670   1.445   2.720   5.569 -0.5891 -0.2757 -0.0141
16060TIP3    H169671   1.503   2.687   5.500 -0.9363 -0.5629 -0.1681
16060TIP3    H269672   1.358   2.691   5.543 -0.9049  0.7778 -0.1584
16061TIP3   OH269673   5.231   0.591   3.950 -0.2204  0.0293  0.3185
16061TIP3    H169674   5.252   0.579   3.857  1.6946  1.2254  0.5566
16061TIP3    H269675   5.315   0.585   3.995 -1.1323 -0.7080  2.0297
16062TIP3   OH269676   2.123   3.454  15.876 -0.3135 -0.0746  0.1125
16062TIP3    H169677   2.102   3.534  15.828 -1.2251 -0.2956  0.1225
16062TIP3    H269678   2.219   3.451  15.877 -0.2753  0.6428 -0.5010
16063TIP3   OH269679   0.272   1.711  13.813  0.2640 -0.1111  0.0975
16063TIP3    H169680   0.201   1.766  13.846  0.4910 -0.8901  1.9934
16063TIP3    H269681   0.229   1.650  13.753 -0.5982 -0.2709  0.8640
16064TIP3   OH269682   2.055   0.612  12.155  0.7485  0.1648  0.0018
16064TIP3    H169683   2.118   0.682  12.169  0.6549  0.0232  1.1952
16064TIP3    H269684   2.085   0.540  12.210  0.5504 -0.5608 -0.8044
16065TIP3   OH269685   3.730   3.652  12.131  0.4502  0.3437  0.7211
16065TIP3    H169686   3.766   3.722  12.184 -2.0322  2.2329  0.0567
16065TIP3    H269687   3.779   3.657  12.049  0.4334  1.1509  0.7570
16066TIP3   OH269688   1.588   2.980  13.766 -0.1190 -0.5608 -0.2886
16066TIP3    H169689   1.598   2.963  13.860 -0.0431 -0.4089 -0.2685
16066TIP3    H269690   1.641   2.912  13.724 -2.4885 -2.5079 -0.3302
16067TIP3   OH269691   5.658   4.399  15.259  0.3815 -0.0773 -0.1105
16067TIP3    H169692   5.703   4.326  15.216  1.2825 -0.1189  0.8516
16067TIP3    H269693   5.725   4.466  15.267  0.2281 -0.0506  1.1546
16068TIP3   OH269694   2.973   1.788   0.369  0.2748  0.0961 -0.1560
16068TIP3    H169695   2.905   1.746   0.315  0.5755 -0.4136 -0.1488
16068TIP3    H269696   2.932   1.867   0.403  0.4970  1.2038 -2.2737
16069TIP3   OH269697   0.365   2.547  15.273 -0.7861 -0.0054 -0.3294
16069TIP3    H169698   0.380   2.626  15.222 -2.5326  0.4624 -0.1764
16069TIP3    H269699   0.280   2.561  15.315 -0.3169 -1.2113  1.1283
16070TIP3   OH269700   4.968   1.544  11.272 -0.0719 -0.1493  0.2526
16070TIP3    H169701   4.907   1.533  11.199  0.7142 -0.9530 -0.2961
16070TIP3    H269702   5.054   1.530  11.234  0.4426  0.5769  1.1055
16071TIP3   OH269703   2.560   1.078  11.910  0.2659  0.4931  0.4843
16071TIP3    H169704   2.555   1.075  11.814  1.0402  2.9230  0.3051
16071TIP3    H269705   2.513   1.000  11.939 -0.4831 -0.0010 -1.8551
16072TIP3   OH269706   5.413   0.414  13.147 -0.3961 -0.3242 -0.2905
16072TIP3    H169707   5.491   0.370  13.113  1.2625 -0.0596  2.8338
16072TIP3    H269708   5.445   0.467  13.220 -3.5734 -0.6855  1.5510
16073TIP3   OH269709   4.966   6.266  16.252 -0.1322  0.0654  0.2221
16073TIP3    H169710   4.896   6.241  16.192  0.7137 -1.1322 -0.3001
16073TIP3    H269711   4.939   6.231  16.337 -0.9047  0.9944  0.3773
16074TIP3   OH269712   3.945   5.763   1.600 -0.4104  0.6558 -0.2671
16074TIP3    H169713   4.018   5.734   1.545 -1.6916  0.1339 -1.7688
16074TIP3    H269714   3.872   5.774   1.538 -1.9055  0.1052  1.3295
16075TIP3   OH269715   6.432   3.836   3.428 -0.8931 -0.6078 -0.6156
16075TIP3    H169716   6.382   3.903   3.475 -0.3625  0.1203 -1.0517
16075TIP3    H269717   6.367   3.790   3.376 -1.1587  0.1564 -0.9808
16076TIP3   OH269718   5.062   3.630  13.540  0.4882 -0.0723 -0.0043
16076TIP3    H169719   5.092   3.685  13.468  0.4271  0.7970  0.6230
16076TIP3    H269720   5.142   3.600  13.583  0.5322 -0.7763 -0.5508
16077TIP3   OH269721   6.552   2.165  14.455  0.2944  0.1714  0.0071
16077TIP3    H169722   6.497   2.242  14.468  0.3676  0.2494 -0.1390
16077TIP3    H269723   6.598   2.153  14.538  0.4865  0.4464 -0.0587
16078TIP3   OH269724   4.607   1.906   2.917 -0.9548  0.2253 -0.5926
16078TIP3    H169725   4.631   1.860   2.836 -0.5156  0.4571 -0.5996
16078TIP3    H269726   4.547   1.847   2.962 -0.0232 -0.5721 -0.3731
16079TIP3   OH269727   1.319   4.965   4.946 -0.6131  0.6465 -0.1629
16079TIP3    H169728   1.316   4.978   4.851  0.6367  1.8127 -0.0686
16079TIP3    H269729   1.314   5.053   4.983  1.4046  0.4355  0.7411
16080TIP3   OH269730   6.196   1.312   1.684  0.7809  0.2608 -0.0602
16080TIP3    H169731   6.242   1.305   1.601  4.0734 -1.3156  1.6761
16080TIP3    H269732   6.142   1.233   1.688  1.8155 -0.4740 -0.1059
16081TIP3   OH269733   5.361   4.225  13.887 -0.7236 -0.0346 -0.6717
16081TIP3    H169734   5.276   4.240  13.928 -0.4502  2.2078 -0.8037
16081TIP3    H269735   5.352   4.263  13.800  0.6160  0.8564 -0.4401
16082TIP3   OH269736   4.809   5.713   4.385  0.6756 -0.2855  0.3698
16082TIP3    H169737   4.872   5.780   4.359  0.0688 -0.6589 -2.2941
16082TIP3    H269738   4.724   5.747   4.357 -0.1475 -0.5933  2.3012
16083TIP3   OH269739   2.200   0.070   3.190 -0.2022  0.0650 -0.2343
16083TIP3    H169740   2.136   0.048   3.122 -0.0474 -0.2691 -0.2718
16083TIP3    H269741   2.166   0.151   3.229 -1.8468 -1.2476  1.2404
16084TIP3   OH269742   1.243   1.552   2.627 -0.2704 -0.2157 -0.0820
16084TIP3    H169743   1.227   1.510   2.711 -2.5059  0.6070 -0.0167
16084TIP3    H269744   1.191   1.632   2.630 -1.1506 -0.5998 -2.5519
16085TIP3   OH269745   1.925   3.063  16.826  0.3948  0.0981 -0.5430
16085TIP3    H169746   1.988   2.992  16.828 -0.2800 -0.5138 -0.6629
16085TIP3    H269747   1.843   3.022  16.799  0.6712  1.4285 -3.9804
16086TIP3   OH269748   1.744   4.340   3.032 -0.3121  0.1568 -0.2817
16086TIP3    H169749   1.729   4.282   3.107  0.8705 -0.3912 -0.4377
16086TIP3    H269750   1.734   4.428   3.068  1.5738 -0.0456  0.8954
16087TIP3   OH269751   0.445   6.269  15.269  0.3703  0.0311 -0.2968
16087TIP3    H169752   0.521   6.213  15.259  0.2918 -0.2218  0.4403
16087TIP3    H269753   0.374   6.223  15.224  0.7831  0.5817 -1.5578
16088TIP3   OH269754   3.504   0.080   5.339  0.0522  0.6874 -0.5933
16088TIP3    H169755   3.471   0.159   5.381 -1.3753 -0.4473  0.5009
16088TIP3    H269756   3.453   0.072   5.258  0.3244  0.9826 -0.7936
16089TIP3   OH269757   2.878   4.046   1.326 -0.3047  0.1033 -0.1389
16089TIP3    H169758   2.827   3.973   1.291 -0.0428 -0.7651  1.2018
16089TIP3    H269759   2.856   4.120   1.270 -0.4337 -1.0410 -1.6657
16090TIP3   OH269760   5.844   0.049  14.405 -0.1218 -0.6532 -0.5584
16090TIP3    H169761   5.883   0.031  14.490  1.8756  0.6638 -1.1135
16090TIP3    H269762   5.763   0.096  14.424  0.7415  0.4115  0.6299
16091TIP3   OH269763   2.253   5.138   3.939 -0.1893  0.0331  0.1007
16091TIP3    H169764   2.334   5.101   3.973  0.9436  0.7600 -1.6808
16091TIP3    H269765   2.275   5.229   3.917 -0.4756 -0.6147 -3.4271
16092TIP3   OH269766   4.872   5.304  13.899  0.0411  0.2246  0.0163
16092TIP3    H169767   4.794   5.310  13.844 -0.1765  1.7045  0.4497
16092TIP3    H269768   4.933   5.367  13.860  0.5608 -0.0229  0.4192
16093TIP3   OH269769   5.538   6.454  14.355  0.4832 -0.3381 -0.2056
16093TIP3    H169770   5.573   6.367  14.335 -1.0600 -0.5730 -2.3842
16093TIP3    H269771   5.505   6.485  14.270  0.0392  1.9295  0.7427
16094TIP3   OH269772   1.126   4.157   2.398  0.4226 -0.0076  0.5643
16094TIP3    H169773   1.096   4.245   2.375  0.7253 -0.4111 -1.6468
16094TIP3    H269774   1.060   4.124   2.458 -1.0570  0.8511 -0.5055
16095TIP3   OH269775   3.961   4.186   2.530 -0.3202 -0.5982  0.7037
16095TIP3    H169776   4.051   4.158   2.546  1.3438  1.6238 -3.1605
16095TIP3    H269777   3.945   4.164   2.438 -1.4400  3.9587 -0.4834
16096TIP3   OH269778   2.903   4.665  15.659  0.3814  0.1044  0.2745
16096TIP3    H169779   2.918   4.614  15.580 -0.6092 -0.9066  0.7131
16096TIP3    H269780   2.820   4.710  15.643  0.0483 -0.3013  0.8185
16097TIP3   OH269781   5.046   1.282  14.250 -0.0947 -0.9371  0.0475
16097TIP3    H169782   5.061   1.370  14.215  1.5400 -1.3649 -0.3655
16097TIP3    H269783   4.963   1.290  14.298 -0.2633  0.6806 -0.4503
16098TIP3   OH269784   4.997   4.525   2.829  0.8320 -0.1621 -0.1248
16098TIP3    H169785   5.025   4.434   2.840 -1.5349 -0.8252  1.0407
16098TIP3    H269786   4.955   4.547   2.912  0.6407  1.7458 -0.6869
16099TIP3   OH269787   4.479   1.848  15.861 -1.0701 -0.2598  0.3299
16099TIP3    H169788   4.404   1.798  15.827 -1.5238  0.0028  0.9282
16099TIP3    H269789   4.471   1.934  15.820 -0.6006 -0.5004 -0.2749
16100TIP3   OH269790   6.407   3.872  11.464 -0.8253  0.0110 -0.1910
16100TIP3    H169791   6.351   3.812  11.416 -1.3784 -0.8067  1.4138
16100TIP3    H269792   6.438   3.934  11.398 -1.4379 -1.1350 -1.6039
16101TIP3   OH269793   1.688   4.868  11.624 -0.4980 -0.3415  0.1586
16101TIP3    H169794   1.735   4.785  11.631  1.2277  0.6318  0.8933
16101TIP3    H269795   1.606   4.854  11.671 -0.5088 -1.7972 -0.2466
16102TIP3   OH269796   0.312   6.030  16.885  0.1375  0.8335  0.2665
16102TIP3    H169797   0.313   5.967  16.813 -0.1534 -0.6434  1.5035
16102TIP3    H269798   0.395   6.077  16.876  1.0986 -0.7909  0.1809
16103TIP3   OH269799   2.814   5.382  16.326 -0.6105 -0.2284  0.1417
16103TIP3    H169800   2.743   5.444  16.310 -0.0816  0.4042  0.2305
16103TIP3    H269801   2.814   5.326  16.248 -2.0138 -1.0513  0.6906
16104TIP3   OH269802   1.599   1.942  11.140 -0.3807 -0.1511 -0.0592
16104TIP3    H169803   1.588   2.033  11.111 -0.3990 -0.6554 -1.7444
16104TIP3    H269804   1.522   1.897  11.104 -0.1373 -0.9232  0.3747
16105TIP3   OH269805   3.875   1.538   2.102  0.1221  0.0430  0.1197
16105TIP3    H169806   3.927   1.521   2.024 -0.7425  0.2429 -0.5173
16105TIP3    H269807   3.938   1.540   2.173  1.2996  2.2698 -0.8748
16106TIP3   OH269808   1.563   6.224   3.945 -0.6772 -0.1685 -0.0213
16106TIP3    H169809   1.523   6.138   3.942  0.6714 -0.9272  1.7696
16106TIP3    H269810   1.628   6.223   3.874  0.4187 -1.2550  0.9560
16107TIP3   OH269811   6.215   2.144   4.836  0.3980 -0.5100 -0.0813
16107TIP3    H169812   6.179   2.183   4.756  0.4892  0.6161  0.4074
16107TIP3    H269813   6.296   2.102   4.809 -0.2052 -1.2490 -0.8052
16108TIP3   OH269814   3.748   5.873   0.770 -0.9468  0.0490  0.2231
16108TIP3    H169815   3.736   5.958   0.812 -0.7637 -0.5568  1.5620
16108TIP3    H269816   3.786   5.893   0.685  2.7730  1.1940  1.9311
16109TIP3   OH269817   3.680   2.152  15.375 -0.1123  0.0288 -0.1037
16109TIP3    H169818   3.745   2.223  15.378 -0.0856 -0.0294  1.5809
16109TIP3    H269819   3.728   2.078  15.339 -0.2269  0.9157 -2.2056
16110TIP3   OH269820   3.647   3.169  16.454  0.3919 -0.3318  0.0317
16110TIP3    H169821   3.606   3.171  16.540  0.8469  2.4119  0.2875
16110TIP3    H269822   3.575   3.155  16.393  0.0175 -1.9469  0.7889
16111TIP3   OH269823   5.933   0.682  13.946 -0.5286  0.4494  0.0915
16111TIP3    H169824   5.939   0.700  13.852 -2.1804 -1.5335 -0.4524
16111TIP3    H269825   6.011   0.631  13.966  0.9418  2.6354  0.3346
16112TIP3   OH269826   3.245   3.641  11.135 -0.1548 -0.7166 -0.0802
16112TIP3    H169827   3.246   3.563  11.079 -1.3572 -0.9377  0.1825
16112TIP3    H269828   3.271   3.712  11.077  0.7639 -1.2713 -0.3747
16113TIP3   OH269829   1.183   4.213  13.588 -0.0517  0.4388 -0.4947
16113TIP3    H169830   1.177   4.170  13.502 -0.0168  0.5807 -0.5685
16113TIP3    H269831   1.133   4.156  13.647  3.1862 -1.9182  0.2925
16114TIP3   OH269832   5.225   6.072   1.532 -0.1855 -0.6258 -0.0558
16114TIP3    H169833   5.210   6.161   1.564  1.3864 -0.4780  0.3220
16114TIP3    H269834   5.138   6.042   1.504 -1.3194 -0.0075  2.4424
16115TIP3   OH269835   2.651   0.184   0.147  0.4338 -0.0672  0.2197
16115TIP3    H169836   2.661   0.104   0.199  1.1451  0.0745  0.3196
16115TIP3    H269837   2.740   0.203   0.115  0.0706  0.0287 -0.7786
16116TIP3   OH269838   2.546   4.023  15.746 -0.4307 -0.0479  0.0112
16116TIP3    H169839   2.578   4.063  15.665 -0.4896  1.1328  0.5494
16116TIP3    H269840   2.455   3.998  15.727  0.4433 -2.5733 -1.2287
16117TIP3   OH269841   3.650   1.677  12.464 -0.2062 -0.2401 -0.6671
16117TIP3    H169842   3.665   1.658  12.372 -0.1008 -1.7913 -0.3550
16117TIP3    H269843   3.562   1.644  12.482  0.5779 -1.9493  0.2655
16118TIP3   OH269844   3.016   3.296   4.063 -0.1908  0.1537 -0.4898
16118TIP3    H169845   2.985   3.343   3.986 -1.7835  1.0242  0.6219
16118TIP3    H269846   2.937   3.256   4.100  0.5534 -0.3366  0.6241
16119TIP3   OH269847   4.197   4.822   4.684 -0.8980 -0.0790 -0.1109
16119TIP3    H169848   4.218   4.730   4.702 -1.2378 -0.2251 -0.4445
16119TIP3    H269849   4.107   4.833   4.717 -1.2097 -0.1225 -0.9316
16120TIP3   OH269850   6.134   5.697   6.338 -0.4053 -0.3501 -0.3135
16120TIP3    H169851   6.216   5.741   6.360 -1.1653  0.8480  0.2371
16120TIP3    H269852   6.143   5.609   6.375 -0.1831  0.4448  1.6423
16121TIP3   OH269853   6.302   2.447  11.062 -0.4058  0.6857 -0.3522
16121TIP3    H169854   6.278   2.399  10.983  0.4873 -1.3951  0.5807
16121TIP3    H269855   6.375   2.503  11.036  0.7423 -0.9341 -0.7546
16122TIP3   OH269856   4.914   0.614  12.905  0.1910  0.5237  0.1498
16122TIP3    H169857   4.976   0.650  12.968 -0.0817  1.4179 -0.0721
16122TIP3    H269858   4.916   0.520  12.920  3.3648  0.2124 -1.3863
16123TIP3   OH269859   5.592   1.083  13.430  0.1280 -0.3181 -0.0974
16123TIP3    H169860   5.650   1.153  13.398 -0.4197 -0.1506 -0.7307
16123TIP3    H269861   5.552   1.121  13.508 -1.4980  0.7787 -1.3928
16124TIP3   OH269862   6.317   5.432  14.601  0.5160  0.2425  0.1854
16124TIP3    H169863   6.346   5.373  14.671  0.4665  1.0126  0.8691
16124TIP3    H269864   6.383   5.423  14.533  0.6162 -0.4460  0.3688
16125TIP3   OH269865   6.623   1.477   1.659  0.0445 -0.1921  0.4651
16125TIP3    H169866   6.597   1.459   1.568  0.6254  1.1238  0.0244
16125TIP3    H269867   6.544   1.458   1.710 -0.1989 -1.2480 -0.2551
16126TIP3   OH269868   2.932   1.277  15.604 -0.0440 -0.3517 -0.5276
16126TIP3    H169869   2.870   1.238  15.666  0.1764 -1.8811 -1.2162
16126TIP3    H269870   2.884   1.281  15.521  0.5107 -0.8032 -0.8788
16127TIP3   OH269871   0.336   2.398  11.836 -0.1187  0.2414  0.3870
16127TIP3    H169872   0.363   2.351  11.914 -0.4381 -0.1590  0.2622
16127TIP3    H269873   0.388   2.360  11.765 -0.9533 -0.5082  0.1522
16128TIP3   OH269874   4.284   0.841  12.076  0.1650 -0.3584  0.3414
16128TIP3    H169875   4.300   0.921  12.027  0.2992 -0.3325  0.4280
16128TIP3    H269876   4.285   0.868  12.168  0.0520 -0.4311  0.3649
16129TIP3   OH269877   6.210   1.406   2.877 -1.1170  0.1873 -0.2342
16129TIP3    H169878   6.243   1.394   2.788  0.2145  1.1529  0.0959
16129TIP3    H269879   6.188   1.317   2.906  0.4170 -0.4287 -0.8154
16130TIP3   OH269880   4.362   5.530  16.845 -0.1091  0.1977  0.1011
16130TIP3    H169881   4.311   5.519  16.926 -1.0555 -0.6519 -0.5796
16130TIP3    H269882   4.391   5.621  16.847 -0.7011  0.3863  1.0590
16131TIP3   OH269883   5.056   1.869  13.278  0.3552 -0.1571 -0.2571
16131TIP3    H169884   5.081   1.783  13.314  0.5274 -0.0440 -0.1055
16131TIP3    H269885   4.980   1.850  13.222  0.6228 -0.4630 -0.5173
16132TIP3   OH269886   5.901   3.659   6.862  0.6152  0.0142  0.5602
16132TIP3    H169887   5.923   3.681   6.772  0.4410  1.1040  0.7702
16132TIP3    H269888   5.940   3.572   6.876 -0.2466 -0.6393 -0.8686
16133TIP3   OH269889   0.344   6.520  15.644  0.1738  0.1901  0.2456
16133TIP3    H169890   0.310   6.456  15.707  0.4949  1.7461  2.0683
16133TIP3    H269891   0.300   6.498  15.561 -2.4647 -0.1321  1.6438
16134TIP3   OH269892   1.895   6.793  13.034 -0.5228  0.5203  0.2949
16134TIP3    H169893   1.962   6.841  13.083 -0.7660  0.7943  0.3616
16134TIP3    H269894   1.942   6.718  12.996 -0.0900  0.9256  0.0145
16135TIP3   OH269895   4.197   3.618  15.133  0.4725  0.5367  0.0510
16135TIP3    H169896   4.134   3.561  15.090  0.0755  0.8163  0.2517
16135TIP3    H269897   4.160   3.706  15.124 -0.0912  0.5081  1.7490
16136TIP3   OH269898   0.327   4.590  13.874  0.5927  0.3496 -0.1654
16136TIP3    H169899   0.293   4.602  13.786  2.1138  2.8136 -0.5402
16136TIP3    H269900   0.309   4.499  13.895 -0.1278 -0.2233 -2.8731
16137TIP3   OH269901   1.690   5.558  16.994  0.1326  0.0306 -0.0664
16137TIP3    H169902   1.626   5.535  17.061 -2.0105 -0.5258 -2.1614
16137TIP3    H269903   1.729   5.474  16.969  1.7936  0.3674  1.2041
16138TIP3   OH269904   2.700   1.878  16.115  0.3955  0.3328  0.0135
16138TIP3    H169905   2.691   1.921  16.030  0.9312  1.7896  0.6617
16138TIP3    H269906   2.789   1.900  16.144 -0.1809  0.8695  1.4744
16139TIP3   OH269907   3.078   3.782   4.344  0.7120 -0.3495 -0.4686
16139TIP3    H169908   3.008   3.742   4.291  1.0572 -1.3388 -0.1960
16139TIP3    H269909   3.085   3.871   4.310 -0.3449 -0.3829 -0.8340
16140TIP3   OH269910   1.016   6.256  12.981 -0.1023 -0.5088 -0.5011
16140TIP3    H169911   1.078   6.267  12.909  1.0544 -0.7086  0.4311
16140TIP3    H269912   1.023   6.337  13.031  0.2561 -0.9858  0.2357
16141TIP3   OH269913   4.054   2.962   0.275  0.4119  0.0503 -0.7155
16141TIP3    H169914   4.140   2.962   0.318  0.1603 -1.5641 -0.1423
16141TIP3    H269915   4.074   2.950   0.182  0.8936  2.2411 -0.9443
16142TIP3   OH269916   4.280   2.545   3.771 -0.5068 -0.2625 -0.0178
16142TIP3    H169917   4.195   2.566   3.735 -0.1175 -0.3027 -0.9751
16142TIP3    H269918   4.271   2.455   3.803 -1.1884  0.1699  1.0575
16143TIP3   OH269919   6.213   1.891   2.371  0.4426 -0.3361  0.3710
16143TIP3    H169920   6.201   1.986   2.368  2.3141  0.0877  2.9265
16143TIP3    H269921   6.257   1.876   2.454 -1.0970 -3.6283  0.7169
16144TIP3   OH269922   1.552   4.332   5.021 -0.0498  0.2682  0.2329
16144TIP3    H169923   1.613   4.306   4.952  0.9947 -1.3839  1.6989
16144TIP3    H269924   1.596   4.403   5.067  0.7438 -0.8052  1.1801
16145TIP3   OH269925   6.661   0.933  15.031  0.0283 -0.3739 -0.0001
16145TIP3    H169926   6.597   0.986  14.985 -0.3865 -0.5926  0.3243
16145TIP3    H269927   6.659   0.965  15.121  0.3834 -0.3731  0.0086
16146TIP3   OH269928   0.731   5.134   6.084 -0.2655  0.3481 -0.0368
16146TIP3    H169929   0.826   5.125   6.073 -0.2679  1.2012 -0.8367
16146TIP3    H269930   0.699   5.159   5.997 -1.1182  0.9298  0.4325
16147TIP3   OH269931   1.270   6.405  16.013 -0.7169  0.1598 -0.0272
16147TIP3    H169932   1.217   6.412  16.092  0.1550  1.1371  0.4858
16147TIP3    H269933   1.353   6.448  16.035  0.0448 -0.7346 -1.0303
16148TIP3   OH269934   0.230   1.146  14.465 -0.2627 -0.0714  0.3321
16148TIP3    H169935   0.308   1.129  14.518 -0.9170 -0.2484  1.2765
16148TIP3    H269936   0.225   1.072  14.405  0.7354  0.3494 -0.2840
16149TIP3   OH269937   3.288   2.565   3.775  0.2352 -0.1277  0.0886
16149TIP3    H169938   3.220   2.631   3.765 -1.6665 -1.7594  1.4417
16149TIP3    H269939   3.299   2.529   3.687  0.4181  1.0985 -0.4170
16150TIP3   OH269940   4.115   2.603   0.065 -0.1247 -0.3639  0.2715
16150TIP3    H169941   4.077   2.691   0.068  1.4613  0.3307  1.6905
16150TIP3    H269942   4.209   2.617   0.080 -0.0725 -2.4101  2.4454
16151TIP3   OH269943   1.301   5.046  14.332  0.1388  0.6034  0.2588
16151TIP3    H169944   1.218   5.052  14.378 -0.8073  0.5518 -1.3927
16151TIP3    H269945   1.335   4.959  14.354 -0.6066  0.3270  0.3170
16152TIP3   OH269946   5.303   1.147   5.078  0.0980 -0.1257  0.2921
16152TIP3    H169947   5.211   1.128   5.056  0.0586 -1.1241  1.1939
16152TIP3    H269948   5.351   1.122   4.999 -0.3619 -0.0418 -0.0244
16153TIP3   OH269949   5.856   3.142   0.135 -0.0771 -0.7048  0.3536
16153TIP3    H169950   5.833   3.062   0.087 -0.0361 -0.1768 -0.5845
16153TIP3    H269951   5.950   3.135   0.149  0.3760  0.2221 -1.8152
16154TIP3   OH269952   1.913   6.313   3.143 -0.2009  0.1263  0.0077
16154TIP3    H169953   2.002   6.345   3.158  0.1661 -0.3040 -1.1363
16154TIP3    H269954   1.857   6.382   3.179  0.5821  0.5437  0.4723
16155TIP3   OH269955   6.583   6.107   6.311 -0.1372 -0.2297  0.5204
16155TIP3    H169956   6.507   6.120   6.367 -2.0802 -2.7110 -1.2916
16155TIP3    H269957   6.641   6.050   6.362  0.4110  1.4107  1.7839
16156TIP3   OH269958   3.233   2.354  13.144 -0.3921  0.0904 -0.1611
16156TIP3    H169959   3.196   2.331  13.059 -1.0151 -1.0159  0.3884
16156TIP3    H269960   3.167   2.411  13.184 -0.0729  0.6582 -0.4333
16157TIP3   OH269961   5.130   5.000  12.204 -0.1152  0.7612  0.4117
16157TIP3    H169962   5.177   5.082  12.189 -0.2733  0.8641  0.4833
16157TIP3    H269963   5.133   4.987  12.299 -0.6815  1.0310  0.4649
16158TIP3   OH269964   1.416   0.400  15.230  0.0903 -0.1579 -0.8389
16158TIP3    H169965   1.330   0.424  15.197 -0.4735 -0.6397  0.2047
16158TIP3    H269966   1.404   0.394  15.325  0.9332 -1.5491 -0.7958
16159TIP3   OH269967   3.269   4.705  17.164  0.1124  0.4653 -0.1627
16159TIP3    H169968   3.188   4.692  17.114 -0.1733 -1.9023  0.7852
16159TIP3    H269969   3.247   4.679  17.253  1.4818  1.4933  0.5241
16160TIP3   OH269970   5.351   4.996  15.570 -0.0569  0.0689 -0.2885
16160TIP3    H169971   5.259   4.988  15.544 -0.0519  1.6438 -0.8950
16160TIP3    H269972   5.353   5.076  15.624  0.9554  0.0386 -0.2693
16161TIP3   OH269973   5.201   6.441  14.538  0.2020 -0.4016  0.1855
16161TIP3    H169974   5.171   6.432  14.447 -0.0531 -1.3305  0.3469
16161TIP3    H269975   5.120   6.450  14.589  0.2449 -1.5471  0.4839
16162TIP3   OH269976   0.766   5.731   4.404  0.3065  0.2672 -0.3046
16162TIP3    H169977   0.849   5.683   4.408  0.9293  1.1877 -1.5047
16162TIP3    H269978   0.707   5.672   4.357  0.4814 -0.1193 -0.0452
16163TIP3   OH269979   0.409   4.247   6.576  0.3063 -0.6694  0.0444
16163TIP3    H169980   0.325   4.242   6.621  1.2352 -0.7781  1.8359
16163TIP3    H269981   0.414   4.337   6.545  0.1094 -0.2744  1.1266
16164TIP3   OH269982   0.674   4.025  13.917  0.1100  0.8928  0.4546
16164TIP3    H169983   0.632   4.084  13.854 -1.2901  0.1327  0.6336
16164TIP3    H269984   0.607   3.961  13.938  0.8871  0.5170  1.9496
16165TIP3   OH269985   3.046   5.182  13.945 -0.5004  0.1513 -0.2066
16165TIP3    H169986   2.972   5.186  14.005 -0.1982  1.2790  0.1147
16165TIP3    H269987   3.077   5.272  13.938  1.0538 -0.3366 -0.0789
16166TIP3   OH269988   5.733   0.386   6.692  0.4208 -0.0026  0.3824
16166TIP3    H169989   5.768   0.444   6.624 -0.3535  0.6341  0.5157
16166TIP3    H269990   5.656   0.432   6.725  0.9242 -0.1848  1.8646
16167TIP3   OH269991   1.503   3.443  14.985 -0.0044  0.1146  0.9048
16167TIP3    H169992   1.467   3.442  15.073  0.9787 -0.9296  1.3306
16167TIP3    H269993   1.510   3.350  14.961 -0.8646  0.3961 -0.5449
16168TIP3   OH269994   3.717   4.429  16.011 -0.1015 -0.0402  0.3100
16168TIP3    H169995   3.718   4.361  15.944 -0.5010 -1.3755  1.5976
16168TIP3    H269996   3.808   4.436  16.039 -0.2701 -1.2083  1.2493
16169TIP3   OH269997   5.908   1.661  11.064 -0.1815  0.3853 -0.8287
16169TIP3    H169998   5.838   1.627  11.009 -0.5314  0.6949 -0.5800
16169TIP3    H269999   5.932   1.744  11.023 -1.4562  1.3435  0.2995
16170TIP3   OH270000   6.730   2.305  13.783  0.4380 -0.1785  0.0915
16170TIP3    H170001   6.819   2.336  13.796  1.4178  0.0019 -4.8968
16170TIP3    H270002   6.740   2.223  13.734 -2.1813 -0.7816  0.3856
16171TIP3   OH270003   1.615   4.905   2.790 -0.2994  0.6133 -0.5045
16171TIP3    H170004   1.671   4.921   2.715  1.6416  0.3547  0.8019
16171TIP3    H270005   1.552   4.839   2.761  0.1219  0.8493 -2.0029
16172TIP3   OH270006   5.420   0.474  16.904  0.2130  0.1244  0.7877
16172TIP3    H170007   5.390   0.384  16.895 -0.8450  0.2095  2.7708
16172TIP3    H270008   5.387   0.519  16.827  0.0142 -0.9992  0.2051
16173TIP3   OH270009   5.195   2.424   5.080 -0.4564 -0.2506  0.1632
16173TIP3    H170010   5.285   2.452   5.066 -0.7952  0.9903  0.4105
16173TIP3    H270011   5.199   2.328   5.073  1.1895 -0.3703  1.9300
16174TIP3   OH270012   0.499   4.379   5.371 -0.6491  0.7310  0.0172
16174TIP3    H170013   0.523   4.395   5.463  0.2597 -0.0880 -0.0594
16174TIP3    H270014   0.410   4.344   5.375  0.1226 -1.3150  0.7920
16175TIP3   OH270015   5.034   1.775  15.091  0.4991  0.5762 -0.3263
16175TIP3    H170016   5.071   1.801  15.176 -0.8788  1.4585  0.0468
16175TIP3    H270017   5.055   1.847  15.032 -0.5438  1.0835 -0.1125
16176TIP3   OH270018   4.569   1.674   0.284  0.2274  0.3087  0.0190
16176TIP3    H170019   4.497   1.619   0.254  0.0292  0.1452  0.7774
16176TIP3    H270020   4.530   1.733   0.348  0.3860  1.5357 -0.9673
16177TIP3   OH270021   6.696   0.628  12.307 -0.1572 -0.1771  0.1010
16177TIP3    H170022   6.726   0.660  12.222  0.0790  0.0528  0.2700
16177TIP3    H270023   6.773   0.634  12.363 -0.1715 -0.8223  0.1986
16178TIP3   OH270024   4.731   4.278  15.483  0.6286  0.3962  0.5356
16178TIP3    H170025   4.712   4.362  15.525  0.5823  1.0437 -0.7313
16178TIP3    H270026   4.727   4.297  15.389  2.6844 -0.5377  0.2026
16179TIP3   OH270027   5.330   3.851   2.339  0.5830  0.1997  0.0240
16179TIP3    H170028   5.288   3.844   2.425 -1.1176  1.0256 -0.6770
16179TIP3    H270029   5.421   3.872   2.358  0.3924 -0.3052  1.6289
16180TIP3   OH270030   6.053   2.853  14.607 -0.2566  0.0585 -0.0264
16180TIP3    H170031   6.088   2.855  14.696  0.1624  1.7881 -0.1826
16180TIP3    H270032   6.079   2.768  14.572  0.8478 -0.0480  1.0008
16181TIP3   OH270033   6.089   0.177  11.576  0.3604  0.5290  0.2570
16181TIP3    H170034   6.070   0.189  11.483 -1.2811 -0.0497  0.4738
16181TIP3    H270035   6.031   0.238  11.621 -0.0735 -0.3452  0.9349
16182TIP3   OH270036   2.815   6.185  12.075 -0.1221  0.1857 -0.2098
16182TIP3    H170037   2.899   6.144  12.057 -0.0444 -0.2646  1.0686
16182TIP3    H270038   2.792   6.155  12.163 -1.6842  0.1795 -0.5870
16183TIP3   OH270039   3.531   0.556  14.837  0.3117  0.3019  0.4420
16183TIP3    H170040   3.556   0.631  14.891  1.4813 -1.3720  2.4020
16183TIP3    H270041   3.559   0.578  14.749  3.2072  1.0879  1.4661
16184TIP3   OH270042   0.523   1.530   6.037  0.3292 -0.0726  0.6616
16184TIP3    H170043   0.565   1.566   6.116  1.2547  2.0133 -0.6793
16184TIP3    H270044   0.477   1.605   5.999 -0.2637 -1.0945 -0.6794
16185TIP3   OH270045   5.394   4.132   1.864  0.0681  0.0973  0.3293
16185TIP3    H170046   5.399   4.095   1.953  1.3043 -1.3141 -0.2830
16185TIP3    H270047   5.485   4.146   1.839 -0.2820  0.6732 -0.6504
16186TIP3   OH270048   5.486   0.331   4.880 -0.1239 -0.4598  0.0147
16186TIP3    H170049   5.449   0.387   4.812 -1.9413 -1.6698 -0.0702
16186TIP3    H270050   5.526   0.258   4.832  1.8888  0.4861  0.1397
16187TIP3   OH270051   0.159   5.950   3.349  0.0622 -0.4395 -0.1617
16187TIP3    H170052   0.254   5.947   3.355  0.1922  2.5314  1.0484
16187TIP3    H270053   0.141   6.020   3.285 -1.1679  1.5366  2.1659
16188TIP3   OH270054   5.739   4.880  16.634  0.0324 -0.0074 -0.1529
16188TIP3    H170055   5.825   4.837  16.637 -0.5577 -1.3856 -1.3437
16188TIP3    H270056   5.697   4.843  16.556 -2.5503 -1.1694  1.6423
16189TIP3   OH270057   2.044   3.754  14.310  0.6170 -0.3843 -0.6427
16189TIP3    H170058   1.974   3.779  14.249  2.1053  1.9609 -1.5358
16189TIP3    H270059   2.050   3.659  14.302 -1.5597 -0.5032 -1.5052
16190TIP3   OH270060   3.175   6.407   3.631 -0.5705 -0.2548 -0.0748
16190TIP3    H170061   3.257   6.393   3.678  0.0793  0.9637 -0.7722
16190TIP3    H270062   3.107   6.374   3.690  0.5203 -3.3094 -0.3627
16191TIP3   OH270063   3.214   0.945  14.740 -0.3971 -0.5727  0.1763
16191TIP3    H170064   3.239   1.001  14.814  4.3199 -1.7702 -0.1633
16191TIP3    H270065   3.236   0.997  14.663  0.4221 -1.4290 -0.1886
16192TIP3   OH270066   5.718   1.912   1.370  0.4861  0.2133  0.2182
16192TIP3    H170067   5.794   1.864   1.336  0.6957  0.1937  0.7116
16192TIP3    H270068   5.725   1.903   1.465 -1.1379 -1.3273  0.2371
16193TIP3   OH270069   1.397   3.190  14.853 -0.3164  0.1591 -0.2010
16193TIP3    H170070   1.424   3.153  14.769 -0.6757 -0.2034 -0.1590
16193TIP3    H270071   1.314   3.234  14.834 -0.5968 -0.2568  0.0409
16194TIP3   OH270072   1.231   3.255   0.318 -0.1204 -0.1416  0.0039
16194TIP3    H170073   1.313   3.212   0.342 -0.7764 -0.6141  1.5247
16194TIP3    H270074   1.254   3.314   0.246  1.6695  0.2155  0.8401
16195TIP3   OH270075   3.889   3.182  14.232  0.3881  0.1537 -0.8879
16195TIP3    H170076   3.952   3.116  14.205  0.2397  0.0766 -1.0480
16195TIP3    H270077   3.897   3.185  14.328  1.1260  0.6375 -0.9526
16196TIP3   OH270078   1.880   6.149   0.530 -0.0873  0.5710 -0.1408
16196TIP3    H170079   1.878   6.069   0.477  1.6782  0.9166 -0.7987
16196TIP3    H270080   1.835   6.215   0.476 -0.4007  0.3374 -0.1655
16197TIP3   OH270081   1.203   1.663   2.931 -0.3263  0.5442  0.2870
16197TIP3    H170082   1.281   1.674   2.987 -0.0448 -0.1049  0.0323
16197TIP3    H270083   1.165   1.751   2.927  1.8547  1.5078 -1.7357
16198TIP3   OH270084   4.408   5.354   4.064 -0.0241 -0.1475 -0.4428
16198TIP3    H170085   4.458   5.276   4.089 -0.2607 -1.2807 -3.1423
16198TIP3    H270086   4.319   5.335   4.092  0.2380 -0.0689  0.4610
16199TIP3   OH270087   4.595   3.451  14.864  0.8237 -0.1275  0.4905
16199TIP3    H170088   4.688   3.436  14.846  1.0990 -1.5750  2.7603
16199TIP3    H270089   4.562   3.366  14.893 -1.4815  0.1120 -1.1238
16200TIP3   OH270090   0.844   6.319   2.880 -0.1506  0.5207 -0.4766
16200TIP3    H170091   0.845   6.223   2.885  0.1543  0.5600  0.5458
16200TIP3    H270092   0.926   6.346   2.923 -1.0461  1.2786  0.8218
16201TIP3   OH270093   2.515   3.197  13.216 -0.3364  0.2551 -0.1703
16201TIP3    H170094   2.470   3.281  13.221  1.1037  1.1651 -1.5853
16201TIP3    H270095   2.535   3.175  13.307 -0.9820  1.2864  0.2375
16202TIP3   OH270096   5.043   2.464   5.348  0.0343 -0.9329  0.6799
16202TIP3    H170097   5.095   2.473   5.268  0.7477 -1.1644  1.1087
16202TIP3    H270098   5.001   2.379   5.339 -0.2369 -0.7662  0.3513
16203TIP3   OH270099   0.529   4.526   6.844  0.5173  0.1044 -0.8092
16203TIP3    H170100   0.440   4.561   6.836 -0.2720 -1.3148  1.1129
16203TIP3    H270101   0.581   4.581   6.785 -1.8177  0.1446 -3.0141
16204TIP3   OH270102   3.134   5.871  13.576 -0.3140  0.2832 -0.2142
16204TIP3    H170103   3.156   5.828  13.659 -1.1975 -0.5534 -0.3847
16204TIP3    H270104   3.117   5.962  13.599  0.6599  0.3475  0.3164
16205TIP3   OH270105   0.191   0.474   3.813  0.7777  0.1550 -0.4508
16205TIP3    H170106   0.218   0.453   3.902 -0.2480  1.0212  0.0844
16205TIP3    H270107   0.147   0.395   3.782 -2.6581  1.1728  1.3759
16206TIP3   OH270108   4.040   5.395  12.917 -0.2001 -0.0265  0.1020
16206TIP3    H170109   3.993   5.468  12.959  1.1846 -0.0597  1.7813
16206TIP3    H270110   4.111   5.374  12.977  0.0529 -2.1088 -0.8575
16207TIP3   OH270111   2.623   6.457  14.970  0.8160 -0.1297  0.3150
16207TIP3    H170112   2.603   6.513  14.895  1.7952  0.2239  0.3017
16207TIP3    H270113   2.544   6.406  14.984  0.7479 -0.4914 -1.2260
16208TIP3   OH270114   4.643   0.102   5.597 -0.4131 -0.9351  0.2170
16208TIP3    H170115   4.649   0.010   5.622  1.0898 -0.3718  2.1216
16208TIP3    H270116   4.585   0.141   5.662  0.2141 -0.2278  0.3521
16209TIP3   OH270117   6.727   0.999   5.534  0.3612  0.3272 -0.1720
16209TIP3    H170118   6.784   0.923   5.515 -2.4680 -2.3506  1.1818
16209TIP3    H270119   6.666   1.001   5.461 -0.0613  0.8316  0.1940
16210TIP3   OH270120   5.768   6.058  11.977  0.2483 -0.5550 -0.1163
16210TIP3    H170121   5.675   6.039  11.981  0.1994 -1.4913 -2.9689
16210TIP3    H270122   5.776   6.149  12.003 -1.2837 -0.7424  1.1716
16211TIP3   OH270123   1.471   6.148   2.737  0.1071 -0.4177 -0.3150
16211TIP3    H170124   1.396   6.100   2.703 -0.2427  0.2768 -0.5482
16211TIP3    H270125   1.519   6.176   2.659  0.0442  0.0251 -0.1957
16212TIP3   OH270126   1.729   0.027  16.213 -0.6293  0.3231  0.2876
16212TIP3    H170127   1.787  -0.024  16.268  0.3847  0.8836 -0.2284
16212TIP3    H270128   1.645  -0.019  16.216  0.4199 -1.7638 -0.7252
16213TIP3   OH270129   1.940   6.124   0.784 -0.3199 -0.0579  0.4799
16213TIP3    H170130   1.942   6.028   0.786 -1.4973 -0.1364 -0.6414
16213TIP3    H270131   1.918   6.145   0.693  0.6602  1.3099  0.5392
16214TIP3   OH270132   6.120   6.063   4.698 -0.2549 -0.2803  0.4453
16214TIP3    H170133   6.206   6.022   4.704  0.2679  0.8661  1.1179
16214TIP3    H270134   6.061   5.990   4.679  0.9639 -0.9639 -0.9498
16215TIP3   OH270135   6.518   5.077   3.328  0.8402  0.4034 -0.0138
16215TIP3    H170136   6.565   5.143   3.277  3.6326 -1.5126 -0.1625
16215TIP3    H270137   6.561   4.995   3.306 -0.6236 -1.1029  2.2885
16216TIP3   OH270138   1.904   3.048  11.412 -0.5699 -0.0666  0.3955
16216TIP3    H170139   2.000   3.055  11.411 -0.6164  0.8721 -0.9754
16216TIP3    H270140   1.874   3.138  11.397 -1.6607 -0.4170  0.4497
16217TIP3   OH270141   4.421   0.234  16.790  0.0733  0.5146  0.4251
16217TIP3    H170142   4.354   0.222  16.723  0.3451  0.6831  0.1135
16217TIP3    H270143   4.394   0.178  16.862 -0.4390  0.6388  0.3351
16218TIP3   OH270144   2.117   1.282  12.340 -0.1112 -0.5766  0.3406
16218TIP3    H170145   2.131   1.229  12.419  1.2591  2.1697  2.0792
16218TIP3    H270146   2.204   1.297  12.304 -0.4284  0.6893  0.0415
16219TIP3   OH270147   3.218   6.445  13.462  0.2808  0.4772  0.6051
16219TIP3    H170148   3.252   6.376  13.405  0.2975 -0.1018  1.3079
16219TIP3    H270149   3.294   6.502  13.478  0.4552  0.2359  0.6387
16220TIP3   OH270150   6.501   2.801   6.376 -0.2883  0.1519  0.1796
16220TIP3    H170151   6.562   2.798   6.450 -0.2609 -0.8458  0.1263
16220TIP3    H270152   6.502   2.893   6.348  1.0873  0.1846  0.2624
16221TIP3   OH270153   3.376   4.414   2.511 -0.1160 -0.3168  0.0298
16221TIP3    H170154   3.362   4.321   2.494  0.5196 -0.3996 -0.0662
16221TIP3    H270155   3.370   4.423   2.606  0.4257 -0.5604  0.0893
16222TIP3   OH270156   5.930   1.835   4.635  0.0209  0.6638  0.1837
16222TIP3    H170157   6.017   1.835   4.674  0.8986  2.3685 -1.5770
16222TIP3    H270158   5.889   1.915   4.667  0.1147  1.1995 -0.9870
16223TIP3   OH270159   4.125   6.640  10.663 -0.0027 -0.2279 -0.2840
16223TIP3    H170160   4.087   6.624  10.749 -0.6047  2.9155  0.1633
16223TIP3    H270161   4.209   6.684  10.682  1.1097 -1.7935 -1.3281
16224TIP3   OH270162   6.565   0.043   4.851 -0.7653  0.4070  0.3285
16224TIP3    H170163   6.660   0.032   4.840 -0.8621  0.4958 -0.6694
16224TIP3    H270164   6.556   0.108   4.920 -0.0857  1.0373 -0.1648
16225TIP3   OH270165   1.004   5.985  14.583 -0.3739 -0.2445  0.0714
16225TIP3    H170166   0.988   6.024  14.497 -2.6669 -0.6372  0.2517
16225TIP3    H270167   1.051   6.053  14.631  0.7964  0.0437 -1.4207
16226TIP3   OH270168   2.717   5.380  14.259  0.1613 -0.3114 -0.3203
16226TIP3    H170169   2.756   5.466  14.273 -1.2576  0.3551 -0.2864
16226TIP3    H270170   2.728   5.335  14.343 -0.1749  0.3008  0.0577
16227TIP3   OH270171   4.477   0.567   6.291 -0.2194  0.0450  0.6344
16227TIP3    H170172   4.393   0.594   6.328 -0.9169 -1.0273 -0.1061
16227TIP3    H270173   4.482   0.613   6.207 -0.8267 -1.1042 -0.0517
16228TIP3   OH270174   3.695   0.697  12.591 -0.2873  0.8624 -0.9268
16228TIP3    H170175   3.640   0.763  12.633 -0.5370  0.5628 -0.7767
16228TIP3    H270176   3.686   0.715  12.497 -0.0191  1.3036 -0.8669
16229TIP3   OH270177   5.017   4.939  12.743 -0.0835  0.4728 -0.4327
16229TIP3    H170178   4.943   4.986  12.703 -1.7601 -0.5666  1.2932
16229TIP3    H270179   4.996   4.846  12.730 -0.4755  0.1009  2.3379
16230TIP3   OH270180   2.440   1.122   0.123 -0.4304 -0.0377  0.0731
16230TIP3    H170181   2.474   1.140   0.210 -1.0747  1.2035  0.0891
16230TIP3    H270182   2.347   1.105   0.135 -0.4533 -0.2224 -0.3270
16231TIP3   OH270183   4.549   4.877  15.723  0.1770  0.6011  0.2417
16231TIP3    H170184   4.625   4.895  15.779 -0.6716 -1.8142  2.4069
16231TIP3    H270185   4.534   4.783  15.735 -2.6101  0.8438 -0.8234
16232TIP3   OH270186   0.988   2.169   3.992  0.6568 -0.4498 -0.0887
16232TIP3    H170187   1.039   2.111   3.936  0.3169 -0.8892  0.0545
16232TIP3    H270188   0.907   2.184   3.943  0.8112  0.0372 -0.1998
16233TIP3   OH270189   1.997   6.588   1.495 -0.0551 -0.0266 -0.2583
16233TIP3    H170190   2.051   6.592   1.416  1.7336 -1.0933  0.8399
16233TIP3    H270191   2.058   6.603   1.567 -1.6547  1.0052  0.9521
16234TIP3   OH270192   3.148   6.126  15.568 -0.7759  0.0795 -0.1733
16234TIP3    H170193   3.089   6.188  15.612 -1.6989 -0.9134  0.0332
16234TIP3    H270194   3.117   6.040  15.597  0.2832 -0.4893 -0.7061
16235TIP3   OH270195   0.204   5.505  14.380 -0.7155  0.1005 -0.4251
16235TIP3    H170196   0.109   5.496  14.389 -0.6753 -0.9740 -0.8155
16235TIP3    H270197   0.239   5.421  14.412  0.0191  0.0389 -1.3357
16236TIP3   OH270198   0.136   5.027   5.215 -0.5224 -0.5536  0.1849
16236TIP3    H170199   0.067   5.008   5.279  0.4159 -0.1850  1.3429
16236TIP3    H270200   0.164   4.941   5.184 -1.3417 -0.7135 -0.1195
16237TIP3   OH270201   1.806   4.605   4.226 -0.7425  0.1744  0.5097
16237TIP3    H170202   1.734   4.624   4.166  0.6857 -0.1985 -1.4086
16237TIP3    H270203   1.838   4.519   4.199 -0.2529 -0.1686  2.0552
16238TIP3   OH270204   1.686   5.721   5.277 -0.0675  0.2370  0.1826
16238TIP3    H170205   1.613   5.769   5.237  0.5709 -0.2606 -1.6662
16238TIP3    H270206   1.675   5.736   5.371 -3.5037 -1.1771  0.1481
16239TIP3   OH270207   2.972   0.979  17.146 -0.0579 -0.0716 -0.3724
16239TIP3    H170208   2.967   1.060  17.096  2.0054  0.1697 -0.2645
16239TIP3    H270209   3.028   0.922  17.094  2.4863  0.3238  1.7355
16240TIP3   OH270210   0.350   2.557   6.246  0.0106  0.1834 -0.4042
16240TIP3    H170211   0.382   2.600   6.166  2.0412 -0.9214 -0.2233
16240TIP3    H270212   0.310   2.476   6.215 -1.2334  0.7826 -0.4602
16241TIP3   OH270213   0.480   1.277   6.345  0.0428 -0.3481 -0.5555
16241TIP3    H170214   0.440   1.255   6.261 -2.4908  0.3630  0.3586
16241TIP3    H270215   0.508   1.368   6.335  0.1610 -0.4071 -0.7692
16242TIP3   OH270216   2.933   0.106   1.624 -0.0965  0.1296 -0.3015
16242TIP3    H170217   3.000   0.067   1.680  0.6980 -0.0445 -1.3363
16242TIP3    H270218   2.876   0.154   1.685  0.4383 -0.4657  0.6975
16243TIP3   OH270219   4.658   2.793   4.116  0.5046 -0.2554 -0.5096
16243TIP3    H170220   4.611   2.805   4.034 -1.1915 -1.1316  0.2708
16243TIP3    H270221   4.701   2.708   4.107  1.5132  0.2920 -1.0089
16244TIP3   OH270222   0.071   4.878  16.271  0.3395 -0.3385 -0.5295
16244TIP3    H170223   0.086   4.968  16.301 -0.1593 -0.1382 -0.8424
16244TIP3    H270224   0.157   4.847  16.244  0.5688 -0.0616 -0.1290
16245TIP3   OH270225   6.206   5.898  16.456 -0.5789  0.1501 -0.4716
16245TIP3    H170226   6.166   5.862  16.536 -1.0183  0.3136 -0.6189
16245TIP3    H270227   6.172   5.843  16.386 -0.7408  0.4443 -0.6252
16246TIP3   OH270228   3.212   5.301   4.262 -0.1516  0.3932 -0.6499
16246TIP3    H170229   3.293   5.271   4.221 -0.6498  0.3273 -1.6098
16246TIP3    H270230   3.145   5.289   4.195 -0.8213  1.1941 -0.1453
16247TIP3   OH270231   3.541   1.832   6.330  0.1540 -0.3136  0.3654
16247TIP3    H170232   3.448   1.821   6.314 -0.0844 -0.7230  1.8971
16247TIP3    H270233   3.554   1.927   6.333 -0.3723 -0.2543  0.9316
16248TIP3   OH270234   3.123   6.532   4.701  0.0828  0.5124  0.0001
16248TIP3    H170235   3.203   6.492   4.733 -0.1620  0.5291  0.6395
16248TIP3    H270236   3.088   6.580   4.776 -0.7601  0.1381 -0.1403
16249TIP3   OH270237   6.040   0.715  14.597  0.3417 -0.1524  0.0868
16249TIP3    H170238   6.019   0.784  14.659  1.9279  0.1248  0.3588
16249TIP3    H270239   5.994   0.638  14.630  2.3234 -0.4045  2.5130
16250TIP3   OH270240   4.955   5.731   2.196  0.7900  0.5451 -0.0830
16250TIP3    H170241   4.967   5.652   2.143  0.4409  0.8987 -0.6940
16250TIP3    H270242   5.000   5.800   2.148  1.7210  0.5924  0.8116
16251TIP3   OH270243   0.591   2.982  15.059  0.0491 -0.0300 -0.5278
16251TIP3    H170244   0.643   2.922  15.111  1.4785  0.7697 -0.9748
16251TIP3    H270245   0.633   2.983  14.973 -1.3883 -0.2110 -1.2640
16252TIP3   OH270246   3.629   1.852   1.022 -0.3786  0.0355  0.1651
16252TIP3    H170247   3.666   1.844   1.110 -1.2693 -0.3369  0.5134
16252TIP3    H270248   3.555   1.791   1.022  1.0217 -1.8128 -1.6174
16253TIP3   OH270249   3.803   4.631  14.166  0.0119  0.2399 -0.5001
16253TIP3    H170250   3.724   4.677  14.138 -0.4555  0.4053  0.9862
16253TIP3    H270251   3.866   4.701  14.186  1.2339  0.1036 -3.3748
16254TIP3   OH270252   6.127   2.060  16.709  0.4900  0.0240 -0.3509
16254TIP3    H170253   6.117   2.111  16.628  2.2055  0.0455 -0.5853
16254TIP3    H270254   6.124   2.125  16.779  1.4241  0.3242 -0.5727
16255TIP3   OH270255   2.711   6.829  17.000 -0.2948 -0.3481  0.7501
16255TIP3    H170256   2.767   6.895  17.040  0.2355 -0.7950  0.7471
16255TIP3    H270257   2.746   6.746  17.030  1.7346 -0.8829 -2.5424
16256TIP3   OH270258   1.945   3.613   1.284 -0.0628  0.0325  0.3314
16256TIP3    H170259   1.872   3.671   1.308  0.6810  1.4077 -0.6245
16256TIP3    H270260   1.940   3.606   1.189 -0.1655 -1.5618  0.4226
16257TIP3   OH270261   1.987   2.445  16.958  0.4233  0.1950 -0.4543
16257TIP3    H170262   1.928   2.469  17.029 -1.9831 -0.3596 -2.1457
16257TIP3    H270263   1.996   2.350  16.966  0.6560  0.2111 -0.5293
16258TIP3   OH270264   2.073   1.517   1.526  0.9057 -0.5285 -0.3945
16258TIP3    H170265   1.999   1.564   1.564  0.2792 -0.2099 -1.9376
16258TIP3    H270266   2.062   1.527   1.431  1.8683 -2.0890 -0.7156
16259TIP3   OH270267   0.097   4.337  11.448  0.0291 -0.6298 -0.1854
16259TIP3    H170268   0.165   4.401  11.470 -0.4063 -0.3213  0.2627
16259TIP3    H270269   0.027   4.388  11.407 -0.4643 -0.7596  0.4798
16260TIP3   OH270270   4.982   3.544  14.242  0.8734 -0.4851  0.6514
16260TIP3    H170271   5.025   3.463  14.216  2.6291  0.5572  0.0823
16260TIP3    H270272   5.028   3.612  14.193  0.0312  0.9489  1.7500
16261TIP3   OH270273   3.990   3.598   1.723 -0.9595  0.0486 -0.0566
16261TIP3    H170274   3.968   3.689   1.703  1.4638  0.9184  0.8678
16261TIP3    H270275   4.031   3.566   1.643  1.8295  1.1196  0.8421
16262TIP3   OH270276   0.085   4.860   5.692 -0.4847  0.1780  0.3346
16262TIP3    H170277   0.106   4.909   5.771  0.0721  0.0378  0.2778
16262TIP3    H270278   0.169   4.824   5.663 -0.8441 -0.6347  0.2614
16263TIP3   OH270279   4.312   1.138   5.546 -0.4664 -0.5146 -0.4067
16263TIP3    H170280   4.255   1.145   5.623  0.7862 -2.0400  0.7447
16263TIP3    H270281   4.266   1.079   5.487 -2.0747  1.7274 -1.5130
16264TIP3   OH270282   5.477   0.988   4.316 -0.9485 -0.2021  0.1911
16264TIP3    H170283   5.546   1.033   4.267 -1.4066  0.7488  0.3953
16264TIP3    H270284   5.442   0.924   4.254  0.9126 -1.5455  0.4857
16265TIP3   OH270285   2.696   5.339   4.956 -0.2662  0.4793 -0.1693
16265TIP3    H170286   2.691   5.404   4.887  0.7102  0.4128 -0.3214
16265TIP3    H270287   2.774   5.363   5.006 -1.8650  1.5331  1.9712
16266TIP3   OH270288   4.365   4.966   2.761  0.0269 -0.6490 -0.0623
16266TIP3    H170289   4.389   5.030   2.828 -0.1387 -1.7986  1.1129
16266TIP3    H270290   4.324   5.019   2.692  1.1218  0.6742  0.2568
16267TIP3   OH270291   6.238   2.774   3.228 -0.3236  0.2562 -0.1021
16267TIP3    H170292   6.158   2.726   3.250 -0.5535  0.1689 -1.0956
16267TIP3    H270293   6.268   2.735   3.146  0.7784  0.2494  0.2891
16268TIP3   OH270294   3.280   6.043  17.176 -0.0252  0.6151 -0.0633
16268TIP3    H170295   3.266   6.125  17.129  0.4163  1.6286  1.5077
16268TIP3    H270296   3.364   6.055  17.221 -0.3447 -0.3839  0.8312
16269TIP3   OH270297   4.311   3.320  12.260  0.1327 -0.3397  0.3608
16269TIP3    H170298   4.265   3.359  12.334  0.0825  0.4351 -0.0640
16269TIP3    H270299   4.404   3.322  12.285  0.2188  0.8353  0.0135
16270TIP3   OH270300   2.719   6.112  10.413 -0.0438 -0.4718 -0.4374
16270TIP3    H170301   2.797   6.056  10.410  0.3022 -0.0232  0.1597
16270TIP3    H270302   2.669   6.079  10.487  0.4662  0.4047  0.3076
16271TIP3   OH270303   4.075   4.744  11.879  0.0340 -0.5188 -0.2345
16271TIP3    H170304   4.169   4.758  11.870 -0.0510  1.2675  1.0632
16271TIP3    H270305   4.038   4.776  11.796  0.4472  0.5144 -0.0380
16272TIP3   OH270306   5.058   1.971   3.901  0.3349  0.6281 -0.8591
16272TIP3    H170307   4.980   1.957   3.954  1.4682 -0.7135  0.5308
16272TIP3    H270308   5.068   1.890   3.851  1.3624  0.3811 -0.2834
16273TIP3   OH270309   1.333   0.085   6.152  0.0745  0.2849  0.3205
16273TIP3    H170310   1.390   0.141   6.205  0.9720 -1.8742  1.7973
16273TIP3    H270311   1.275   0.043   6.216 -0.6177 -0.3893 -0.7304
16274TIP3   OH270312   3.613   4.119   5.092  0.1580 -0.7821  0.6542
16274TIP3    H170313   3.661   4.037   5.105  0.3782 -0.8954 -0.6919
16274TIP3    H270314   3.615   4.133   4.997 -2.2055 -0.6388  0.5540
16275TIP3   OH270315   6.707   6.011  16.943  0.3330  0.4644  0.0529
16275TIP3    H170316   6.709   5.916  16.935  1.6497  0.5045 -0.2340
16275TIP3    H270317   6.643   6.028  17.013  1.4979 -0.7262  1.4536
16276TIP3   OH270318   6.548   5.794  15.554  0.5862 -0.3380  0.1754
16276TIP3    H170319   6.638   5.771  15.580  0.2152  0.0264  1.9112
16276TIP3    H270320   6.497   5.717  15.578 -0.0250  0.6259  2.2332
16277TIP3   OH270321   2.981   4.829  15.217 -0.2965  0.0222 -0.3633
16277TIP3    H170322   2.978   4.836  15.313  2.6114  2.3277 -0.2905
16277TIP3    H270323   2.892   4.847  15.189 -0.8310  1.2912  1.8862
16278TIP3   OH270324   1.114   0.741   4.911 -0.3061 -0.5563  0.1105
16278TIP3    H170325   1.179   0.756   4.843 -0.7350 -0.2551 -0.2424
16278TIP3    H270326   1.088   0.650   4.901  1.5145 -1.2891  1.5550
16279TIP3   OH270327   6.397   4.854   5.866 -0.0359  0.5205  0.3161
16279TIP3    H170328   6.389   4.884   5.776  1.4295 -0.9917 -0.3690
16279TIP3    H270329   6.481   4.891   5.896  0.2832 -0.3206  0.4876
16280TIP3   OH270330   6.746   2.363   4.594  0.4739  0.2110  0.4450
16280TIP3    H170331   6.679   2.401   4.651  0.6388 -0.6678  1.2497
16280TIP3    H270332   6.697   2.321   4.524  0.2996  2.8690 -1.1674
16281TIP3   OH270333   0.447   3.662   3.259  0.4455  0.1502 -0.3089
16281TIP3    H170334   0.509   3.626   3.323  0.2599 -0.1939 -0.3194
16281TIP3    H270335   0.373   3.601   3.261 -0.1693  0.8909  0.1580
16282TIP3   OH270336   4.976   5.567  13.826  0.3428 -0.5670  0.4164
16282TIP3    H170337   5.063   5.602  13.807  1.1458 -2.6687 -0.0065
16282TIP3    H270338   4.920   5.603  13.757  0.6158  1.5414  1.2195
16283TIP3   OH270339   6.739   6.441  15.249  0.3070 -0.1372  0.3308
16283TIP3    H170340   6.712   6.423  15.338 -3.0784 -1.4185 -0.7862
16283TIP3    H270341   6.775   6.358  15.217 -0.5810 -0.3577 -0.1247
16284TIP3   OH270342   4.150   2.359   4.359 -0.1308  0.1633  0.2139
16284TIP3    H170343   4.082   2.383   4.421  0.4205 -0.9564  1.2849
16284TIP3    H270344   4.129   2.269   4.334 -0.7168  0.7896 -1.7657
16285TIP3   OH270345   5.584   4.758  10.514  0.5257  0.1179  0.0988
16285TIP3    H170346   5.492   4.767  10.539  0.2318 -2.3276  0.1970
16285TIP3    H270347   5.615   4.847  10.503 -1.7555  1.0243  0.4309
16286TIP3   OH270348   1.878   3.064   0.581  0.0603 -0.5289  0.6971
16286TIP3    H170349   1.853   3.148   0.621 -0.6805  0.2001 -1.1665
16286TIP3    H270350   1.861   2.999   0.649  1.3776  0.8883  2.4630
16287TIP3   OH270351   3.016   3.783  10.840  0.0295  0.4717  0.8694
16287TIP3    H170352   2.990   3.716  10.777 -2.8799  2.5563 -0.4070
16287TIP3    H270353   2.997   3.745  10.925 -1.9802 -0.2553  0.1624
16288TIP3   OH270354   1.509   1.519   4.625  0.3011  0.1647  0.1223
16288TIP3    H170355   1.554   1.573   4.561 -0.2467  1.9296  1.1447
16288TIP3    H270356   1.547   1.545   4.709 -1.7700  0.9059  0.9073
16289TIP3   OH270357   5.588   6.504   1.823  0.0543 -0.1142 -0.3051
16289TIP3    H170358   5.611   6.448   1.897  0.0484  0.7636  0.3890
16289TIP3    H270359   5.654   6.573   1.823 -0.2203  0.1579 -0.8288
16290TIP3   OH270360   1.161   3.833  12.544 -0.3579 -0.5942 -0.1843
16290TIP3    H170361   1.175   3.844  12.639 -0.3800  0.0411 -0.2470
16290TIP3    H270362   1.097   3.900  12.522  0.8750  0.3802 -0.9369
16291TIP3   OH270363   6.345   2.958   1.085 -0.2543  0.9634  0.4625
16291TIP3    H170364   6.275   3.006   1.041  0.2779  1.8621  0.5908
16291TIP3    H270365   6.300   2.882   1.124 -0.7931  0.2812 -1.3431
16292TIP3   OH270366   6.055   1.091   3.365 -0.4394 -0.2146 -0.4520
16292TIP3    H170367   6.148   1.112   3.358 -0.3958  0.4470  1.4285
16292TIP3    H270368   6.042   1.016   3.307  1.4188 -0.7346 -0.2339
16293TIP3   OH270369   6.566   5.865  12.890 -0.0048 -0.5146  0.3469
16293TIP3    H170370   6.583   5.784  12.938  0.4862  0.4567  1.8991
16293TIP3    H270371   6.653   5.903  12.877 -0.3594  1.6397  3.1661
16294TIP3   OH270372   1.792   6.555   4.773 -0.2188  0.3308 -0.2348
16294TIP3    H170373   1.712   6.539   4.723 -0.1708  1.6489 -0.7841
16294TIP3    H270374   1.855   6.587   4.708  0.9329 -1.1547  0.0991
16295TIP3   OH270375   2.347   0.663   2.591 -0.1038  0.4226 -0.4872
16295TIP3    H170376   2.421   0.720   2.573 -0.5562  0.9279 -0.7503
16295TIP3    H270377   2.387   0.579   2.616  0.5517  0.2225 -2.0786
16296TIP3   OH270378   1.220   4.575  16.567 -0.3925  0.6431  0.6329
16296TIP3    H170379   1.216   4.646  16.504 -0.3396 -1.5977 -2.0964
16296TIP3    H270380   1.299   4.526  16.544  0.5260  0.5576  3.5234
16297TIP3   OH270381   2.634   6.314  16.576 -0.3761 -1.1623 -0.2538
16297TIP3    H170382   2.540   6.321  16.593 -0.3274 -0.4007 -0.2577
16297TIP3    H270383   2.669   6.401  16.596  0.5964 -1.8709  1.3702
16298TIP3   OH270384   5.490   1.810   1.207  0.1197  0.0949 -0.3318
16298TIP3    H170385   5.515   1.724   1.174  0.2557 -0.4464  1.1449
16298TIP3    H270386   5.572   1.847   1.242  0.2716  1.2364 -1.7816
16299TIP3   OH270387   2.098   5.318  12.682 -0.0168  0.0792 -0.1310
16299TIP3    H170388   2.095   5.237  12.734 -0.6962  0.5245  0.5387
16299TIP3    H270389   2.181   5.313  12.635  1.6361  0.5794  2.5146
16300TIP3   OH270390   2.927   3.982   4.028  0.1414  0.3321 -0.1187
16300TIP3    H170391   2.957   4.072   4.013  0.9641  0.3943  1.6778
16300TIP3    H270392   2.995   3.943   4.083 -1.4026 -0.6020  1.2123
16301TIP3   OH270393   6.296   3.505  14.090  0.3760  0.2618 -0.3345
16301TIP3    H170394   6.280   3.584  14.142  0.2130  0.2529 -0.3713
16301TIP3    H270395   6.262   3.434  14.145 -0.5915  0.3337 -0.8217
16302TIP3   OH270396   4.448   2.352  16.417  0.0447 -0.3438  0.1735
16302TIP3    H170397   4.366   2.402  16.419 -1.0744 -2.1406  0.6542
16302TIP3    H270398   4.487   2.375  16.332 -0.1407  1.7327  0.5921
16303TIP3   OH270399   2.361   5.972  16.617 -0.0244  0.5234 -0.2723
16303TIP3    H170400   2.267   5.988  16.626  0.2028  1.1481  1.2016
16303TIP3    H270401   2.383   5.915  16.690  0.1457 -2.6505 -2.6049
16304TIP3   OH270402   2.984   3.107   5.683 -0.5493  0.2621 -0.4980
16304TIP3    H170403   2.957   3.152   5.602 -0.9865 -0.0007 -0.5006
16304TIP3    H270404   2.907   3.113   5.740 -0.1000  0.8206  0.0618
16305TIP3   OH270405   3.933   4.477  11.849 -1.0417  0.4350 -0.0493
16305TIP3    H170406   3.989   4.401  11.835 -1.3378 -0.0905  1.4394
16305TIP3    H270407   3.995   4.549  11.865 -0.7491  0.6606 -2.0061
16306TIP3   OH270408   4.098   1.164  12.151  0.0489  0.7107 -0.3089
16306TIP3    H170409   4.038   1.171  12.076 -0.1650  1.6343 -0.0601
16306TIP3    H270410   4.056   1.100  12.209 -0.5188  1.0709 -0.3133
16307TIP3   OH270411   5.783   6.621  15.930  0.2204 -0.0722  0.1039
16307TIP3    H170412   5.796   6.575  15.847  2.6201 -0.9994  0.9155
16307TIP3    H270413   5.835   6.701  15.922  1.5696 -0.8110  1.1655
16308TIP3   OH270414   6.738   1.536  12.596 -0.0020 -0.3234  0.2873
16308TIP3    H170415   6.742   1.541  12.500  0.7673 -0.0541  0.3303
16308TIP3    H270416   6.826   1.561  12.625 -0.2030 -0.5037  1.0610
16309TIP3   OH270417   1.488   2.454   3.774 -0.7451 -0.1499 -0.5256
16309TIP3    H170418   1.476   2.414   3.688 -3.8986 -0.2193 -0.1573
16309TIP3    H270419   1.546   2.529   3.758  0.3197 -1.2761 -2.3005
16310TIP3   OH270420   3.663   2.352   1.822  0.4248 -0.2762 -0.2876
16310TIP3    H170421   3.717   2.417   1.866  0.2429 -0.9341  0.9614
16310TIP3    H270422   3.717   2.321   1.749  0.6878  0.9225 -0.6287
16311TIP3   OH270423   3.492   0.683   4.846 -0.0058 -0.2290  0.7971
16311TIP3    H170424   3.420   0.690   4.783 -1.5185  1.6730  2.5709
16311TIP3    H270425   3.552   0.754   4.823 -0.1368 -0.0599  0.9673
16312TIP3   OH270426   5.905   0.068   3.009  0.2867  0.2019  0.1552
16312TIP3    H170427   5.997   0.094   3.001  0.5323 -0.5428  0.4946
16312TIP3    H270428   5.894  -0.002   2.944  0.2438 -0.4453  0.8445
16313TIP3   OH270429   3.664   1.650   0.184 -0.6192 -0.2602  0.1037
16313TIP3    H170430   3.598   1.711   0.217 -0.0637  0.0946  0.5831
16313TIP3    H270431   3.661   1.577   0.246 -0.8126 -0.4091 -0.0815
16314TIP3   OH270432   2.338   0.364  11.598  0.2312  0.0713  0.4472
16314TIP3    H170433   2.309   0.442  11.645 -1.4748 -0.8821  1.0756
16314TIP3    H270434   2.284   0.363  11.518  0.5136 -0.2619  0.2559
16315TIP3   OH270435   5.757   4.858  13.511  0.5270  0.4386 -0.2641
16315TIP3    H170436   5.741   4.788  13.575 -0.8677 -0.6871 -1.7666
16315TIP3    H270437   5.835   4.831  13.463 -0.8499 -0.9210 -1.8420
16316TIP3   OH270438   0.180   6.144   2.549  0.0909  0.1728  0.6744
16316TIP3    H170439   0.188   6.109   2.637  1.1954 -0.3554  0.3777
16316TIP3    H270440   0.178   6.239   2.561  1.8353  0.1667  1.1727
16317TIP3   OH270441   4.767   1.545  16.933 -0.2213  0.1523  0.0255
16317TIP3    H170442   4.706   1.506  16.870 -1.0481 -0.0620  0.9425
16317TIP3    H270443   4.726   1.531  17.018  0.4382  1.2612  0.5461
16318TIP3   OH270444   5.595   3.319  16.191 -1.1663 -0.1923 -0.2536
16318TIP3    H170445   5.513   3.293  16.234 -1.6511  1.2025 -0.2650
16318TIP3    H270446   5.655   3.247  16.208 -2.3926 -1.2411 -0.2267
16319TIP3   OH270447   6.061   1.514   2.073  0.4712  0.5366  0.0809
16319TIP3    H170448   6.127   1.547   2.134  0.2339  1.9385 -0.3856
16319TIP3    H270449   6.073   1.566   1.994 -0.1312 -0.3176 -0.5907
16320TIP3   OH270450   2.674   3.334  14.695 -0.3368 -0.3753 -0.1117
16320TIP3    H170451   2.655   3.387  14.618 -1.1011 -0.9207 -0.3153
16320TIP3    H270452   2.753   3.373  14.733 -0.7519  0.7605 -0.3733
16321TIP3   OH270453   2.258   6.332   3.644 -0.4032 -0.4456  0.9852
16321TIP3    H170454   2.265   6.426   3.625  0.6297 -0.9326 -1.3136
16321TIP3    H270455   2.178   6.304   3.599  1.6002 -1.4382 -2.2643
16322TIP3   OH270456   6.359   4.946  17.085 -0.3289  0.1450  0.4000
16322TIP3    H170457   6.313   4.892  17.148 -0.8642  1.0698  0.8265
16322TIP3    H270458   6.448   4.955  17.121  0.1010 -1.3280 -0.2364
16323TIP3   OH270459   4.667   0.377  15.129  0.2623  0.6219  0.4420
16323TIP3    H170460   4.758   0.388  15.159 -0.3785  0.1215  2.7593
16323TIP3    H270461   4.643   0.289  15.158 -0.8420  0.5658 -0.5754
16324TIP3   OH270462   5.164   6.766   5.898 -0.2134  0.3742 -0.3570
16324TIP3    H170463   5.101   6.703   5.932  0.9802 -1.2729 -0.9991
16324TIP3    H270464   5.249   6.724   5.913  0.6322  1.8685 -0.7931
16325TIP3   OH270465   6.633   4.081   5.293  0.2289  0.5681 -0.0496
16325TIP3    H170466   6.601   4.035   5.370  4.3583 -0.5540  1.2362
16325TIP3    H270467   6.585   4.042   5.220 -0.3032 -1.8903  1.5086
16326TIP3   OH270468   0.031   1.609  16.002 -0.3749 -0.1145  0.2010
16326TIP3    H170469   0.116   1.649  16.020 -0.8510  1.9300 -1.6457
16326TIP3    H270470  -0.033   1.667  16.044 -1.0259  0.5780 -1.6256
16327TIP3   OH270471   0.391   0.597   5.339  0.6323  0.3312 -0.1796
16327TIP3    H170472   0.351   0.564   5.259 -0.6568 -1.2803  1.0463
16327TIP3    H270473   0.457   0.531   5.361 -0.2347 -0.1894  0.9750
16328TIP3   OH270474   3.927   5.747  13.341  0.1651  0.4787  0.1886
16328TIP3    H170475   3.956   5.838  13.336 -0.6345  0.8004  1.1146
16328TIP3    H270476   4.003   5.699  13.375  1.0531  0.5357 -1.6038
16329TIP3   OH270477   5.571   1.877  12.715 -0.0890  0.4753  0.2513
16329TIP3    H170478   5.546   1.969  12.707  1.2086  0.7712 -0.7521
16329TIP3    H270479   5.584   1.848  12.624 -1.7224 -1.0770  0.4636
16330TIP3   OH270480   5.094   6.252   3.023 -0.2932 -0.2274 -0.1257
16330TIP3    H170481   5.120   6.291   2.940  1.5791  0.4336  0.7145
16330TIP3    H270482   5.075   6.327   3.080 -0.2555 -0.6395  0.4348
16331TIP3   OH270483   4.080   5.150  12.714  0.6777 -0.2551 -0.7009
16331TIP3    H170484   4.139   5.206  12.665  1.2172  1.2867  1.5563
16331TIP3    H270485   4.138   5.092  12.764  0.2835  0.2946  0.4272
16332TIP3   OH270486   2.917   5.975   3.232  0.1385 -0.5641 -0.1389
16332TIP3    H170487   3.012   5.974   3.246  0.1017  0.2875  0.2722
16332TIP3    H270488   2.906   6.021   3.149 -0.0480  3.3307  1.7965
16333TIP3   OH270489   0.522   3.702  13.579  0.3672 -0.2693  0.0252
16333TIP3    H170490   0.518   3.723  13.486 -0.6921 -2.3034 -0.4306
16333TIP3    H270491   0.493   3.782  13.623  1.2189  0.8413 -1.3440
16334TIP3   OH270492   4.390   6.461   4.431  0.9615  0.2872  0.4286
16334TIP3    H170493   4.314   6.406   4.446  1.1367  0.3665  1.7602
16334TIP3    H270494   4.389   6.479   4.337  1.2733 -2.5107 -0.1966
16335TIP3   OH270495   4.586   1.060   0.369  0.1120 -0.0809  0.4110
16335TIP3    H170496   4.600   0.966   0.359 -1.5576 -0.2786 -0.3162
16335TIP3    H270497   4.491   1.071   0.360  0.0587  1.4584  2.2432
16336TIP3   OH270498   5.361   0.061   1.392  0.5626  0.3739  0.9181
16336TIP3    H170499   5.409   0.122   1.448  1.4553  1.5031 -0.9884
16336TIP3    H270500   5.426  -0.002   1.363  0.9124  1.6793 -1.3591
16337TIP3   OH270501   1.813   4.121   4.549 -0.6103 -0.4420  0.1431
16337TIP3    H170502   1.839   4.110   4.641 -1.6571  0.2943  0.5467
16337TIP3    H270503   1.877   4.182   4.513  0.3852 -1.4682  0.0931
16338TIP3   OH270504   4.767   1.597  12.280  0.1506 -0.8460  0.4597
16338TIP3    H170505   4.801   1.659  12.345 -2.1278  1.9378 -0.7950
16338TIP3    H270506   4.838   1.585  12.218  0.4638  1.0798  0.3945
16339TIP3   OH270507   3.002   2.885   2.811 -0.3062  0.5682 -0.4630
16339TIP3    H170508   3.009   2.850   2.723 -0.8463 -0.3931 -0.1285
16339TIP3    H270509   3.049   2.969   2.807  0.2301  0.2312 -1.4899
16340TIP3   OH270510   4.295   1.682   3.595 -0.3927 -0.6736 -0.4445
16340TIP3    H170511   4.292   1.618   3.667  2.3711 -0.4382  0.0104
16340TIP3    H270512   4.264   1.634   3.519 -0.1556 -1.9920  0.2576
16341TIP3   OH270513   1.510   1.888  13.684 -0.1586  0.0353 -0.0988
16341TIP3    H170514   1.422   1.865  13.711  0.2394 -0.2437  1.0167
16341TIP3    H270515   1.513   1.865  13.591 -0.3343 -2.9629  0.5168
16342TIP3   OH270516   4.620   6.836   0.456  0.0346 -0.0904 -0.3765
16342TIP3    H170517   4.622   6.796   0.543 -0.3025  0.0798 -0.2909
16342TIP3    H270518   4.542   6.891   0.456  1.6328  2.3166  0.2958
16343TIP3   OH270519   2.615   1.094   1.117 -0.0067 -0.0006  0.1447
16343TIP3    H170520   2.570   1.165   1.163  0.7610  0.3518  0.3650
16343TIP3    H270521   2.554   1.020   1.121 -0.6396  0.5218  0.2742
16344TIP3   OH270522   1.850   2.510   2.632 -0.2229 -0.3927  0.3961
16344TIP3    H170523   1.769   2.465   2.653  0.0741 -1.1254  0.0288
16344TIP3    H270524   1.915   2.440   2.624  0.9987  0.2982  3.0226
16345TIP3   OH270525   4.803   5.007  15.367  0.3789  0.4935 -0.1078
16345TIP3    H170526   4.771   4.985  15.280 -0.8063  1.3389  0.0819
16345TIP3    H270527   4.750   4.952  15.426  1.0550  0.0467  0.0930
16346TIP3   OH270528   1.009   4.869  11.239 -0.1557 -0.0038  0.0552
16346TIP3    H170529   1.075   4.808  11.272 -1.5108 -1.8433 -0.4401
16346TIP3    H270530   0.931   4.850  11.292 -1.2149 -0.2204 -1.4997
16347TIP3   OH270531   6.721   4.442   4.378  0.5577  0.1239 -0.0105
16347TIP3    H170532   6.670   4.448   4.459  1.4019 -1.2498  0.6676
16347TIP3    H270533   6.770   4.524   4.373  0.0455  0.4688  0.5440
16348TIP3   OH270534   4.909   2.668  12.337  0.7221  0.5349 -0.1722
16348TIP3    H170535   4.884   2.752  12.298 -0.8549  0.5732  0.8063
16348TIP3    H270536   4.851   2.605  12.295 -0.6607  0.5031  1.6368
16349TIP3   OH270537   1.668   5.024  11.877 -0.2531 -0.3903 -0.1394
16349TIP3    H170538   1.699   5.001  11.790 -1.3852 -1.7371 -0.2247
16349TIP3    H270539   1.574   5.012  11.873 -0.2490 -1.2296  1.4744
16350TIP3   OH270540   6.657   3.001   2.211 -0.1366 -0.0575 -0.2266
16350TIP3    H170541   6.723   2.949   2.256  2.5641  1.2947 -2.2795
16350TIP3    H270542   6.646   2.957   2.126 -3.9938 -1.7344  0.9382
16351TIP3   OH270543   3.516   1.094   1.948 -0.0603  0.0566 -0.0182
16351TIP3    H170544   3.527   1.112   1.854  1.8646  0.1370  0.1810
16351TIP3    H270545   3.488   1.178   1.985  0.7780  0.4810 -0.3072
16352TIP3   OH270546   0.160   3.299  16.366 -0.0170 -0.1646  0.0725
16352TIP3    H170547   0.169   3.274  16.274 -1.2448 -0.7713  0.0950
16352TIP3    H270548   0.093   3.368  16.365 -1.1842 -1.2432  0.6437
16353TIP3   OH270549   2.402   2.608   3.439  0.2233 -0.0131  0.0934
16353TIP3    H170550   2.395   2.617   3.344  0.3250 -0.1259  0.0745
16353TIP3    H270551   2.412   2.513   3.453  0.5335  0.0338  0.1965
16354TIP3   OH270552   0.453   2.789   4.137 -0.0913 -0.4883  0.2707
16354TIP3    H170553   0.485   2.785   4.047  1.2078 -1.4312  0.7396
16354TIP3    H270554   0.480   2.876   4.168 -0.5266 -0.1699 -0.2353
16355TIP3   OH270555   3.398   0.991   4.422 -0.8822  0.1875 -0.1089
16355TIP3    H170556   3.481   1.037   4.428 -1.1684  0.8474 -0.9655
16355TIP3    H270557   3.376   0.993   4.329 -2.1579  0.5816  0.1784
16356TIP3   OH270558   6.000   6.649   3.523  0.2625 -0.1882 -0.0450
16356TIP3    H170559   5.909   6.640   3.494  0.0054  0.3802  0.5647
16356TIP3    H270560   6.010   6.742   3.541  0.0784 -0.6206  2.6671
16357TIP3   OH270561   6.236   3.415   1.211  0.0811  0.4717 -0.2010
16357TIP3    H170562   6.287   3.454   1.139  1.8406  0.1538  0.8270
16357TIP3    H270563   6.282   3.334   1.232  0.1145  0.9719  1.8535
16358TIP3   OH270564   0.113   0.375  10.526 -0.3073 -0.2537  0.4077
16358TIP3    H170565   0.029   0.421  10.520 -0.4681 -0.6876 -1.0441
16358TIP3    H270566   0.092   0.285  10.505 -0.1313 -1.2739  3.9581
16359TIP3   OH270567   0.509   3.407  16.529 -0.3937 -0.0520  0.2328
16359TIP3    H170568   0.476   3.493  16.505 -0.4201  0.1323  0.8978
16359TIP3    H270569   0.505   3.356  16.448 -1.9851  0.0573  0.2091
16360TIP3   OH270570   2.201   2.466  15.279 -0.3142 -0.2554  0.6958
16360TIP3    H170571   2.152   2.463  15.361 -1.3595 -0.3216  0.0835
16360TIP3    H270572   2.190   2.379  15.241 -0.3447 -0.0344  0.1978
16361TIP3   OH270573   6.326   5.918   6.042  0.7185  0.3418 -0.2379
16361TIP3    H170574   6.411   5.883   6.015  0.1615  0.3079 -2.1190
16361TIP3    H270575   6.345   6.005   6.075  1.7988 -0.6715  2.0183
16362TIP3   OH270576   1.105   0.409  10.440 -0.3904  0.2439  0.5058
16362TIP3    H170577   1.056   0.332  10.467  2.3384 -1.2684  1.5379
16362TIP3    H270578   1.107   0.404  10.344 -0.3123 -0.9488  0.5603
16363TIP3   OH270579   5.129   0.771   3.209  0.3437 -0.1638 -0.2509
16363TIP3    H170580   5.058   0.712   3.183  0.3753  0.0303 -0.7894
16363TIP3    H270581   5.101   0.805   3.294 -0.7676  0.7864 -0.9742
16364TIP3   OH270582   0.965   6.696  14.221 -0.6390 -0.5238 -0.3005
16364TIP3    H170583   1.031   6.731  14.161 -0.0665 -1.5649 -0.3001
16364TIP3    H270584   0.899   6.656  14.165 -0.4187 -0.9503 -0.2583
16365TIP3   OH270585   2.561   1.095   3.421  0.4390 -0.1707 -0.5824
16365TIP3    H170586   2.609   1.149   3.484  0.1751  0.1462 -0.6506
16365TIP3    H270587   2.510   1.157   3.370 -0.3769 -0.5268 -0.2276
16366TIP3   OH270588   0.109   4.054   4.965 -0.2648  0.3980 -0.0142
16366TIP3    H170589   0.140   4.122   4.906 -0.8682  0.2520 -0.5051
16366TIP3    H270590   0.071   4.101   5.039 -1.0998  0.5977 -0.5705
16367TIP3   OH270591   0.912   6.200   5.716  0.1948  0.5955 -0.0495
16367TIP3    H170592   0.954   6.120   5.684  1.7956  1.3407  0.0700
16367TIP3    H270593   0.939   6.268   5.654  0.0455  1.3065  0.6458
16368TIP3   OH270594   2.858   4.061  16.537  0.3179  0.8740  0.0447
16368TIP3    H170595   2.850   4.109  16.454 -0.4267  1.9944  0.7248
16368TIP3    H270596   2.844   4.128  16.604 -0.5287 -0.2644  1.0457
16369TIP3   OH270597   5.862   0.431   2.110  0.7737 -0.4157  0.3071
16369TIP3    H170598   5.945   0.471   2.138 -0.2360  2.1051 -0.0808
16369TIP3    H270599   5.826   0.394   2.190  1.7396 -0.5427  0.7046
16370TIP3   OH270600   0.549   3.419   0.561  0.2409 -0.6639 -0.6060
16370TIP3    H170601   0.459   3.412   0.593  0.4974 -1.7347 -0.0816
16370TIP3    H270602   0.542   3.476   0.484 -0.3400  2.2435  1.4603
16371TIP3   OH270603   6.496   3.700  16.620 -0.2260  0.0857 -0.1787
16371TIP3    H170604   6.543   3.783  16.612  0.0132  0.0131  0.4211
16371TIP3    H270605   6.495   3.682  16.714 -0.6166 -0.3963 -0.2719
16372TIP3   OH270606   0.624   1.261   2.496  0.1000  0.0370 -0.4628
16372TIP3    H170607   0.694   1.232   2.437  0.5900 -0.6217  0.4192
16372TIP3    H270608   0.549   1.206   2.473  0.2108 -0.0312 -0.6605
16373TIP3   OH270609   6.782   1.705  13.179  0.0860  0.4051 -0.0552
16373TIP3    H170610   6.727   1.632  13.149 -0.8433  1.4259 -0.8847
16373TIP3    H270611   6.735   1.741  13.254 -0.5462  1.4363 -0.9178
16374TIP3   OH270612   0.503   0.348   5.261 -0.0007  0.4976 -0.0773
16374TIP3    H170613   0.508   0.290   5.337  0.2457  3.5701  2.5072
16374TIP3    H270614   0.594   0.369   5.241 -0.0925  0.1930 -0.8229
16375TIP3   OH270615   0.067   0.852  12.403  0.1685 -0.2297 -0.3934
16375TIP3    H170616   0.030   0.914  12.340 -0.5420 -0.4081 -0.1524
16375TIP3    H270617   0.047   0.889  12.489  0.1471 -0.5645 -0.2537
16376TIP3   OH270618   4.411   3.052   0.149 -0.4764 -0.5452  0.2944
16376TIP3    H170619   4.388   3.024   0.237 -2.9867 -0.8558 -0.3625
16376TIP3    H270620   4.337   3.106   0.121  0.7383  0.4068 -1.2574
16377TIP3   OH270621   0.142   5.921   3.618 -0.2370  0.2774 -0.1564
16377TIP3    H170622   0.150   5.945   3.526 -0.6732  1.3110  0.0579
16377TIP3    H270623   0.096   5.837   3.617  0.2585  0.0116 -0.8987
16378TIP3   OH270624   4.455   2.819   2.411 -0.3207  0.2653 -0.0456
16378TIP3    H170625   4.523   2.803   2.346  0.6481 -0.4926  1.1060
16378TIP3    H270626   4.503   2.841   2.491 -1.3904 -0.7936  0.9300
16379TIP3   OH270627   1.750   5.067   1.797 -0.0949  0.5813 -0.0047
16379TIP3    H170628   1.709   5.112   1.723 -2.6797  0.6113  1.3316
16379TIP3    H270629   1.682   5.010   1.832  1.5217 -0.5850  1.4571
16380TIP3   OH270630   1.030   3.612   3.081  0.1715  0.0104  0.0399
16380TIP3    H170631   1.003   3.675   3.147 -1.3791  0.6416 -1.1308
16380TIP3    H270632   1.095   3.659   3.028 -1.3693  0.9084 -1.1613
16381TIP3   OH270633   2.474   2.589   1.160  0.6498  0.2110  0.3190
16381TIP3    H170634   2.474   2.599   1.064 -0.5040 -0.5150  0.2362
16381TIP3    H270635   2.395   2.540   1.179  3.0596 -3.6798  1.2518
16382TIP3   OH270636   4.046   2.561  13.065  0.3039  0.4460 -0.0988
16382TIP3    H170637   4.015   2.602  13.145  0.0420 -0.0092  0.0364
16382TIP3    H270638   3.977   2.500  13.040  2.0244 -2.4610  1.5761
16383TIP3   OH270639   6.351   2.849  16.436  0.2696  0.2569  0.1630
16383TIP3    H170640   6.328   2.756  16.444  1.1562 -0.0640 -0.7334
16383TIP3    H270641   6.334   2.870  16.344  4.1733 -0.2552 -0.8496
16384TIP3   OH270642   4.851   4.724   2.549  0.1502 -0.1111  0.4400
16384TIP3    H170643   4.876   4.635   2.572 -1.1064 -0.1356  1.8126
16384TIP3    H270644   4.930   4.776   2.566  0.0112 -0.5127  2.5887
16385TIP3   OH270645   2.171   0.146   4.085  0.4432  0.2829 -0.3406
16385TIP3    H170646   2.085   0.183   4.064  0.5310  0.1600 -0.9542
16385TIP3    H270647   2.151   0.067   4.136  0.2336  0.7907  0.3734
16386TIP3   OH270648   2.341   0.744  16.889 -0.3324 -0.0264  0.1988
16386TIP3    H170649   2.421   0.696  16.908 -0.0900  0.6479  0.9220
16386TIP3    H270650   2.352   0.774  16.799 -0.2674 -0.8819 -0.0866
16387TIP3   OH270651   4.846   3.946  12.026 -1.1822  0.0612 -0.5417
16387TIP3    H170652   4.805   3.966  12.110 -1.9132 -1.2863 -0.5590
16387TIP3    H270653   4.899   4.024  12.007 -0.5995  0.2053  1.3898
16388TIP3   OH270654   6.200   3.229   4.393 -0.0275  0.5808  0.0000
16388TIP3    H170655   6.197   3.237   4.489  0.7579  0.9544 -0.0025
16388TIP3    H270656   6.239   3.311   4.363  0.6788  0.0480 -0.5703
16389TIP3   OH270657   1.906   5.940   1.410 -0.0576  0.1138 -0.3676
16389TIP3    H170658   1.938   5.951   1.499 -0.0967  0.1643 -0.3600
16389TIP3    H270659   1.829   5.997   1.404 -0.3047 -0.2153 -0.3066
16390TIP3   OH270660   6.484   5.767  14.309  0.5498 -0.1897 -0.2763
16390TIP3    H170661   6.492   5.764  14.405 -0.8875  3.2180  0.1011
16390TIP3    H270662   6.560   5.819  14.281 -0.6405  1.5051 -0.5451
16391TIP3   OH270663   0.025   4.591  14.238  0.0933 -0.1280 -0.4894
16391TIP3    H170664   0.039   4.499  14.260 -0.5266 -0.1088  0.0497
16391TIP3    H270665  -0.068   4.606  14.259  0.1878  0.6123 -0.5779
16392TIP3   OH270666   2.028   2.837   5.538  0.0544  0.3320 -0.3881
16392TIP3    H170667   2.000   2.752   5.573 -0.7122  1.7525  2.9065
16392TIP3    H270668   2.122   2.838   5.551 -0.3792  1.8905  5.1476
16393TIP3   OH270669   0.858   6.037   0.868 -0.4515  0.3023  0.4569
16393TIP3    H170670   0.864   5.977   0.943 -3.5992  0.8847  1.3230
16393TIP3    H270671   0.945   6.032   0.827  1.4512 -0.1060  4.0619
16394TIP3   OH270672   3.831   4.167  11.368 -0.2380  0.4940 -0.0098
16394TIP3    H170673   3.877   4.227  11.308  1.5913 -0.2680  0.5458
16394TIP3    H270674   3.884   4.088  11.367 -0.6750  0.1347  1.9158
16395TIP3   OH270675   1.462   5.920   3.176 -0.3354  0.0891  0.4356
16395TIP3    H170676   1.464   6.010   3.209 -1.0659 -0.4552  2.0863
16395TIP3    H270677   1.550   5.886   3.195 -0.1076  0.3990 -0.0487
16396TIP3   OH270678   3.285   2.709   4.603 -0.1045  0.1380  0.3692
16396TIP3    H170679   3.369   2.664   4.610  0.1727  0.7792  1.3888
16396TIP3    H270680   3.243   2.670   4.526  1.3266  0.1650 -0.4527
16397TIP3   OH270681   3.387   5.713   2.464 -0.3455 -0.0934  0.6099
16397TIP3    H170682   3.481   5.697   2.457  0.0995  1.7788  1.5658
16397TIP3    H270683   3.375   5.745   2.553 -1.6041  1.3476 -0.0265
16398TIP3   OH270684   1.229   2.680  12.098 -0.0115 -0.1545 -0.4433
16398TIP3    H170685   1.262   2.603  12.052 -0.8052 -1.0828  0.4758
16398TIP3    H270686   1.181   2.644  12.173 -1.5193  1.1734 -0.7114
16399TIP3   OH270687   5.993   5.933   5.299  0.3728  0.0354  0.0931
16399TIP3    H170688   6.005   5.853   5.247 -1.1606  0.1938 -0.5427
16399TIP3    H270689   5.975   6.001   5.234 -1.7972  0.1923  0.7829
16400TIP3   OH270690   6.820   4.144   2.513  0.0121 -0.4607  0.0289
16400TIP3    H170691   6.849   4.197   2.587  1.5963 -1.1372 -0.0704
16400TIP3    H270692   6.766   4.204   2.461  0.5305  0.6204  0.6857
16401TIP3   OH270693   3.052   6.824  13.532 -0.6412 -0.3407 -0.4355
16401TIP3    H170694   3.068   6.770  13.609 -1.4715  0.3822  0.2611
16401TIP3    H270695   3.036   6.761  13.462 -0.1517 -1.0059  0.0419
16402TIP3   OH270696   4.805   3.509  16.258 -0.0011  0.3522 -0.2597
16402TIP3    H170697   4.739   3.574  16.284  0.6002  0.4528  1.0682
16402TIP3    H270698   4.885   3.560  16.245  0.0026  0.1308 -1.1458
16403TIP3   OH270699   1.065   2.529   0.517 -0.1525 -0.0538  0.3004
16403TIP3    H170700   1.008   2.541   0.441 -1.1218 -1.1969  0.8096
16403TIP3    H270701   1.142   2.484   0.483 -0.1142  0.3673 -0.1785
16404TIP3   OH270702   1.179   4.222  12.655  0.4356  0.3824  0.1324
16404TIP3    H170703   1.102   4.208  12.600  1.5160 -0.0867 -1.3187
16404TIP3    H270704   1.149   4.201  12.743 -0.6163 -1.6522 -0.6361
16405TIP3   OH270705   5.218   4.012   5.211 -0.2899 -0.5601 -0.1960
16405TIP3    H170706   5.136   3.978   5.176  0.5164 -0.7078 -2.0486
16405TIP3    H270707   5.224   4.101   5.176 -0.4869  0.1022  1.3851
16406TIP3   OH270708   5.006   2.813   5.997  0.3367  0.0683 -0.2706
16406TIP3    H170709   4.912   2.814   6.014  0.3496 -0.8362 -0.0838
16406TIP3    H270710   5.038   2.737   6.045  1.4023  1.1874  0.8513
16407TIP3   OH270711   4.049   3.855  14.991  0.0579 -0.4212  0.0071
16407TIP3    H170712   4.014   3.808  14.916 -0.3220 -0.8041  0.4205
16407TIP3    H270713   4.140   3.875  14.966 -0.4933  0.7705 -1.1502
16408TIP3   OH270714   6.708   5.654  16.535 -0.0230  0.1844  0.4491
16408TIP3    H170715   6.718   5.578  16.478 -0.2739  1.7203 -1.7853
16408TIP3    H270716   6.790   5.702  16.526 -1.0309  1.7896 -0.7822
16409TIP3   OH270717   6.320   4.266   5.090 -0.2855  0.0464  0.3798
16409TIP3    H170718   6.395   4.214   5.061 -0.7802 -0.2476 -0.3983
16409TIP3    H270719   6.359   4.339   5.138  0.5847  0.6039 -1.0891
16410TIP3   OH270720   3.538   3.248  12.360  0.0060 -0.2654 -0.1571
16410TIP3    H170721   3.594   3.170  12.356  1.0090  0.4108  0.1586
16410TIP3    H270722   3.534   3.280  12.270  2.7475  1.4196  0.2001
16411TIP3   OH270723   1.248   0.062   2.614 -0.3905 -0.9351 -0.3595
16411TIP3    H170724   1.193   0.047   2.691  0.6123 -0.1154  0.5480
16411TIP3    H270725   1.334   0.087   2.650  0.2076 -0.8967 -1.7402
16412TIP3   OH270726   2.588   6.106   4.080  0.2747  0.2493 -0.2508
16412TIP3    H170727   2.683   6.106   4.072  0.2739  0.8187 -0.2875
16412TIP3    H270728   2.561   6.193   4.049 -0.2358  0.1794 -0.0101
16413TIP3   OH270729   0.420   1.624   2.407 -0.2798  0.0659  0.0886
16413TIP3    H170730   0.482   1.696   2.415 -0.4436  0.4872 -1.9763
16413TIP3    H270731   0.451   1.559   2.470  1.1450  1.0359  0.4383
16414TIP3   OH270732   5.539   4.862   0.013  0.0500  0.9843  0.5266
16414TIP3    H170733   5.561   4.897  -0.073  0.6565 -0.9104 -0.1375
16414TIP3    H270734   5.509   4.773  -0.004  0.2735  0.5333  2.2749
16415TIP3   OH270735   4.684   3.599  15.688  0.3068 -0.1291  0.1232
16415TIP3    H170736   4.686   3.507  15.661  0.1789 -0.8724  2.4518
16415TIP3    H270737   4.761   3.609  15.744 -0.6454  0.6999  1.3274
16416TIP3   OH270738   0.524   1.930   3.179 -0.2931 -0.2962  0.7796
16416TIP3    H170739   0.442   1.912   3.224 -0.1130 -0.8608  0.8921
16416TIP3    H270740   0.509   1.900   3.089 -0.1665 -0.5421  0.8376
16417TIP3   OH270741   0.916   1.586   3.566  0.2319 -0.1566 -0.3627
16417TIP3    H170742   0.884   1.600   3.655 -0.2133  2.0969 -0.8102
16417TIP3    H270743   0.837   1.581   3.513  0.5152 -0.1569 -0.7847
16418TIP3   OH270744   6.590   5.457   2.189 -0.8415 -0.5003  0.5538
16418TIP3    H170745   6.630   5.390   2.132 -1.2169 -1.3778  1.2955
16418TIP3    H270746   6.499   5.430   2.198 -1.1893  0.5331  0.2749
16419TIP3   OH270747   5.870   4.241  16.618  0.2679 -0.2764  0.0667
16419TIP3    H170748   5.964   4.233  16.638  0.0937  0.3134  1.2416
16419TIP3    H270749   5.863   4.321  16.567  0.2221  0.7200  1.5637
16420TIP3   OH270750   5.221   4.384  13.317 -0.6359 -0.2670  0.0647
16420TIP3    H170751   5.258   4.414  13.234 -0.1906 -0.9752  0.0017
16420TIP3    H270752   5.203   4.291  13.303 -0.8599 -0.3175  0.6600
16421TIP3   OH270753   2.876   4.704  16.163  0.1686  0.6703 -0.6575
16421TIP3    H170754   2.876   4.796  16.138  0.9198  0.4843 -1.3765
16421TIP3    H270755   2.859   4.656  16.082  0.8057  0.1317 -0.4864
16422TIP3   OH270756   5.995   6.448  14.955 -0.3305 -0.6105 -0.4197
16422TIP3    H170757   5.990   6.353  14.943 -3.3134 -0.5217 -0.7571
16422TIP3    H270758   5.904   6.478  14.945  0.4085  2.2105  0.3759
16423TIP3   OH270759   0.174   2.135   0.984 -0.3257  0.0366  0.3100
16423TIP3    H170760   0.101   2.197   0.982 -1.1781 -0.9536 -0.6801
16423TIP3    H270761   0.134   2.052   1.011  0.3722 -0.5708 -0.4550
16424TIP3   OH270762   3.598   0.493   5.596 -0.2617  0.3565  0.1408
16424TIP3    H170763   3.649   0.572   5.576  0.7330 -0.3171 -0.0259
16424TIP3    H270764   3.582   0.498   5.690  1.1782 -0.0242  0.4250
16425TIP3   OH270765   5.093   4.363   3.535 -0.1821 -0.0498 -0.2496
16425TIP3    H170766   5.186   4.380   3.549 -0.4319 -0.4398  2.5392
16425TIP3    H270767   5.081   4.271   3.559 -1.1255 -0.3124 -1.6304
16426TIP3   OH270768   6.164   3.647   2.710 -0.5759 -0.5057  0.5182
16426TIP3    H170769   6.227   3.587   2.670 -3.1708 -1.6165 -2.2904
16426TIP3    H270770   6.123   3.596   2.780  1.4398  0.2077  2.3279
16427TIP3   OH270771   5.302   4.273  15.563 -0.4206  0.3267 -0.0812
16427TIP3    H170772   5.240   4.201  15.552 -0.5222  0.2065  1.0779
16427TIP3    H270773   5.386   4.236  15.537 -0.1972 -0.7430  1.9562
16428TIP3   OH270774   0.605   5.698  12.505 -0.0316 -0.4082  0.3601
16428TIP3    H170775   0.695   5.667  12.493 -0.3732 -1.8341  1.2572
16428TIP3    H270776   0.588   5.688  12.599 -0.3306  2.1898  0.6597
16429TIP3   OH270777   4.563   6.694   4.877 -1.0796  0.0653  0.1856
16429TIP3    H170778   4.627   6.747   4.829 -0.3066 -0.6896  0.3593
16429TIP3    H270779   4.502   6.663   4.810 -0.3185 -0.5401 -0.2369
16430TIP3   OH270780   2.990   5.497  14.714  0.5239 -0.2779  0.1014
16430TIP3    H170781   3.074   5.452  14.708  0.6792  0.0369 -0.1552
16430TIP3    H270782   2.924   5.428  14.710  0.7902 -0.6232  1.3806
16431TIP3   OH270783   6.189   0.312  13.259 -0.1293 -0.3087  0.1319
16431TIP3    H170784   6.192   0.288  13.352 -1.9247  0.0782  0.3198
16431TIP3    H270785   6.098   0.336  13.243 -0.0893 -1.3484 -1.9833
16432TIP3   OH270786   0.648   0.123   3.119  0.6751  0.8865  0.1200
16432TIP3    H170787   0.608   0.056   3.175  1.2929 -1.4098 -2.0224
16432TIP3    H270788   0.578   0.186   3.104 -0.8171 -0.7000  0.0552
16433TIP3   OH270789   5.819   1.138  16.817 -0.7464  0.3769  0.0516
16433TIP3    H170790   5.758   1.066  16.826 -0.3951 -0.2151 -1.8602
16433TIP3    H270791   5.807   1.168  16.727  1.7597  0.2287 -0.3882
16434TIP3   OH270792   0.898   3.820  15.901  0.1337 -0.3934 -0.7652
16434TIP3    H170793   0.980   3.844  15.859 -0.5157  0.1160 -1.7751
16434TIP3    H270794   0.910   3.728  15.926  0.6488 -0.6162 -1.7916
16435TIP3   OH270795   3.919   6.776   6.404 -0.6286 -0.3356  0.3265
16435TIP3    H170796   3.872   6.734   6.332 -0.6478  1.9411 -1.0994
16435TIP3    H270797   3.903   6.870   6.391  2.4532  0.4145  1.0685
16436TIP3   OH270798   2.449   4.316  15.496 -0.5429  0.1011  0.3163
16436TIP3    H170799   2.408   4.312  15.410  1.6221  0.3986 -0.8088
16436TIP3    H270800   2.512   4.244  15.496 -0.5285  0.0877  1.6630
16437TIP3   OH270801   0.801   3.964   5.163 -0.5365 -0.1237  0.3603
16437TIP3    H170802   0.819   3.912   5.241  2.3524  2.5967  1.7297
16437TIP3    H270803   0.869   3.939   5.101  1.3228  2.2886  1.2884
16438TIP3   OH270804   0.867   0.634   1.043  0.2649 -0.2280 -0.4851
16438TIP3    H170805   0.896   0.613   1.132 -0.9852  2.1593  0.5910
16438TIP3    H270806   0.948   0.651   0.995  0.9700 -1.7081  0.1287
16439TIP3   OH270807   3.118   6.804   0.959 -0.1223 -0.0456  0.1988
16439TIP3    H170808   3.147   6.805   0.868 -1.7458 -0.6040 -0.3728
16439TIP3    H270809   3.093   6.894   0.977  0.6609  0.1663  0.2695
16440TIP3   OH270810   5.884   1.895  12.810  0.2233 -1.1413 -0.3798
16440TIP3    H170811   5.866   1.944  12.890  1.3063 -1.8625  0.3245
16440TIP3    H270812   5.863   1.804  12.831  2.3473 -1.6480 -0.2591
16441TIP3   OH270813   0.615   2.478  10.644  0.1344 -0.2666 -0.1135
16441TIP3    H170814   0.599   2.459  10.736  0.0224  1.1668  0.1785
16441TIP3    H270815   0.532   2.458  10.600 -0.2722  0.4117  0.3265
16442TIP3   OH270816   5.521   2.297   0.763  0.2510 -0.0121  0.3011
16442TIP3    H170817   5.577   2.225   0.734  0.8680 -0.2797  2.0380
16442TIP3    H270818   5.578   2.374   0.760  0.5000 -0.1460  1.3147
16443TIP3   OH270819   4.834   2.629   6.693 -0.2332 -0.0533  0.5544
16443TIP3    H170820   4.880   2.709   6.667 -0.6719 -0.1543 -0.5704
16443TIP3    H270821   4.893   2.587   6.755  1.4445 -0.4129 -1.2030
16444TIP3   OH270822   4.138   6.691  16.352 -0.2527  0.7913 -0.0913
16444TIP3    H170823   4.103   6.768  16.397  0.7153 -0.0231  2.1442
16444TIP3    H270824   4.232   6.709  16.343  0.1898 -0.5275  1.4409
16445TIP3   OH270825   6.684   5.429  16.392 -0.2553 -0.5849  0.1934
16445TIP3    H170826   6.609   5.380  16.425 -0.6228  0.1317  0.4457
16445TIP3    H270827   6.662   5.449  16.301 -1.0385  0.8505  0.6626
16446TIP3   OH270828   1.492   1.435   0.451 -0.4070  0.4360  0.4744
16446TIP3    H170829   1.417   1.385   0.419 -0.4670  0.2342  0.9228
16446TIP3    H270830   1.469   1.526   0.433 -0.8588  0.3925  0.8033
16447TIP3   OH270831   0.485   5.762  10.539  0.2313 -0.0420 -0.2056
16447TIP3    H170832   0.440   5.677  10.542 -0.6351  0.2221 -2.7866
16447TIP3    H270833   0.572   5.742  10.504  0.5524 -0.0189  0.5636
16448TIP3   OH270834   6.142   1.849   3.090 -0.3160 -0.1388  0.0578
16448TIP3    H170835   6.090   1.844   3.010 -0.9409  1.2194  0.3455
16448TIP3    H270836   6.229   1.874   3.061 -0.8820  1.8232 -0.1554
16449TIP3   OH270837   5.334   0.609   2.630 -0.6127 -0.0680  0.6006
16449TIP3    H170838   5.321   0.567   2.545  0.6503  1.3838 -0.3675
16449TIP3    H270839   5.375   0.542   2.684 -0.4577 -0.6902 -0.2724
16450TIP3   OH270840   5.982   0.964  14.363  0.2405  0.1786  0.4883
16450TIP3    H170841   5.912   0.940  14.302  1.1185  1.2836 -1.0170
16450TIP3    H270842   6.035   0.885  14.370  1.3504  0.5937 -1.9677
16451TIP3   OH270843   2.536   5.042  13.013 -0.0315 -0.1051 -0.3799
16451TIP3    H170844   2.513   4.981  12.943  0.7389  0.1822 -0.8934
16451TIP3    H270845   2.630   5.054  13.005 -0.2295  1.5905 -0.6742
16452TIP3   OH270846   1.238   5.821   0.586  0.1998 -0.2007 -0.1590
16452TIP3    H170847   1.214   5.728   0.590  0.2384 -0.2021  0.0207
16452TIP3    H270848   1.324   5.822   0.544  0.4628 -0.2884  0.3747
16453TIP3   OH270849   0.226   5.247   5.748 -0.0266  0.9077 -0.4035
16453TIP3    H170850   0.269   5.328   5.779  1.1422  0.0740  0.2579
16453TIP3    H270851   0.296   5.181   5.752 -1.0942 -0.2471 -0.4385
16454TIP3   OH270852   0.622   1.835  15.935  0.4289  0.2453  0.6147
16454TIP3    H170853   0.563   1.815  15.862  0.5067 -0.3520  0.7102
16454TIP3    H270854   0.614   1.930  15.947  0.3796  0.3483 -0.1380
16455TIP3   OH270855   4.188   6.651  15.019  0.0059  0.3055 -0.2993
16455TIP3    H170856   4.163   6.720  15.082 -1.2313 -1.1582  0.9056
16455TIP3    H270857   4.170   6.569  15.065  1.9269 -0.8742 -1.4913
16456TIP3   OH270858   5.414   0.191  10.690 -0.3063 -0.4837  0.0744
16456TIP3    H170859   5.373   0.256  10.633  0.4966  0.4844  0.5584
16456TIP3    H270860   5.508   0.208  10.682 -0.1437 -0.7557  1.1669
16457TIP3   OH270861   4.158   3.787  13.196 -0.0279 -0.4896  0.3632
16457TIP3    H170862   4.070   3.753  13.178 -0.7176  1.3962  0.0198
16457TIP3    H270863   4.159   3.800  13.290 -0.2026 -0.3092  0.3424
16458TIP3   OH270864   2.511   3.711   4.068 -0.1540  0.4972  0.3652
16458TIP3    H170865   2.542   3.662   4.144 -0.6609  0.1426  0.3470
16458TIP3    H270866   2.417   3.719   4.080 -0.0311  1.8343  0.5658
16459TIP3   OH270867   6.235   3.520  10.794 -0.1226 -0.1300 -0.1395
16459TIP3    H170868   6.220   3.425  10.793 -1.9924  0.1098 -0.0580
16459TIP3    H270869   6.149   3.557  10.775  0.9141  1.5436 -1.8505
16460TIP3   OH270870   4.211   5.796  12.241 -0.1196 -0.2547 -0.2178
16460TIP3    H170871   4.148   5.843  12.295 -0.4992 -0.7276 -0.2402
16460TIP3    H270872   4.266   5.864  12.202 -0.0326  0.1093  0.5223
16461TIP3   OH270873   6.109   5.311  11.273  0.2205 -0.3984 -0.1629
16461TIP3    H170874   6.057   5.392  11.275 -2.0899 -1.7959  0.4441
16461TIP3    H270875   6.066   5.257  11.207  2.2848 -0.8438 -1.2141
16462TIP3   OH270876   1.137   6.089  10.538  0.6488 -0.8382 -0.9358
16462TIP3    H170877   1.101   6.028  10.473 -0.3342 -0.6365 -0.5975
16462TIP3    H270878   1.106   6.175  10.509 -1.9784 -0.9706  1.1446
16463TIP3   OH270879   5.915   2.807  16.049  0.4928 -0.2989 -0.5490
16463TIP3    H170880   5.862   2.788  16.126  0.2635 -0.2194 -0.6871
16463TIP3    H270881   5.920   2.903  16.046  1.2609 -0.3173 -0.1162
16464TIP3   OH270882   3.772   0.106   1.416 -0.0699 -0.5104 -0.5531
16464TIP3    H170883   3.683   0.086   1.386 -0.4269  0.1177  0.0484
16464TIP3    H270884   3.792   0.037   1.479 -1.0135  0.5422  0.9717
16465TIP3   OH270885   1.253   0.491   0.062 -0.1496 -0.0478 -0.1877
16465TIP3    H170886   1.223   0.550  -0.008  2.6176 -0.2307 -1.7143
16465TIP3    H270887   1.277   0.410   0.016 -0.6093 -1.1098  1.3704
16466TIP3   OH270888   3.767   1.656   6.247  0.3029 -0.1950 -0.0670
16466TIP3    H170889   3.698   1.695   6.300 -1.9800 -1.8787 -1.6038
16466TIP3    H270890   3.809   1.731   6.204 -1.0184  0.8594  0.4171
16467TIP3   OH270891   5.552   3.561  11.340 -0.1415  0.6466  0.3146
16467TIP3    H170892   5.557   3.487  11.279  1.2908  0.6945  0.3449
16467TIP3    H270893   5.602   3.631  11.298  1.4889  0.4510  1.8161
16468TIP3   OH270894   5.084   5.441  11.284 -0.6301 -0.9920  0.1483
16468TIP3    H170895   5.044   5.430  11.370 -1.3885 -0.1679 -0.0868
16468TIP3    H270896   5.014   5.419  11.222 -0.4521 -0.4105 -0.2656
16469TIP3   OH270897   1.300   1.043  11.264 -0.2548  0.4125  0.4419
16469TIP3    H170898   1.240   1.041  11.190 -1.6370 -0.4681  1.5297
16469TIP3    H270899   1.261   0.983  11.328  1.8215 -0.2300  1.1731
16470TIP3   OH270900   0.838   4.863  15.152 -0.0106 -0.3217 -0.3400
16470TIP3    H170901   0.765   4.853  15.212 -1.4770 -0.1291 -2.0019
16470TIP3    H270902   0.887   4.781  15.160 -0.4374 -0.4846  0.7523
16471TIP3   OH270903   3.008   5.820   5.413  0.0123  0.2292 -0.1445
16471TIP3    H170904   3.036   5.896   5.362 -0.5071  0.7133  0.2696
16471TIP3    H270905   2.947   5.857   5.478 -0.9659 -0.6678 -0.5249
16472TIP3   OH270906   4.371   5.042  15.338  0.1925 -0.5227  0.0610
16472TIP3    H170907   4.397   4.975  15.401 -0.8040 -0.2740  0.7667
16472TIP3    H270908   4.389   5.125  15.382  2.3525 -0.2503 -1.1895
16473TIP3   OH270909   0.135   0.998   0.987 -0.0262  0.0381  0.4463
16473TIP3    H170910   0.124   1.001   0.892  0.0476 -0.0196  0.4357
16473TIP3    H270911   0.075   0.930   1.017  1.3910 -1.3795  0.2220
16474TIP3   OH270912   0.996   3.582   0.394  0.0813 -0.7981  0.0131
16474TIP3    H170913   1.038   3.593   0.479 -0.3537  1.1483  0.0418
16474TIP3    H270914   0.952   3.666   0.379 -0.1961 -1.2520 -1.9488
16475TIP3   OH270915   4.362   3.526   1.110 -0.0010  0.2363 -0.4572
16475TIP3    H170916   4.352   3.465   1.183 -0.2496  0.5260 -0.2496
16475TIP3    H270917   4.292   3.590   1.122  0.3784  0.6785 -0.5597
16476TIP3   OH270918   0.835   2.144   3.723  0.3488 -0.0540 -0.4575
16476TIP3    H170919   0.783   2.151   3.803  1.2909  0.3497  0.1442
16476TIP3    H270920   0.810   2.220   3.671  1.1930  0.8090  0.3637
16477TIP3   OH270921   3.045   1.973   2.312  0.0804 -0.3612 -0.3282
16477TIP3    H170922   3.056   2.048   2.254  1.4820 -0.5088 -0.2718
16477TIP3    H270923   2.998   2.009   2.388  1.3522  0.6461  0.0200
16478TIP3   OH270924   2.017   2.884  12.872 -0.9607 -0.0199  0.6311
16478TIP3    H170925   2.058   2.968  12.895 -2.9039  0.6833  1.8316
16478TIP3    H270926   1.976   2.901  12.787  0.9892 -0.6911 -0.5178
16479TIP3   OH270927   2.067   6.070  13.897 -0.0392 -0.3970  0.7637
16479TIP3    H170928   1.984   6.110  13.925  0.3054  0.6267  0.3929
16479TIP3    H270929   2.073   6.091  13.804  0.0763 -1.4973  0.5130
16480TIP3   OH270930   0.712   3.141   2.023 -0.5710  0.1313 -0.6841
16480TIP3    H170931   0.786   3.107   1.973 -0.2471 -0.1230 -0.0438
16480TIP3    H270932   0.636   3.126   1.967 -0.9540 -4.5350  0.6998
16481TIP3   OH270933   5.574   5.283  11.345 -0.1717 -0.0612 -0.3572
16481TIP3    H170934   5.631   5.242  11.281  0.6638  0.9426 -0.2773
16481TIP3    H270935   5.491   5.296  11.298  0.0496 -0.4253 -0.8547
16482TIP3   OH270936   3.547   3.928   3.133 -0.1320  0.3804  0.0489
16482TIP3    H170937   3.452   3.924   3.135 -0.0996 -0.3827  1.1800
16482TIP3    H270938   3.568   3.964   3.047 -1.3933 -0.5092 -0.6639
16483TIP3   OH270939   3.414   0.222   0.800 -0.4013  0.3469  0.1468
16483TIP3    H170940   3.396   0.129   0.811  1.0603  0.0113 -0.1186
16483TIP3    H270941   3.357   0.249   0.728 -0.6958 -0.3846  0.1007
16484TIP3   OH270942   4.092   5.363  16.960 -0.5561  0.2637  0.0151
16484TIP3    H170943   4.082   5.268  16.958 -1.1670  0.3324 -1.6921
16484TIP3    H270944   4.012   5.394  17.003 -0.5125  0.0357  0.2671
16485TIP3   OH270945   4.386   5.034  12.994 -0.5431  0.6454  0.0934
16485TIP3    H170946   4.441   4.979  13.049  0.3158 -0.7078 -1.9664
16485TIP3    H270947   4.423   5.122  13.002  0.2685  0.2512  0.7873
16486TIP3   OH270948   5.907   6.780  12.304 -0.3698  0.0457 -0.7148
16486TIP3    H170949   5.997   6.746  12.309 -0.6092 -0.4736  0.5711
16486TIP3    H270950   5.855   6.704  12.278 -0.4871  0.2493 -1.0686
16487TIP3   OH270951   5.576   4.561   2.275 -0.0633 -0.0205 -0.0524
16487TIP3    H170952   5.637   4.626   2.311  0.4470 -0.2021 -0.5650
16487TIP3    H270953   5.585   4.570   2.180 -0.3361 -0.5130 -0.1271
16488TIP3   OH270954   6.524   4.428   2.394  0.5132  0.2004 -0.4710
16488TIP3    H170955   6.585   4.357   2.372  0.0115  0.1162 -1.7134
16488TIP3    H270956   6.519   4.481   2.314 -1.0216  0.2085 -0.4131
16489TIP3   OH270957   5.128   3.769  13.309 -0.5197 -0.2381 -0.2243
16489TIP3    H170958   5.137   3.864  13.303 -2.1936 -0.0339  0.1166
16489TIP3    H270959   5.115   3.741  13.218  0.0892 -0.1718 -0.3384
16490TIP3   OH270960   3.696   4.330  17.202 -0.1849 -0.6795  0.0222
16490TIP3    H170961   3.691   4.390  17.127  0.0085 -0.0200  0.5356
16490TIP3    H270962   3.787   4.300  17.202  0.4558  1.1082  1.3540
16491TIP3   OH270963   1.191   2.444   4.906 -0.5142  0.2775 -0.5833
16491TIP3    H170964   1.133   2.427   4.981  0.8967  1.0106  0.7363
16491TIP3    H270965   1.219   2.357   4.878 -3.1079 -0.2009 -2.0457
16492TIP3   OH270966   3.710   2.971  11.988  0.3568  0.1629 -0.2234
16492TIP3    H170967   3.634   2.933  12.031  2.2734 -1.1786  2.2255
16492TIP3    H270968   3.720   2.921  11.907 -0.9021 -0.1505 -0.1967
16493TIP3   OH270969   0.493   1.457   2.967  0.0505 -0.1263 -0.2366
16493TIP3    H170970   0.558   1.508   2.919 -1.0901  0.0447 -1.6539
16493TIP3    H270971   0.511   1.366   2.943  1.0091 -0.2876  0.9676
16494TIP3   OH270972   1.659   1.420   1.567 -0.3054  0.1780 -0.2021
16494TIP3    H170973   1.565   1.419   1.585 -1.0319  3.4246 -2.8508
16494TIP3    H270974   1.674   1.341   1.516 -0.8185 -2.0234  2.7841
16495TIP3   OH270975   2.578   5.611   2.698  0.5266  0.5844 -0.2448
16495TIP3    H170976   2.493   5.579   2.669 -0.4239  1.0697  1.8199
16495TIP3    H270977   2.628   5.622   2.618 -1.3261  0.2174 -1.5166
16496TIP3   OH270978   1.242   5.665  16.977 -0.0332  0.2266 -0.4349
16496TIP3    H170979   1.152   5.692  16.999 -0.1527 -0.7468  0.3792
16496TIP3    H270980   1.230   5.591  16.918  0.2473  0.3761 -0.6791
16497TIP3   OH270981   3.583   2.564   0.255  0.6901 -0.4366 -0.3154
16497TIP3    H170982   3.624   2.574   0.169 -1.0507  0.4702 -1.0755
16497TIP3    H270983   3.630   2.627   0.311  1.5972 -0.7876 -0.6513
16498TIP3   OH270984   2.086   5.835   6.008 -0.3259  0.3418  0.0002
16498TIP3    H170985   2.143   5.888   6.064 -3.6897  2.4465  1.7494
16498TIP3    H270986   2.072   5.888   5.930 -1.3545  0.7332  0.4367
16499TIP3   OH270987   0.604   5.042   2.026 -0.1937 -0.2156 -0.3613
16499TIP3    H170988   0.556   5.091   2.092 -0.9669  0.2010 -1.2157
16499TIP3    H270989   0.654   5.108   1.978 -0.2928 -0.4042 -0.7292
16500TIP3   OH270990   1.212   3.311   4.936  0.0448  0.2319 -0.3543
16500TIP3    H170991   1.164   3.392   4.920  0.4419  0.1707 -1.9344
16500TIP3    H270992   1.280   3.336   4.998  1.0973  1.4756 -1.9485
16501TIP3   OH270993   0.947   2.538   0.272  0.0379 -0.0088  0.2147
16501TIP3    H170994   0.892   2.614   0.255  0.9972  0.4222 -1.0947
16501TIP3    H270995   1.005   2.532   0.196  1.3688 -0.8188  1.2491
16502TIP3   OH270996   5.215   3.211   6.066  0.6315  0.0379  0.2601
16502TIP3    H170997   5.169   3.161   6.134  2.2219 -0.3011  1.1194
16502TIP3    H270998   5.235   3.145   5.999  1.1468 -0.1119  0.5607
16503TIP3   OH270999   6.435   0.685  13.730 -0.6374 -0.2168  0.1591
16503TIP3    H171000   6.456   0.598  13.696 -1.8753  0.0789 -1.4858
16503TIP3    H271001   6.402   0.669  13.818  1.4591 -1.1497  0.8111
16504TIP3   OH271002   6.365   3.115  12.273 -0.8866  0.1957  0.0393
16504TIP3    H171003   6.370   3.111  12.369 -1.2339  1.0809  0.1027
16504TIP3    H271004   6.314   3.194  12.255  0.0479  0.6000 -0.8993
16505TIP3   OH271005   0.433   0.871  15.264 -0.1112 -0.0022  0.2681
16505TIP3    H171006   0.409   0.780  15.244  1.2387 -0.4279  0.4653
16505TIP3    H271007   0.355   0.908  15.305 -0.2407 -1.5103  1.4905
16506TIP3   OH271008   3.157   5.860  15.703  0.6394 -0.6663 -0.4395
16506TIP3    H171009   3.076   5.901  15.735  0.2807  0.0761 -2.1995
16506TIP3    H271010   3.145   5.767  15.721 -0.3940 -0.5102 -0.2308
16507TIP3   OH271011   4.711   4.645  15.992 -0.3269 -0.7470  0.4594
16507TIP3    H171012   4.618   4.647  16.017 -0.5953 -1.2413 -0.4267
16507TIP3    H271013   4.709   4.639  15.896  0.6422  0.7133  0.3200
16508TIP3   OH271014   4.066   0.863   1.282 -0.1758  0.4377 -0.4695
16508TIP3    H171015   4.100   0.887   1.368  1.8378  0.2839 -1.1649
16508TIP3    H271016   4.116   0.917   1.221 -1.2038  0.1760 -1.5666
16509TIP3   OH271017   4.674   3.326  16.572  0.3077 -0.4853  0.4085
16509TIP3    H171018   4.632   3.312  16.658  0.8504 -0.7675  0.6375
16509TIP3    H271019   4.650   3.248  16.522 -1.6413  0.5554 -0.4021
16510TIP3   OH271020   0.137   6.794   1.602 -0.2022 -0.1474 -0.3621
16510TIP3    H171021   0.103   6.877   1.635 -1.4155  0.1613 -2.1956
16510TIP3    H271022   0.221   6.817   1.561 -0.9200  0.3912 -1.5993
16511TIP3   OH271023   1.581   3.338   5.770 -0.6579  0.4267  0.0244
16511TIP3    H171024   1.564   3.377   5.685 -1.8826  1.2313  0.6161
16511TIP3    H271025   1.558   3.406   5.833 -0.9160 -0.5568  1.0332
16512TIP3   OH271026   6.541   0.219   3.219  0.2673 -0.1699 -0.0968
16512TIP3    H171027   6.622   0.179   3.252  0.2277  0.4634  0.8071
16512TIP3    H271028   6.567   0.309   3.197 -0.0176 -0.1996 -0.5689
16513TIP3   OH271029   1.210   1.854  10.654 -0.1257 -0.7057  0.1702
16513TIP3    H171030   1.151   1.831  10.582  1.9451  0.4228 -2.0171
16513TIP3    H271031   1.282   1.792  10.647 -0.0804 -0.8320  1.5530
16514TIP3   OH271032   2.463   0.030   3.740  0.1123 -0.0630 -0.4784
16514TIP3    H171033   2.457   0.087   3.817  0.7033  1.3297 -1.4283
16514TIP3    H271034   2.554  -0.000   3.739  0.3455  0.6294 -1.0977
16515TIP3   OH271035   4.244   2.638  15.798  0.2989  0.6470 -0.2560
16515TIP3    H171036   4.177   2.598  15.854  0.8814 -0.4379 -0.3060
16515TIP3    H271037   4.216   2.729  15.789 -1.2521  0.1888 -0.3990
16516TIP3   OH271038   3.407   1.220  15.945 -0.0902 -0.1832 -0.4072
16516TIP3    H171039   3.382   1.299  15.898 -2.1396  0.0504  0.9607
16516TIP3    H271040   3.343   1.154  15.917 -0.9555 -0.2041  1.4830
16517TIP3   OH271041   4.885   5.228   3.444 -0.0261  0.5680  0.1821
16517TIP3    H171042   4.813   5.258   3.389 -0.6246  0.1399  0.7108
16517TIP3    H271043   4.845   5.214   3.530  0.5598 -0.2537  0.3324
16518TIP3   OH271044   4.203   6.682  12.144  0.4542  0.3373 -0.0784
16518TIP3    H171045   4.261   6.690  12.068  0.2472 -1.0094 -0.3968
16518TIP3    H271046   4.211   6.591  12.171  0.4256  0.7685  1.4545
16519TIP3   OH271047   5.656   4.433   4.649 -0.1771  0.3455 -0.2584
16519TIP3    H171048   5.748   4.455   4.665  0.3110  1.6369 -3.8601
16519TIP3    H271049   5.660   4.348   4.603 -1.0333 -0.6729  1.4500
16520TIP3   OH271050   6.239   2.051   3.576 -0.5205  0.0463 -0.1619
16520TIP3    H171051   6.180   2.095   3.515 -0.4296  0.7389  0.2417
16520TIP3    H271052   6.237   2.106   3.655 -0.8798 -0.9996  0.5810
16521TIP3   OH271053   2.375   1.734   4.292 -0.8265  0.4474  0.1030
16521TIP3    H171054   2.388   1.640   4.306 -2.6750  0.1160 -0.1942
16521TIP3    H271055   2.463   1.771   4.293  0.0353 -1.4494 -0.8526
16522TIP3   OH271056   3.630   1.922   5.873 -0.0680  0.5775  0.1702
16522TIP3    H171057   3.668   1.884   5.952  0.2793  1.7830  0.6066
16522TIP3    H271058   3.651   2.015   5.879 -1.5038  0.9730 -0.5106
16523TIP3   OH271059   2.700   4.811   6.093  0.3816 -0.4927  0.5639
16523TIP3    H171060   2.718   4.752   6.167  2.9903 -1.6158 -0.8508
16523TIP3    H271061   2.768   4.879   6.099  1.2774 -1.1621 -1.3209
16524TIP3   OH271062   3.948   2.497   2.954  0.0116  0.2228  0.0172
16524TIP3    H171063   3.977   2.406   2.954  0.6184  0.4126  0.3765
16524TIP3    H271064   3.907   2.509   3.040 -1.5885 -0.1752 -0.6538
16525TIP3   OH271065   0.494   1.940   4.549 -0.6299 -0.1465  0.9428
16525TIP3    H171066   0.514   1.926   4.642  0.6637 -0.5280  0.6261
16525TIP3    H271067   0.561   1.890   4.503  0.4687  2.2380 -0.2251
16526TIP3   OH271068   6.420   5.982   0.312 -0.3022 -0.5170 -0.3589
16526TIP3    H171069   6.337   5.943   0.285 -1.2480  1.2930 -0.2314
16526TIP3    H271070   6.408   6.076   0.299  1.8148 -0.2141 -0.5223
16527TIP3   OH271071   4.771   4.266  15.798 -0.3789 -0.0044 -0.1158
16527TIP3    H171072   4.726   4.212  15.733  2.0213 -0.1637 -1.7716
16527TIP3    H271073   4.822   4.204  15.850  0.4758  0.4281 -0.4185
16528TIP3   OH271074   6.653   1.409  14.721  0.3632 -0.7690  0.0379
16528TIP3    H171075   6.729   1.351  14.715 -0.2790 -1.4934 -1.9282
16528TIP3    H271076   6.609   1.383  14.802  0.2222 -2.9600 -0.6625
16529TIP3   OH271077   6.605   1.362  13.804  0.1544  0.0425  0.4936
16529TIP3    H171078   6.664   1.438  13.804  2.3202 -1.4833 -2.2812
16529TIP3    H271079   6.570   1.359  13.715  0.9608 -2.7441  0.1886
16530TIP3   OH271080   4.410   6.392  11.984 -0.3079  0.2898  0.0048
16530TIP3    H171081   4.370   6.374  12.069  0.3827 -1.0864  0.0740
16530TIP3    H271082   4.468   6.317  11.969 -1.2120 -0.0356 -2.1704
16531TIP3   OH271083   3.483   4.820  13.884  0.3567  0.3383 -0.7786
16531TIP3    H171084   3.508   4.852  13.970  0.4674 -1.2006 -0.2072
16531TIP3    H271085   3.524   4.733  13.878 -0.5392 -0.0258 -1.9422
16532TIP3   OH271086   6.403   1.488  16.351 -0.2957  0.5280  0.5097
16532TIP3    H171087   6.452   1.436  16.415  0.5288  0.6117 -0.0383
16532TIP3    H271088   6.349   1.424  16.304  1.0239  0.0739 -0.4487
16533TIP3   OH271089   2.024   2.581  15.091 -0.2552  0.4553 -0.4770
16533TIP3    H171090   2.079   2.577  15.013 -1.5585 -1.4967 -1.3623
16533TIP3    H271091   2.082   2.553  15.162  0.1027 -1.0120 -1.3012
16534TIP3   OH271092   4.143   1.786  12.008  0.5967 -0.0531  0.4449
16534TIP3    H171093   4.195   1.852  11.963 -1.0605  0.6387 -0.5462
16534TIP3    H271094   4.142   1.712  11.948 -0.8982  0.5543 -0.3344
16535TIP3   OH271095   4.708   2.336  11.241 -0.0249 -0.0459  0.2511
16535TIP3    H171096   4.762   2.259  11.262  0.0686  0.0412  0.3308
16535TIP3    H271097   4.680   2.369  11.326 -1.3503 -0.8975  0.1723
16536TIP3   OH271098   6.028   2.555  16.048  0.3003 -0.5264  0.0138
16536TIP3    H171099   5.982   2.525  15.970 -1.0838 -1.1833  1.0371
16536TIP3    H271100   6.014   2.650  16.049 -0.1090 -0.5815 -0.2711
16537TIP3   OH271101   3.710   6.816  11.732 -0.2883 -0.4970  0.1535
16537TIP3    H171102   3.714   6.868  11.812 -0.5431  1.2366 -0.9132
16537TIP3    H271103   3.721   6.726  11.762 -0.0647  0.1241  2.0972
16538TIP3   OH271104   3.743   3.231   5.337 -0.0687  0.5038 -0.2869
16538TIP3    H171105   3.735   3.163   5.404 -0.4417 -0.7853 -1.5735
16538TIP3    H271106   3.679   3.297   5.362  2.1601  1.8124  2.5098
16539TIP3   OH271107   0.961   2.148  16.018  0.2776 -0.0710  0.0017
16539TIP3    H171108   0.928   2.108  16.099  0.8097 -0.8413 -0.1418
16539TIP3    H271109   1.053   2.123  16.016  0.1226 -0.6007 -1.1548
16540TIP3   OH271110   3.047   3.480  17.048  0.0393  0.2936  0.7617
16540TIP3    H171111   3.024   3.396  17.088  2.5592  0.0041  1.7845
16540TIP3    H271112   2.968   3.533  17.057 -1.4506 -1.7671  0.5461
16541TIP3   OH271113   1.159   4.359   0.200  0.1319  0.1662 -0.4149
16541TIP3    H171114   1.105   4.373   0.277 -0.3917 -2.0447 -0.3192
16541TIP3    H271115   1.247   4.348   0.234  0.0933  0.3220 -0.2592
16542TIP3   OH271116   0.145   0.627  16.215  0.1686  0.2390  0.1558
16542TIP3    H171117   0.177   0.544  16.179 -2.1401 -1.5174  1.8112
16542TIP3    H271118   0.091   0.664  16.145  1.8017  0.7965 -0.8696
16543TIP3   OH271119   1.045   6.752   2.758  0.1458 -0.2205  0.2154
16543TIP3    H171120   0.980   6.715   2.817 -0.1275 -2.3279 -1.3003
16543TIP3    H271121   1.126   6.755   2.810 -0.1595 -1.7365  0.8271
16544TIP3   OH271122   2.762   2.697  17.172  0.2455  0.2086 -0.4879
16544TIP3    H171123   2.855   2.680  17.187  0.2822 -0.7491 -1.6650
16544TIP3    H271124   2.760   2.762  17.102  0.0212  1.3000  0.4940
16545TIP3   OH271125   3.180   3.256  11.544 -0.3044  0.6404 -0.2632
16545TIP3    H171126   3.107   3.268  11.485  0.0939  1.4576 -0.5998
16545TIP3    H271127   3.225   3.340  11.546  0.8256  0.0719 -0.3388
16546TIP3   OH271128   4.286   4.648  14.768  0.0365 -0.6220 -0.1514
16546TIP3    H171129   4.349   4.667  14.837 -0.6414 -0.4652  0.4230
16546TIP3    H271130   4.341   4.636  14.690  0.6341  2.2909 -0.3069
16547TIP3   OH271131   0.598   4.878  13.276 -0.3361  0.0480 -0.0839
16547TIP3    H171132   0.520   4.858  13.327 -0.2700 -0.9415 -0.3525
16547TIP3    H271133   0.571   4.948  13.216 -0.8035  0.2162  0.3168
16548TIP3   OH271134   4.030   6.760   3.602  0.4295 -0.1030 -0.5502
16548TIP3    H171135   3.993   6.771   3.514 -0.0845  1.3358 -0.1809
16548TIP3    H271136   3.987   6.682   3.636  0.6072 -0.6575 -1.5549
16549TIP3   OH271137   6.303   4.237   2.730  0.7346 -0.1300 -0.1374
16549TIP3    H171138   6.347   4.188   2.660  0.8927 -1.4880  0.8776
16549TIP3    H271139   6.210   4.217   2.718  0.5605  1.1165 -1.0488
16550TIP3   OH271140   0.670   3.951   3.451  0.5163  0.0113  0.0858
16550TIP3    H171141   0.632   4.038   3.465 -0.7377  0.0256 -2.7043
16550TIP3    H271142   0.763   3.967   3.434  0.6515  0.5935  1.3131
16551TIP3   OH271143   2.460   4.195  12.168 -0.5261  0.1992 -0.1811
16551TIP3    H171144   2.427   4.118  12.122 -0.8966  0.2409  0.0115
16551TIP3    H271145   2.482   4.164  12.255 -0.2145  0.2091 -0.2538
16552TIP3   OH271146   0.814   1.142   2.342 -0.1698 -0.0973  0.1690
16552TIP3    H171147   0.898   1.154   2.387 -1.0901  0.4284  1.8465
16552TIP3    H271148   0.838   1.127   2.250  1.8041 -1.2848  0.8112
16553TIP3   OH271149   6.411   0.335   0.521 -0.2153 -0.0583  0.1346
16553TIP3    H171150   6.419   0.406   0.458  0.7399  0.3203  0.6595
16553TIP3    H271151   6.339   0.361   0.578 -3.1549 -1.7713 -2.4683
16554TIP3   OH271152   5.312   6.149   5.940 -0.4666 -0.1042 -0.8834
16554TIP3    H171153   5.339   6.131   6.030 -2.5402  0.6999 -0.0398
16554TIP3    H271154   5.392   6.139   5.889  1.2164  1.2421  1.2877
16555TIP3   OH271155   5.645   2.377  14.659  1.0705 -0.5898  0.2825
16555TIP3    H171156   5.617   2.411  14.573  1.9663 -1.2255 -0.2761
16555TIP3    H271157   5.656   2.455  14.713 -0.9648 -0.2527  0.2947
16556TIP3   OH271158   1.560   0.558  10.423  0.0254 -0.0063 -0.1560
16556TIP3    H171159   1.466   0.565  10.440  0.0424  0.9836 -0.4565
16556TIP3    H271160   1.571   0.470  10.385 -0.6911 -0.3373  0.3910
16557TIP3   OH271161   0.417   3.936   4.368 -0.5880 -0.1993  0.4565
16557TIP3    H171162   0.464   3.983   4.300  0.6439  1.7844  2.5397
16557TIP3    H271163   0.484   3.885   4.413 -1.3029 -1.1438  0.4746
16558TIP3   OH271164   4.028   1.752  15.007 -0.4139 -0.2090 -0.5218
16558TIP3    H171165   4.041   1.794  15.092  0.5741 -2.2460  0.3970
16558TIP3    H271166   4.094   1.682  15.004  0.1229  0.2673 -3.3093
16559TIP3   OH271167   1.254   1.704  16.386 -0.1920 -0.5293 -0.0823
16559TIP3    H171168   1.320   1.742  16.327 -0.3329 -0.9876 -0.5403
16559TIP3    H271169   1.170   1.728  16.347 -0.3005 -2.3244 -1.0824
16560TIP3   OH271170   3.553   3.539  13.993 -0.0040  0.1518 -0.2305
16560TIP3    H171171   3.608   3.476  14.038  0.5351  0.2557 -0.7261
16560TIP3    H271172   3.466   3.498  13.990 -0.2100  0.3984  1.4077
16561TIP3   OH271173   6.729   1.164   4.615 -0.1566 -0.2356 -0.0360
16561TIP3    H171174   6.704   1.159   4.707 -0.4050 -2.8555 -0.1634
16561TIP3    H271175   6.729   1.258   4.595 -4.0108  0.2783  1.5531
16562TIP3   OH271176   4.399   6.653  17.086 -0.0025 -0.0714 -0.0920
16562TIP3    H171177   4.465   6.660  17.017  1.6568 -1.4738  1.2463
16562TIP3    H271178   4.440   6.596  17.152 -2.6061 -1.0786  0.7715
16563TIP3   OH271179   4.523   3.286  14.232 -0.6853  0.5036 -0.6098
16563TIP3    H171180   4.576   3.210  14.256 -0.3695  1.1115  0.7147
16563TIP3    H271181   4.586   3.353  14.206 -0.8564  0.8374 -0.1920
16564TIP3   OH271182   5.492   6.081   1.847 -0.3205 -0.5938  0.1293
16564TIP3    H171183   5.487   6.126   1.932  2.0108 -1.5413  0.8642
16564TIP3    H271184   5.474   6.149   1.782  0.1536  0.7064  1.3027
16565TIP3   OH271185   5.939   0.941  15.301  0.0624 -0.5579  0.0672
16565TIP3    H171186   5.865   1.002  15.294 -0.2343 -1.0490 -1.5321
16565TIP3    H271187   5.917   0.886  15.376 -0.4506  0.2799  0.5414
16566TIP3   OH271188   0.736   2.766   0.940  0.9105  0.0992  0.4922
16566TIP3    H171189   0.661   2.707   0.932  0.9292 -0.4532  3.1780
16566TIP3    H271190   0.811   2.713   0.911  0.8704 -1.2144  2.5033
16567TIP3   OH271191   2.780   4.978  15.851  0.1207  0.2660 -0.1492
16567TIP3    H171192   2.832   4.946  15.925 -0.0781 -2.9574 -1.2613
16567TIP3    H271193   2.838   5.041  15.807  1.6262 -0.4274  0.7573
16568TIP3   OH271194   5.057   1.549   5.296  0.2712  0.2789 -0.0092
16568TIP3    H171195   5.088   1.557   5.205 -0.4195  1.0887 -0.1877
16568TIP3    H271196   5.104   1.473   5.331  1.3341  0.5823 -0.7235
16569TIP3   OH271197   0.887   2.235   1.775 -0.1663  0.0425  0.0397
16569TIP3    H171198   0.863   2.325   1.799 -2.1868 -1.0671  2.6252
16569TIP3    H271199   0.964   2.217   1.829  0.8460  0.4730 -1.2060
16570TIP3   OH271200   2.239   5.273  15.428 -0.8400 -0.3469 -0.2025
16570TIP3    H171201   2.227   5.231  15.343 -0.3479 -1.4640  0.2595
16570TIP3    H271202   2.288   5.209  15.480  1.2238  1.3421  0.0850
16571TIP3   OH271203   5.848   1.713  13.387 -0.1894  0.4425  0.0871
16571TIP3    H171204   5.778   1.772  13.415  0.6187  0.7713  1.5112
16571TIP3    H271205   5.837   1.635  13.442  0.0565  0.1482 -0.2716
16572TIP3   OH271206   2.773   3.059   5.048 -0.3411 -0.2820 -0.0158
16572TIP3    H171207   2.824   3.022   4.975 -0.1289 -2.1213  0.9936
16572TIP3    H271208   2.735   2.982   5.091 -1.2016  0.8334  1.2662
16573TIP3   OH271209   3.353   1.159   0.505  0.4210 -0.3425  0.1764
16573TIP3    H171210   3.260   1.179   0.493  0.5472  0.3372  0.2955
16573TIP3    H271211   3.365   1.076   0.459  0.3306  0.8945 -2.2348
16574TIP3   OH271212   3.809   1.482  15.809 -0.4071  0.4422 -0.4028
16574TIP3    H171213   3.721   1.518  15.813 -0.1474  1.5926 -3.1363
16574TIP3    H271214   3.814   1.439  15.724  0.7355 -2.3712  0.9571
16575TIP3   OH271215   1.726   2.959  10.466  0.2191 -0.1175  0.4395
16575TIP3    H171216   1.777   3.035  10.494 -0.2347  0.8132 -1.1401
16575TIP3    H271217   1.641   2.996  10.441 -0.4123 -1.3149  0.7490
16576TIP3   OH271218   6.824   2.162   4.267  0.8454 -0.1661 -0.3481
16576TIP3    H171219   6.759   2.208   4.215  0.9372 -2.1338 -2.4028
16576TIP3    H271220   6.873   2.110   4.202  1.7305 -1.9008  1.5952
16577TIP3   OH271221   5.849   0.658  11.406 -0.0495 -0.1006 -0.0509
16577TIP3    H171222   5.755   0.650  11.423  0.0275 -0.3563  0.2557
16577TIP3    H271223   5.854   0.716  11.329 -0.4267  0.4740  0.3453
16578TIP3   OH271224   6.075   3.468   2.910 -0.5554  0.5260 -0.2586
16578TIP3    H171225   6.060   3.509   2.996 -1.4553 -0.9211  0.3102
16578TIP3    H271226   6.000   3.409   2.899  0.7914 -1.1256 -0.9355
16579TIP3   OH271227   1.541   2.982  16.962 -0.1642 -0.3948  0.7874
16579TIP3    H171228   1.616   2.923  16.962 -0.9179 -1.3801  0.9877
16579TIP3    H271229   1.554   3.037  17.039  1.7538  1.3558 -0.6392
16580TIP3   OH271230   0.812   5.443   0.396  0.2339 -0.1465 -0.3620
16580TIP3    H171231   0.767   5.518   0.435  1.6115  1.0924 -1.0954
16580TIP3    H271232   0.768   5.430   0.311  0.3966  0.2129 -0.5001
16581TIP3   OH271233   3.474   0.166   0.146  0.2051  0.2021  0.3869
16581TIP3    H171234   3.560   0.143   0.111 -0.2939 -1.0083 -0.0845
16581TIP3    H271235   3.473   0.130   0.235 -0.2795 -0.9591 -0.0694
16582TIP3   OH271236   5.750   5.212   5.006  0.7230 -0.7935 -0.0800
16582TIP3    H171237   5.719   5.229   4.917  0.6766  0.3473  0.1334
16582TIP3    H271238   5.821   5.149   4.995 -0.0227 -1.5273 -0.8150
16583TIP3   OH271239   4.184   3.456  12.476  0.0667  0.2202 -0.2272
16583TIP3    H171240   4.100   3.418  12.505 -1.0956  2.9707  0.3141
16583TIP3    H271241   4.235   3.466  12.556  0.7585 -1.0204 -0.4963
16584TIP3   OH271242   2.649   0.233  15.828  0.0359  0.5182  0.8977
16584TIP3    H171243   2.718   0.253  15.891  1.1321  2.6300 -0.8489
16584TIP3    H271244   2.693   0.184  15.759 -0.6599  0.1505  0.7004
16585TIP3   OH271245   3.309   3.315   5.528  0.0597 -0.0711 -0.5611
16585TIP3    H171246   3.361   3.261   5.588  0.6794 -0.1571 -1.1584
16585TIP3    H271247   3.246   3.254   5.490 -0.0041 -0.1250 -0.3692
16586TIP3   OH271248   3.965   4.788   3.164  0.3708 -0.8079 -0.4787
16586TIP3    H171249   4.031   4.728   3.199  1.4960  0.5227 -0.1828
16586TIP3    H271250   4.015   4.846   3.106 -0.4649  0.4523  0.0110
16587TIP3   OH271251   0.494   0.946   3.633 -0.1469  0.1449 -0.5123
16587TIP3    H171252   0.403   0.967   3.654  0.1368  0.7548  0.1252
16587TIP3    H271253   0.516   0.873   3.691 -0.1871  0.0799 -0.5782
16588TIP3   OH271254   4.208   2.584   0.385  0.5061 -0.1317 -0.0740
16588TIP3    H171255   4.147   2.653   0.410 -0.0303 -1.0490  1.2896
16588TIP3    H271256   4.195   2.573   0.290 -3.3927 -2.0157  0.4619
16589TIP3   OH271257   2.171   5.403   2.518  0.2712  0.0765  0.3599
16589TIP3    H171258   2.139   5.463   2.451 -0.2959  0.8050  1.2837
16589TIP3    H271259   2.101   5.338   2.528  0.1531  0.2434  0.6007
16590TIP3   OH271260   5.010   5.968   3.034  0.2039  0.2250 -0.4439
16590TIP3    H171261   5.053   5.970   2.949  1.5094 -0.6923  0.1563
16590TIP3    H271262   5.022   6.056   3.069  1.1190  0.1472 -0.5327
16591TIP3   OH271263   0.720   4.863  13.545 -0.3623  0.1114 -0.5107
16591TIP3    H171264   0.791   4.926  13.539  0.6163 -0.7197  1.4005
16591TIP3    H271265   0.700   4.858  13.639 -2.8382  0.1742 -0.9535
16592TIP3   OH271266   3.698   5.432   4.604  0.0657  0.0903  0.1674
16592TIP3    H171267   3.718   5.339   4.595  0.8648  0.2581  0.1214
16592TIP3    H271268   3.757   5.476   4.542 -0.7160  0.5898 -0.2447
16593TIP3   OH271269   3.973   3.859   3.765 -0.2036 -0.4586 -0.1547
16593TIP3    H171270   3.926   3.908   3.832  2.1094  2.4582 -0.4629
16593TIP3    H271271   4.061   3.848   3.801  0.8400  0.4031 -2.2947
16594TIP3   OH271272   1.853   4.645  16.121  0.2541 -0.4404 -0.0427
16594TIP3    H171273   1.831   4.637  16.214  0.7414  0.7316  0.1834
16594TIP3    H271274   1.864   4.554  16.092  1.6477 -0.7996  1.4195
16595TIP3   OH271275   0.228   4.055  10.508 -0.1676  0.1798 -0.3033
16595TIP3    H171276   0.273   4.135  10.481 -0.4296  0.2311 -0.5927
16595TIP3    H271277   0.250   4.045  10.601  0.2480  0.3305 -0.3870
16596TIP3   OH271278   3.848   4.391   2.150  0.0444 -0.3456 -0.4335
16596TIP3    H171279   3.807   4.468   2.111  1.4470 -0.5328 -2.4564
16596TIP3    H271280   3.775   4.330   2.163 -0.8214  0.6454 -0.4928
16597TIP3   OH271281   6.000   5.504  12.889  0.1024  0.5704 -0.2281
16597TIP3    H171282   6.051   5.528  12.812  2.5527  0.4592  1.2567
16597TIP3    H271283   5.960   5.586  12.919 -1.2931  0.5297 -1.8161
16598TIP3   OH271284   3.214   3.951   2.144  0.1207 -0.5565  0.1288
16598TIP3    H171285   3.183   3.898   2.217 -3.2511  1.3390  0.2729
16598TIP3    H271286   3.226   3.889   2.073 -0.2861 -1.9543  1.2310
16599TIP3   OH271287   0.735   1.353  11.862  0.6605 -0.2185  0.1992
16599TIP3    H171288   0.793   1.425  11.884  0.4910  0.3927 -1.2209
16599TIP3    H271289   0.792   1.277  11.855  0.8899 -0.1737  1.3498
16600TIP3   OH271290   1.920   2.528   2.209 -0.1360  0.0526  0.3397
16600TIP3    H171291   2.012   2.553   2.200 -1.1586  4.0520 -0.6171
16600TIP3    H271292   1.886   2.527   2.120 -0.9804 -2.1640  0.6012
16601TIP3   OH271293   4.999   6.255  13.417 -0.2964  0.0398  0.4626
16601TIP3    H171294   4.962   6.204  13.489 -0.4149 -1.2723 -0.5111
16601TIP3    H271295   4.940   6.331  13.409 -1.0393 -0.4829  0.8803
16602TIP3   OH271296   0.287   5.144   6.589  0.5668  0.3492 -0.4161
16602TIP3    H171297   0.210   5.134   6.533  1.1271  3.6696 -2.0213
16602TIP3    H271298   0.360   5.158   6.528  2.4311 -2.0951  1.0735
16603TIP3   OH271299   4.494   0.626  15.180 -0.1555  0.2226  0.3225
16603TIP3    H171300   4.550   0.561  15.221 -0.2395 -0.0226  0.0574
16603TIP3    H271301   4.527   0.710  15.211 -0.4238  0.0304  1.1350
16604TIP3   OH271302   3.915   0.293  12.111 -0.2975  0.0037 -0.3119
16604TIP3    H171303   3.930   0.325  12.022  0.2462 -1.5967 -0.8365
16604TIP3    H271304   4.002   0.271  12.144  0.0537  4.0652  2.1301
16605TIP3   OH271305   4.003   3.291   4.011  0.2566 -0.8645 -0.4713
16605TIP3    H171306   4.015   3.336   4.095 -1.2025 -1.9295  0.3427
16605TIP3    H271307   4.055   3.342   3.949  1.7631 -0.3195  1.1551
16606TIP3   OH271308   5.186   6.486   0.180  0.4565  0.1157  0.4891
16606TIP3    H171309   5.229   6.551   0.235  0.4710 -0.0816  0.7097
16606TIP3    H271310   5.242   6.479   0.102  0.6857  0.0468  0.6600
16607TIP3   OH271311   5.292   0.058   2.836 -0.2167  0.2384  0.7462
16607TIP3    H171312   5.201   0.031   2.838 -0.4799  0.8661 -1.0328
16607TIP3    H271313   5.305   0.106   2.918 -0.6387 -2.2365  2.3947
16608TIP3   OH271314   4.707   0.263   4.194  0.8355  0.2475  0.2480
16608TIP3    H171315   4.755   0.277   4.112  0.0363  1.0756 -0.1049
16608TIP3    H271316   4.686   0.352   4.224  0.3002 -0.0759  0.8497
16609TIP3   OH271317   2.280   3.854  10.653  0.2189  0.2113 -0.3044
16609TIP3    H171318   2.340   3.929  10.654  0.5228 -0.0221  0.8901
16609TIP3    H271319   2.233   3.860  10.736 -0.1864 -0.5846 -0.4703
16610TIP3   OH271320   4.756   4.169   4.935  0.0387 -0.5064  0.4942
16610TIP3    H171321   4.699   4.243   4.914 -0.0422 -0.8875 -0.7699
16610TIP3    H271322   4.698   4.104   4.974  0.0235 -0.0869  1.1773
16611TIP3   OH271323   2.068   4.697  15.821  0.2539  0.2980 -0.4241
16611TIP3    H171324   1.997   4.636  15.837 -0.8138  1.1940 -1.5073
16611TIP3    H271325   2.142   4.643  15.795  0.3248 -0.7321  1.7134
16612TIP3   OH271326   4.363   2.850  14.501  0.3326  0.4298  0.2506
16612TIP3    H171327   4.309   2.887  14.571  0.3696 -0.5194  0.7849
16612TIP3    H271328   4.451   2.851  14.536  0.7415  2.1170 -0.6773
16613TIP3   OH271329   0.813   4.535   5.962  0.5889 -0.0705 -0.8548
16613TIP3    H171330   0.888   4.481   5.936  0.7353  0.6459 -1.9967
16613TIP3    H271331   0.844   4.586   6.036  0.0302 -2.4919  1.1767
16614TIP3   OH271332   5.826   2.474   3.424 -0.9243 -0.4649  0.2053
16614TIP3    H171333   5.816   2.539   3.494  0.6667 -1.4160  1.3894
16614TIP3    H271334   5.792   2.393   3.461  0.6771 -1.1661  0.2248
16615TIP3   OH271335   5.195   6.215  14.725 -0.7827 -0.6434  0.4754
16615TIP3    H171336   5.287   6.191  14.714 -1.1310 -1.6421 -0.3937
16615TIP3    H271337   5.184   6.292  14.670 -0.4417 -0.4489  0.6754
16616TIP3   OH271338   3.098   5.480   0.582 -0.1734  0.4558 -0.2579
16616TIP3    H171339   3.011   5.509   0.611  0.0440  0.7705  0.0999
16616TIP3    H271340   3.145   5.462   0.664 -0.2983 -0.9274 -0.4678
16617TIP3   OH271341   2.264   3.467  15.596  0.1253  0.9195  0.0491
16617TIP3    H171342   2.320   3.474  15.673  0.4056  1.0943 -0.1695
16617TIP3    H271343   2.289   3.384  15.555 -2.0185 -0.6580  1.7101
16618TIP3   OH271344   2.754   3.284  15.010  0.1571  0.4821 -0.1520
16618TIP3    H171345   2.796   3.222  14.950  0.9053 -0.3586  1.1968
16618TIP3    H271346   2.739   3.234  15.090 -0.5739  1.6562  0.4774
16619TIP3   OH271347   5.859   5.751  12.950  0.2468 -0.3720 -0.1260
16619TIP3    H171348   5.789   5.769  12.887  0.7150  0.7576 -0.3633
16619TIP3    H271349   5.932   5.804  12.919 -0.0917  1.8288  2.4349
16620TIP3   OH271350   1.026   5.779   2.632  0.9688 -0.3741 -0.0920
16620TIP3    H171351   1.030   5.800   2.726  0.9845 -1.0131  0.0517
16620TIP3    H271352   0.979   5.696   2.628 -1.4119  0.9086 -0.8335
16621TIP3   OH271353   3.025   3.256  12.057  0.6033 -0.2069  0.5611
16621TIP3    H171354   3.096   3.286  12.001 -0.1167  0.9686  0.2379
16621TIP3    H271355   3.003   3.333  12.110 -1.4033 -0.0708 -0.3842
16622TIP3   OH271356   2.073   5.538  13.444 -0.2176 -0.6895  0.1889
16622TIP3    H171357   2.059   5.557  13.537 -1.3518  2.7273 -0.5413
16622TIP3    H271358   1.993   5.568  13.401  0.2512 -2.2325 -1.9578
16623TIP3   OH271359   0.686   4.196   5.324  0.3263  0.1322  0.3812
16623TIP3    H171360   0.627   4.130   5.361  0.0987 -0.7595 -1.4782
16623TIP3    H271361   0.629   4.271   5.304  0.1991  0.0556  0.4520
16624TIP3   OH271362   5.423   4.844  14.324  0.0088 -0.0836 -0.1442
16624TIP3    H171363   5.494   4.891  14.280 -0.3150 -0.7976 -1.4496
16624TIP3    H271364   5.459   4.756  14.340 -0.2071 -0.1171  0.1727
16625TIP3   OH271365   5.862   1.156   5.586  0.1569 -0.1594 -0.4354
16625TIP3    H171366   5.894   1.141   5.497  2.4028  0.0769  0.2743
16625TIP3    H271367   5.894   1.243   5.608 -0.1872 -0.3123  0.6894
16626TIP3   OH271368   3.280   3.226  14.539  0.6763  0.6278  0.0606
16626TIP3    H171369   3.229   3.296  14.579 -2.1012 -0.6702 -0.9298
16626TIP3    H271370   3.259   3.232  14.445  2.0599 -0.2095 -0.3291
16627TIP3   OH271371   6.123   5.224   1.243  0.4527  0.0891 -0.7028
16627TIP3    H171372   6.194   5.160   1.253  0.3622 -0.0949 -1.2431
16627TIP3    H271373   6.043   5.172   1.243  0.2364  0.3638  0.8009
16628TIP3   OH271374   4.918   2.066   2.249 -0.3605  0.1657 -0.5473
16628TIP3    H171375   4.898   1.976   2.275 -0.5841  0.4324  0.2264
16628TIP3    H271376   4.957   2.058   2.161 -0.0924 -0.7062 -0.3550
16629TIP3   OH271377   5.123   5.494   6.225 -0.2380 -0.0719 -0.3583
16629TIP3    H171378   5.139   5.445   6.144  2.7473 -2.9804  1.7714
16629TIP3    H271379   5.204   5.544   6.239 -0.8092  0.5781  0.7415
16630TIP3   OH271380   4.064   4.294   3.832  0.7006 -1.2368 -0.4265
16630TIP3    H171381   4.086   4.387   3.832  1.7888 -1.4512  1.2684
16630TIP3    H271382   3.968   4.292   3.837  0.6433 -0.2202 -0.9196
16631TIP3   OH271383   6.140   5.850   1.632  0.3969 -0.1546  0.1941
16631TIP3    H171384   6.146   5.943   1.610  0.2819  0.2131  1.6091
16631TIP3    H271385   6.184   5.805   1.559 -1.7803  0.7874 -1.8040
16632TIP3   OH271386   5.965   5.081  15.724 -0.0262 -0.1650 -0.1430
16632TIP3    H171387   5.912   5.081  15.804  1.5631 -0.3484  0.9542
16632TIP3    H271388   6.003   4.993  15.720 -0.1415 -0.1861 -1.1597
16633TIP3   OH271389   5.619   0.747  14.896  0.1883  0.2563  0.3697
16633TIP3    H171390   5.587   0.739  14.985 -2.3775  0.4645 -0.4644
16633TIP3    H271391   5.616   0.840  14.877  1.2677  0.2765  0.2186
16634TIP3   OH271392   0.571   0.390   4.696 -0.4570 -0.1319  0.4454
16634TIP3    H171393   0.554   0.450   4.768 -2.6385  0.0689 -0.1749
16634TIP3    H271394   0.592   0.307   4.739 -0.6802  0.2429  1.3014
16635TIP3   OH271395   5.205   3.470  12.639  0.0686 -0.4420 -0.2612
16635TIP3    H171396   5.192   3.407  12.710 -0.5703 -0.8403 -0.7131
16635TIP3    H271397   5.257   3.423  12.574 -1.0946 -0.8078 -0.9604
16636TIP3   OH271398   0.499   1.353   4.389  0.1188 -0.3132 -0.1415
16636TIP3    H171399   0.539   1.431   4.350  0.6833 -0.7538 -0.4502
16636TIP3    H271400   0.566   1.318   4.447  0.2472 -1.1542 -0.7861
16637TIP3   OH271401   0.150   2.517  13.506  0.4215 -0.5327  0.3803
16637TIP3    H171402   0.135   2.437  13.457  0.7965 -0.3761 -0.0041
16637TIP3    H271403   0.078   2.575  13.481  0.2643 -0.6773  0.4999
16638TIP3   OH271404   5.934   4.871  14.913  0.4970 -0.2574  0.0800
16638TIP3    H171405   6.013   4.825  14.941  0.0995 -0.1149  1.4872
16638TIP3    H271406   5.862   4.815  14.941  0.0158  0.9845  1.4623
16639TIP3   OH271407   4.547   6.691  15.266  0.2051 -0.2476 -0.0038
16639TIP3    H171408   4.571   6.703  15.358  0.4794 -1.8301  0.1602
16639TIP3    H271409   4.494   6.769  15.245  2.1945  1.4022  0.7382
16640TIP3   OH271410   2.191   3.392   2.461  0.5204 -0.4236  0.0692
16640TIP3    H171411   2.249   3.467   2.477 -1.4247  1.0452  0.5339
16640TIP3    H271412   2.202   3.373   2.368  0.1476  1.2476 -0.3457
16641TIP3   OH271413   1.998   2.976  14.522 -0.1530 -0.6278  0.3325
16641TIP3    H171414   1.980   3.070  14.514  1.8946 -0.2384 -0.3480
16641TIP3    H271415   1.917   2.934  14.495 -0.5010  0.9443 -1.2624
16642TIP3   OH271416   6.168   4.037   1.423 -0.2034 -0.7809  0.2782
16642TIP3    H171417   6.239   3.995   1.472 -1.3686 -3.3445 -0.0424
16642TIP3    H271418   6.124   3.965   1.378 -0.7074  1.1576 -2.6130
16643TIP3   OH271419   1.024   2.070  12.021 -0.5274 -0.3520 -0.3891
16643TIP3    H171420   1.071   2.063  11.938  0.1014  0.1470 -0.0862
16643TIP3    H271421   0.965   1.994  12.022  0.1337 -0.8849 -0.8663
16644TIP3   OH271422   6.486   4.294  16.843 -0.0241  0.1636 -0.0453
16644TIP3    H171423   6.470   4.349  16.767  0.3893 -1.6479 -1.5028
16644TIP3    H271424   6.471   4.352  16.918  1.9028  2.6963 -1.4594
16645TIP3   OH271425   3.224   4.420  12.945  0.1210 -0.3732  0.0146
16645TIP3    H171426   3.150   4.433  13.004  1.3561 -0.8104  1.7465
16645TIP3    H271427   3.239   4.325  12.947  1.0600 -0.2297  0.1365
16646TIP3   OH271428   2.881   1.215   5.780  0.2776 -0.0809  0.1327
16646TIP3    H171429   2.942   1.143   5.766  1.0057  0.6353 -0.4713
16646TIP3    H271430   2.852   1.204   5.871 -0.0576 -1.4458 -0.1251
16647TIP3   OH271431   6.475   2.022   1.318 -0.0291 -0.9262 -0.0095
16647TIP3    H171432   6.554   2.067   1.286 -1.0483  0.9489 -0.0478
16647TIP3    H271433   6.453   2.068   1.399 -1.5063 -0.9056 -0.4058
16648TIP3   OH271434   4.567   1.186  16.870  0.4911 -0.4383 -0.2810
16648TIP3    H171435   4.531   1.228  16.949  0.6318  0.4155 -0.6557
16648TIP3    H271436   4.520   1.103  16.863  0.5849 -0.5996  0.7877
16649TIP3   OH271437   4.427   2.311   5.166  0.5397 -0.3102 -0.1709
16649TIP3    H171438   4.385   2.379   5.113  2.1405 -0.9653 -2.4290
16649TIP3    H271439   4.519   2.317   5.143  1.2392 -1.0253  2.2075
16650TIP3   OH271440   5.141   3.011  14.934  0.0616 -0.2596 -0.6446
16650TIP3    H171441   5.185   2.997  14.850 -2.1635 -0.0814 -1.9277
16650TIP3    H271442   5.137   3.106  14.944 -0.3889 -0.2635 -0.7577
16651TIP3   OH271443   6.270   2.225  14.690 -0.6423 -0.3625 -0.4036
16651TIP3    H171444   6.244   2.283  14.619  0.8793 -0.2119 -0.8902
16651TIP3    H271445   6.345   2.269  14.730  0.0368 -1.5983 -0.2637
16652TIP3   OH271446   3.327   4.912   2.103 -0.1489 -0.2423  0.3221
16652TIP3    H171447   3.384   4.909   2.179 -0.2159 -0.1391  0.3763
16652TIP3    H271448   3.332   5.002   2.072  0.6139 -0.5103 -0.3596
16653TIP3   OH271449   6.780   4.981   0.013  0.1727  0.1615 -0.4304
16653TIP3    H171450   6.701   5.001   0.063  0.2290 -0.4678 -0.0684
16653TIP3    H271451   6.753   4.986  -0.078 -0.3949 -0.4191 -0.3066
16654TIP3   OH271452   6.157   4.723  17.010  0.1632  0.1593 -0.0554
16654TIP3    H171453   6.092   4.788  16.983 -0.6897  0.2085  1.9488
16654TIP3    H271454   6.238   4.751  16.967 -1.4678 -1.2070 -4.5624
16655TIP3   OH271455   5.199   1.493  13.941 -0.1082 -0.4966 -0.5113
16655TIP3    H171456   5.290   1.496  13.972 -0.5455  1.0945  0.7972
16655TIP3    H271457   5.181   1.400  13.929  0.6452 -1.1831  2.5874
16656TIP3   OH271458   0.630   5.494   1.458  0.2754  0.6667 -0.4262
16656TIP3    H171459   0.564   5.561   1.474 -0.9656 -0.9026  1.4642
16656TIP3    H271460   0.604   5.456   1.374  0.0465  1.4650 -0.7315
16657TIP3   OH271461   4.499   5.909   0.013  0.4217  0.0640  0.5980
16657TIP3    H171462   4.567   5.952  -0.039  1.3112 -0.2521  1.4569
16657TIP3    H271463   4.529   5.917   0.103 -1.1279  0.6640  1.0925
16658TIP3   OH271464   0.664   3.354  16.866  0.9540 -0.1684  0.0018
16658TIP3    H171465   0.581   3.320  16.899  1.4932 -2.0185 -0.3873
16658TIP3    H271466   0.645   3.443  16.838 -0.5362 -0.0536  1.2524
16659TIP3   OH271467   1.761   4.104   6.019  0.1830  0.0632  0.1787
16659TIP3    H171468   1.787   4.017   6.049  1.1172  0.3672  0.2852
16659TIP3    H271469   1.672   4.093   5.985 -0.8834 -0.3292  2.8817
16660TIP3   OH271470   6.185   0.179   5.225  0.0377 -0.4888  0.2725
16660TIP3    H171471   6.125   0.235   5.176 -0.6065  1.5937  3.1589
16660TIP3    H271472   6.129   0.111   5.263  0.3075 -1.2967 -0.7591
16661TIP3   OH271473   3.859   5.632   3.290 -0.6691  0.2362  0.0273
16661TIP3    H171474   3.859   5.588   3.206 -0.1554  2.2706 -1.1010
16661TIP3    H271475   3.785   5.694   3.286  0.5081  1.7276  0.2532
16662TIP3   OH271476   6.174   3.882   5.386 -0.1119  0.0207  0.1385
16662TIP3    H171477   6.147   3.949   5.322 -0.7100  0.8798  1.2522
16662TIP3    H271478   6.096   3.868   5.440 -0.4500 -2.6584 -0.9322
16663TIP3   OH271479   3.279   6.545   2.086  0.0620 -0.1084 -0.2784
16663TIP3    H171480   3.230   6.578   2.161  3.7425  0.8502  1.9457
16663TIP3    H271481   3.326   6.621   2.052  1.9647 -1.3392 -0.5921
16664TIP3   OH271482   2.552   4.251   2.693 -0.1175 -0.1827  0.3829
16664TIP3    H171483   2.645   4.243   2.672 -0.3225  0.5300 -0.8956
16664TIP3    H271484   2.509   4.188   2.636 -0.6606  1.5985 -1.3159
16665TIP3   OH271485   4.092   4.340  11.377  0.0905  0.0978  0.3830
16665TIP3    H171486   4.107   4.246  11.361  1.9566  0.1679  1.3497
16665TIP3    H271487   4.098   4.380  11.290  0.2586 -0.5765  0.0703
16666TIP3   OH271488   4.764   6.102   1.844  0.2188 -0.1088  0.7472
16666TIP3    H171489   4.842   6.048   1.842  0.7806  0.6927  0.4579
16666TIP3    H271490   4.768   6.155   1.764 -1.4642 -1.1914 -0.1146
16667TIP3   OH271491   1.669   4.030   4.959 -0.1786 -0.4659 -0.1761
16667TIP3    H171492   1.706   4.102   4.908 -2.8275  0.2253 -1.3302
16667TIP3    H271493   1.674   4.060   5.050  0.9830  0.0718 -0.3986
16668TIP3   OH271494   6.709   5.619   2.371  0.4305  0.1768  0.0759
16668TIP3    H171495   6.668   5.582   2.449 -1.6261  2.4266  0.1717
16668TIP3    H271496   6.678   5.565   2.298  1.4552 -1.2307  0.6409
16669TIP3   OH271497   0.397   1.674  12.047 -0.5158  0.1482  0.2567
16669TIP3    H171498   0.368   1.585  12.068  1.5990 -0.7517 -0.3774
16669TIP3    H271499   0.334   1.705  11.983 -0.5140 -1.4473 -0.5662
16670TIP3   OH271500   1.970   6.198  10.839 -0.0465 -0.4724 -0.4348
16670TIP3    H171501   2.036   6.199  10.769  0.3175 -1.2020 -0.1085
16670TIP3    H271502   1.971   6.287  10.874 -0.2511 -0.0886 -1.3729
16671TIP3   OH271503   1.310   1.903  15.369  0.4012 -0.5548 -0.3116
16671TIP3    H171504   1.292   1.809  15.371  0.8601 -0.6789 -1.4371
16671TIP3    H271505   1.223   1.944  15.379 -0.3374 -1.1402 -3.2603
16672TIP3   OH271506   4.641   2.524  14.513  0.6407  0.4155  0.1511
16672TIP3    H171507   4.577   2.558  14.577  0.3966 -0.0228  0.1422
16672TIP3    H271508   4.726   2.550  14.549  0.5289 -0.1592  0.8668
16673TIP3   OH271509   0.405   0.148   0.569 -0.3667 -0.1802  0.2295
16673TIP3    H171510   0.455   0.143   0.488 -0.1396 -1.6878  0.4335
16673TIP3    H271511   0.321   0.106   0.548 -1.6346  2.3555 -0.1260
16674TIP3   OH271512   5.289   5.167  14.251 -0.1374 -0.4607  0.4992
16674TIP3    H171513   5.315   5.098  14.189  0.6818  0.7407 -0.5616
16674TIP3    H271514   5.202   5.194  14.221 -0.1794 -0.5938  0.5032
16675TIP3   OH271515   4.233   4.756  13.305  0.4427  0.0135 -0.3179
16675TIP3    H171516   4.276   4.820  13.361  0.2168  0.0168 -0.1467
16675TIP3    H271517   4.296   4.739  13.235 -0.2831  1.9033 -1.4903
16676TIP3   OH271518   1.195   5.610   4.827 -0.4783 -0.5485  0.0795
16676TIP3    H171519   1.194   5.690   4.879  0.9496 -2.0332  2.6261
16676TIP3    H271520   1.162   5.636   4.741  0.7977  2.9374  0.4861
16677TIP3   OH271521   2.824   4.214   0.432  0.1939 -0.5169  0.0274
16677TIP3    H171522   2.817   4.293   0.378 -1.5098 -0.4054  0.3442
16677TIP3    H271523   2.744   4.165   0.412 -0.9873 -0.0575  3.0736
16678TIP3   OH271524   3.372   5.110   5.781  0.3931  0.2155  0.5019
16678TIP3    H171525   3.292   5.109   5.834  0.8545 -0.5381  1.2140
16678TIP3    H271526   3.442   5.098   5.844  0.9143 -1.4873 -0.3436
16679TIP3   OH271527   3.804   0.395   3.895 -0.3227  0.6986 -0.2898
16679TIP3    H171528   3.801   0.306   3.931  0.3923  0.7039 -0.2037
16679TIP3    H271529   3.888   0.429   3.924 -0.7191  1.5184 -0.0697
16680TIP3   OH271530   3.121   5.967  14.861  0.3559 -0.2883  0.1898
16680TIP3    H171531   3.127   5.888  14.915  1.4499 -0.4016 -0.0911
16680TIP3    H271532   3.211   5.986  14.835  0.0571  0.8121 -0.1002
16681TIP3   OH271533   5.190   1.300   1.943 -0.0458  0.0556 -0.1037
16681TIP3    H171534   5.105   1.340   1.963  0.9594  1.4703  1.5567
16681TIP3    H271535   5.234   1.293   2.027  2.5205  1.8375 -1.1616
16682TIP3   OH271536   1.566   1.709   0.362 -0.0228  0.1562  0.0495
16682TIP3    H171537   1.660   1.706   0.342  0.0797 -1.7198  0.6718
16682TIP3    H271538   1.529   1.634   0.316 -1.1300  0.5526  0.2673
16683TIP3   OH271539   5.284   4.693   1.208  0.1525  0.4144 -0.3803
16683TIP3    H171540   5.288   4.786   1.185 -1.6876  1.4069  2.8150
16683TIP3    H271541   5.374   4.670   1.230  0.4238  1.8421  0.0909
16684TIP3   OH271542   2.345   5.052   2.637 -0.4367 -0.3886 -0.0711
16684TIP3    H171543   2.411   5.043   2.705  0.5036  0.9924 -0.7484
16684TIP3    H271544   2.262   5.037   2.682  0.3256 -2.5734  0.7069
16685TIP3   OH271545   6.513   1.632   5.409 -0.2918 -0.0097  0.4200
16685TIP3    H171546   6.516   1.728   5.404  0.5348 -0.0838 -1.9758
16685TIP3    H271547   6.553   1.611   5.493  0.5728  1.7124  0.4924
16686TIP3   OH271548   0.979   1.883  12.803  0.0570 -0.2528  0.3243
16686TIP3    H171549   1.038   1.821  12.847 -0.7820  0.7211  3.0679
16686TIP3    H271550   0.913   1.903  12.869 -0.2981  2.7816 -0.7926
16687TIP3   OH271551   2.023   5.235   3.822  0.0398  0.2836 -0.6078
16687TIP3    H171552   2.073   5.290   3.762  0.7645  0.5274  0.1902
16687TIP3    H271553   2.088   5.175   3.859 -0.5308 -0.3615 -0.6228
16688TIP3   OH271554   5.922   4.485   4.768  0.3564 -0.5775 -0.0734
16688TIP3    H171555   5.999   4.504   4.714  0.8197 -0.8302  0.4766
16688TIP3    H271556   5.959   4.444   4.847 -0.2777  0.0352  0.5474
16689TIP3   OH271557   3.640   4.142  16.279  0.3811 -0.1048 -0.1787
16689TIP3    H171558   3.592   4.093  16.345  1.0014  0.6648  0.8695
16689TIP3    H271559   3.574   4.197  16.237 -0.0151 -0.6022 -0.2160
16690TIP3   OH271560   5.552   3.163  10.646 -0.5601  0.7143 -0.0242
16690TIP3    H171561   5.471   3.196  10.607 -0.8337 -1.0221 -1.0237
16690TIP3    H271562   5.621   3.190  10.587 -0.5136  1.3929  0.3361
16691TIP3   OH271563   0.133   1.027  13.999  0.1815  0.1057  0.1351
16691TIP3    H171564   0.182   1.107  14.016 -1.5117  0.8934  1.6657
16691TIP3    H271565   0.045   1.058  13.977 -0.0756 -1.3052 -0.9845
16692TIP3   OH271566   5.883   5.046   3.347 -0.0774  0.3525  0.0464
16692TIP3    H171567   5.890   5.034   3.442 -0.4061 -1.3462 -0.1008
16692TIP3    H271568   5.890   4.957   3.312 -0.1480  0.9395 -1.5096
16693TIP3   OH271569   0.307   0.743  12.480 -0.1599 -0.1813 -0.2050
16693TIP3    H171570   0.286   0.715  12.570 -1.8659 -0.7222 -0.7368
16693TIP3    H271571   0.222   0.758  12.439  0.6085  2.4697 -1.0362
16694TIP3   OH271572   3.226   3.271   2.108 -0.5447 -0.6271  0.9818
16694TIP3    H171573   3.151   3.216   2.087 -1.2370  0.1632  1.3646
16694TIP3    H271574   3.194   3.334   2.172 -0.4199  1.7416 -1.1177
16695TIP3   OH271575   2.913   2.472   5.029  0.1031  0.2015 -0.0859
16695TIP3    H171576   2.826   2.435   5.046 -0.9082  1.7664 -1.5027
16695TIP3    H271577   2.956   2.407   4.973 -0.0502 -0.6760  0.7882
16696TIP3   OH271578   3.528   0.499   4.232  0.0460  0.7021 -0.1722
16696TIP3    H171579   3.516   0.405   4.237 -1.3468  0.9412  2.1713
16696TIP3    H271580   3.453   0.530   4.180  0.0326  0.5915 -0.2189
16697TIP3   OH271581   0.699   5.771   4.677  0.2285  0.6352  0.5057
16697TIP3    H171582   0.610   5.795   4.651  0.6002  0.8520 -0.6250
16697TIP3    H271583   0.740   5.742   4.596  0.1150 -3.0382  1.5770
16698TIP3   OH271584   4.210   2.137   3.476  0.0444 -0.0237  0.2675
16698TIP3    H171585   4.203   2.046   3.505  0.1213  0.4225  1.7980
16698TIP3    H271586   4.132   2.151   3.423 -0.3076 -0.8060  0.5505
16699TIP3   OH271587   5.006   2.218   1.676  0.0828  0.2408 -0.6305
16699TIP3    H171588   4.954   2.139   1.658 -0.2710  0.0783  0.9554
16699TIP3    H271589   5.009   2.264   1.592 -2.1237 -0.0491 -0.9254
16700TIP3   OH271590   0.192   1.827   1.697 -0.2376 -0.0324 -0.1078
16700TIP3    H171591   0.117   1.817   1.638  0.1653 -0.9826 -0.4810
16700TIP3    H271592   0.232   1.740   1.699  1.1537  0.5790 -0.3267
16701TIP3   OH271593   0.932   5.694  13.093 -0.5354 -0.2163  0.1549
16701TIP3    H171594   0.902   5.735  13.174  0.2599  0.6847  0.0050
16701TIP3    H271595   0.895   5.748  13.023 -0.5987 -0.5531 -0.0758
16702TIP3   OH271596   3.571   2.151  11.991 -0.1518  0.5554  0.6450
16702TIP3    H171597   3.575   2.096  12.069 -0.9079  0.3113  0.5216
16702TIP3    H271598   3.481   2.183  11.989 -0.0804  0.7294 -0.0110
16703TIP3   OH271599   4.757   2.584   6.439  0.3211  0.0016  0.1503
16703TIP3    H171600   4.806   2.578   6.521 -0.3418 -0.5201  0.5277
16703TIP3    H271601   4.696   2.657   6.452 -1.8508 -1.8749  1.3263
16704TIP3   OH271602   6.601   6.252   2.591  0.1576  0.1140 -0.3672
16704TIP3    H171603   6.639   6.253   2.503 -0.6032 -1.7084 -0.7534
16704TIP3    H271604   6.646   6.181   2.636 -0.9505 -0.3849 -0.0069
16705TIP3   OH271605   3.535   3.899   4.316  0.0859 -0.1563  0.0835
16705TIP3    H171606   3.621   3.874   4.348 -0.0416 -0.9688 -0.1806
16705TIP3    H271607   3.533   3.867   4.225 -0.1926  0.5683 -0.1696
16706TIP3   OH271608   6.382   2.476  11.407  0.0757 -0.1355  0.7178
16706TIP3    H171609   6.341   2.562  11.407  1.0003  0.3235  1.2171
16706TIP3    H271610   6.342   2.430  11.334 -1.6953  0.0959  1.4955
16707TIP3   OH271611   2.524   0.629  12.893 -0.8959  0.2537 -0.1752
16707TIP3    H171612   2.566   0.560  12.842  0.1717 -1.0200  2.2973
16707TIP3    H271613   2.584   0.703  12.886 -0.6247  0.0091 -0.5077
16708TIP3   OH271614   0.218   3.001  12.029  0.2485 -0.2162 -0.5149
16708TIP3    H171615   0.134   3.020  11.986  1.0731 -0.1004 -2.1462
16708TIP3    H271616   0.213   2.909  12.053 -1.0493  0.2214  1.1253
16709TIP3   OH271617   2.493   3.724   0.876  0.2135 -0.5052  0.8547
16709TIP3    H171618   2.404   3.736   0.842 -0.3867  1.1942  2.8069
16709TIP3    H271619   2.550   3.734   0.800 -1.0728  2.7576  0.1599
16710TIP3   OH271620   1.603   0.778   1.278 -0.1195  0.2161 -0.5796
16710TIP3    H171621   1.591   0.870   1.297  0.5012  0.2741 -0.4247
16710TIP3    H271622   1.674   0.776   1.214  1.1366 -0.2342  0.7697
16711TIP3   OH271623   6.751   3.107  13.943 -1.0117 -0.4784 -0.1604
16711TIP3    H171624   6.812   3.122  14.016 -0.0774 -2.3341 -0.4910
16711TIP3    H271625   6.790   3.155  13.869 -0.1322 -1.3305 -0.2685
16712TIP3   OH271626   0.002   5.358   3.397 -0.2034  0.3433  0.6034
16712TIP3    H171627   0.094   5.334   3.411  0.0717 -0.2682 -1.8440
16712TIP3    H271628   0.005   5.452   3.378  0.1840  0.0011 -1.1921
16713TIP3   OH271629   3.732   5.545  15.450  0.5338 -0.2933 -0.0558
16713TIP3    H171630   3.720   5.502  15.535  0.4779 -0.8723 -0.3519
16713TIP3    H271631   3.737   5.639  15.471 -3.5686  0.0506  0.2095
16714TIP3   OH271632   4.874   2.191   1.197  0.0654  0.2576 -0.1602
16714TIP3    H171633   4.873   2.096   1.190 -1.3657  0.0799  1.5215
16714TIP3    H271634   4.864   2.223   1.108 -0.1303 -1.1731 -0.6687
16715TIP3   OH271635   4.135   0.656  10.694 -0.2759  0.6077 -0.1926
16715TIP3    H171636   4.174   0.722  10.751 -0.2751 -1.4665  2.3847
16715TIP3    H271637   4.209   0.617  10.647 -0.1709  1.6331 -0.9283
16716TIP3   OH271638   2.744   0.256   2.394 -0.2136 -0.3181 -0.0407
16716TIP3    H171639   2.763   0.350   2.393  0.3029 -0.4206 -0.3025
16716TIP3    H271640   2.676   0.244   2.328  1.0568 -0.3884 -1.3924
16717TIP3   OH271641   4.567   0.376   0.153  0.1639 -0.3434 -0.3428
16717TIP3    H171642   4.614   0.449   0.113 -1.1187  0.8192  0.1457
16717TIP3    H271643   4.621   0.350   0.227  0.0397  1.0401  0.2780
16718TIP3   OH271644   0.177   2.313   3.424 -0.0102  0.0806  0.2115
16718TIP3    H171645   0.130   2.323   3.507 -1.8931  0.2918 -0.8380
16718TIP3    H271646   0.210   2.400   3.405 -0.0694  0.1550  0.4418
16719TIP3   OH271647   2.845   5.270  14.804 -0.5267  0.2765 -0.2861
16719TIP3    H171648   2.776   5.206  14.790  0.9396 -0.8050 -3.5009
16719TIP3    H271649   2.911   5.225  14.857 -0.2813 -0.3061 -1.0735
16720TIP3   OH271650   0.818   4.197  14.276  0.8541  0.0396  0.6622
16720TIP3    H171651   0.788   4.233  14.360  0.3676  1.0648  0.0639
16720TIP3    H271652   0.778   4.254  14.210  0.3264 -1.4175 -0.3163
16721TIP3   OH271653   2.102   2.249  12.550 -0.1766  0.5201  0.2847
16721TIP3    H171654   2.135   2.305  12.480  1.2556 -1.4604 -0.7388
16721TIP3    H271655   2.024   2.208  12.513  0.5173 -0.4409 -0.1767
16722TIP3   OH271656   5.663   0.295  13.099  0.2891 -0.4615  0.2698
16722TIP3    H171657   5.639   0.226  13.161  0.2265 -0.5019  0.2007
16722TIP3    H271658   5.753   0.316  13.121 -0.3553  0.9697  1.7492
16723TIP3   OH271659   2.027   5.077   5.420 -0.2469  0.7029  0.6895
16723TIP3    H171660   2.065   5.165   5.416  1.8901 -0.1961 -0.1790
16723TIP3    H271661   1.944   5.085   5.373  0.2502  2.1184 -0.0120
16724TIP3   OH271662   5.741   0.192  16.835  0.3575  0.8470  0.2036
16724TIP3    H171663   5.701   0.257  16.894  0.7205  1.0485  0.2272
16724TIP3    H271664   5.760   0.241  16.755 -0.8479  0.3983 -0.3876
16725TIP3   OH271665   3.297   1.074  14.502 -0.3619 -0.0734  0.2435
16725TIP3    H171666   3.214   1.122  14.506 -0.3724 -0.0870  0.1949
16725TIP3    H271667   3.288   1.018  14.425 -1.8468 -2.9239  2.2893
16726TIP3   OH271668   0.209   3.556  14.368 -0.4228  0.2069  0.6488
16726TIP3    H171669   0.238   3.627  14.425 -0.3542 -0.7251  1.8157
16726TIP3    H271670   0.209   3.478  14.424 -0.7707 -0.6697 -0.5159
16727TIP3   OH271671   2.340   2.959   2.990 -0.3859 -0.6730  0.2014
16727TIP3    H171672   2.433   2.970   2.971 -0.6529 -1.2705 -1.5953
16727TIP3    H271673   2.299   3.040   2.960 -0.6679 -1.1593 -0.7634
16728TIP3   OH271674   4.358   6.032  12.320  0.0869 -0.1698  0.4021
16728TIP3    H171675   4.346   6.010  12.413 -2.3075 -0.1629  0.1800
16728TIP3    H271676   4.433   5.980  12.292  0.8045 -0.2469  2.3028
16729TIP3   OH271677   5.018   5.011  11.032  0.0056  0.3872 -0.7466
16729TIP3    H171678   4.948   5.069  11.063  0.4203  0.0398  0.9625
16729TIP3    H271679   4.981   4.923  11.039  0.6050  0.1936  0.2668
16730TIP3   OH271680   2.941   4.251   4.787 -0.0677 -0.3201 -0.5767
16730TIP3    H171681   2.949   4.338   4.824  1.6992 -0.6032 -0.2159
16730TIP3    H271682   2.952   4.263   4.693  0.9748 -0.2342 -0.4495
16731TIP3   OH271683   2.477   5.749  12.915 -0.2134  0.4435 -0.0109
16731TIP3    H171684   2.553   5.740  12.857  0.4075  0.0974  0.8305
16731TIP3    H271685   2.469   5.663  12.957 -0.2048  0.8929  0.9474
16732TIP3   OH271686   5.424   3.497  15.779  0.2356 -0.0762  0.4233
16732TIP3    H171687   5.391   3.544  15.702  0.9005 -3.3430 -2.0772
16732TIP3    H271688   5.384   3.410  15.772  1.0138 -0.7457  3.3681
16733TIP3   OH271689   2.270   4.908   1.719 -0.2888 -0.5294  0.5894
16733TIP3    H171690   2.354   4.864   1.729  1.0251  1.7417  0.3066
16733TIP3    H271691   2.277   4.986   1.774 -2.3062 -0.3732  0.7005
16734TIP3   OH271692   5.711   5.443  13.171  0.0336  0.0892  0.1638
16734TIP3    H171693   5.720   5.410  13.082  2.2342  0.8331  0.0569
16734TIP3    H271694   5.720   5.365  13.226 -2.2325 -0.5166 -0.2155
16735TIP3   OH271695   0.768   4.141  12.645 -0.2481 -0.3649 -0.0860
16735TIP3    H171696   0.803   4.198  12.713 -1.2457 -0.7592  0.7792
16735TIP3    H271697   0.742   4.061  12.691 -1.8935 -0.2429 -0.7533
16736TIP3   OH271698   6.200   3.321  15.069  0.5817  0.3885 -0.1537
16736TIP3    H171699   6.241   3.375  15.001 -0.8232 -0.1000 -1.4355
16736TIP3    H271700   6.114   3.299  15.033 -0.7623  1.1995  2.3317
16737TIP3   OH271701   0.864   0.335  13.213 -0.2038  0.2416 -0.2096
16737TIP3    H171702   0.797   0.354  13.279  1.4707 -0.0009  1.6628
16737TIP3    H271703   0.919   0.267  13.253  1.3999  0.7266 -1.4616
16738TIP3   OH271704   0.013   3.870   4.267 -0.1048 -0.1814 -0.2783
16738TIP3    H171705   0.030   3.847   4.358  1.2042 -0.8707 -0.6641
16738TIP3    H271706  -0.012   3.962   4.269 -1.3729 -0.5286  0.8937
16739TIP3   OH271707   4.779   3.284  16.012 -0.1414  0.1579  0.4768
16739TIP3    H171708   4.861   3.283  16.062  1.1550  0.1918 -1.5540
16739TIP3    H271709   4.711   3.268  16.078  1.5369 -0.5514  2.1311
16740TIP3   OH271710   5.802   5.088   2.234 -0.4101  0.2559 -0.0236
16740TIP3    H171711   5.796   5.058   2.143  0.2895 -1.5051  0.4723
16740TIP3    H271712   5.745   5.027   2.282  2.3702 -1.4982  1.2705
16741TIP3   OH271713   5.126   2.397  15.673  0.2527  0.8427  0.2048
16741TIP3    H171714   5.137   2.304  15.657  1.0727  0.9677 -0.0185
16741TIP3    H271715   5.147   2.439  15.590 -0.3881  1.2178  0.2188
16742TIP3   OH271716   1.389   1.588  12.655  0.1984  0.4118 -0.0304
16742TIP3    H171717   1.325   1.582  12.584  0.0224  1.0353  0.0659
16742TIP3    H271718   1.456   1.648  12.622 -0.6429  1.9158  0.8714
16743TIP3   OH271719   4.655   3.019  14.301  0.3190 -0.3853  0.2262
16743TIP3    H171720   4.670   2.938  14.351 -1.3673 -1.2952 -0.6837
16743TIP3    H271721   4.684   2.998  14.212  0.2114  0.1317  0.0680
16744TIP3   OH271722   0.203   5.547  16.659 -0.6381  0.1048  0.1126
16744TIP3    H171723   0.119   5.539  16.706 -1.1050  1.1892 -0.4907
16744TIP3    H271724   0.178   5.580  16.573  0.2514 -1.4650 -0.7787
16745TIP3   OH271725   5.303   5.284  13.598  0.1873  0.1204 -0.3697
16745TIP3    H171726   5.364   5.334  13.652  1.3813 -0.3845 -1.2231
16745TIP3    H271727   5.332   5.194  13.606  0.4642  0.0452 -1.9363
16746TIP3   OH271728   1.018   5.659  11.391 -0.3180 -0.4258 -0.3546
16746TIP3    H171729   1.069   5.715  11.449 -0.9262  0.1016 -0.3201
16746TIP3    H271730   1.068   5.577  11.386  0.4858  0.0588 -0.2705
16747TIP3   OH271731   1.856   0.126  16.678  0.6565  0.7382  0.0900
16747TIP3    H171732   1.855   0.195  16.613  2.7979  0.7223 -0.0155
16747TIP3    H271733   1.899   0.052  16.635 -0.2766 -0.1783  0.6741
16748TIP3   OH271734   5.583   4.587   3.181 -0.7071 -0.4892 -0.5716
16748TIP3    H171735   5.516   4.612   3.245 -2.7227 -0.9621 -2.4047
16748TIP3    H271736   5.616   4.503   3.212 -1.1270 -0.3684  0.2297
16749TIP3   OH271737   6.481   4.720   1.054  0.4236  0.4771  0.1914
16749TIP3    H171738   6.434   4.650   1.101 -1.1279  1.5876  0.3713
16749TIP3    H271739   6.568   4.684   1.040 -0.6027 -1.9444 -0.6657
16750TIP3   OH271740   5.181   0.626   4.228 -0.5539 -0.0113  0.1396
16750TIP3    H171741   5.146   0.584   4.150 -0.9616  1.0455 -0.2761
16750TIP3    H271742   5.104   0.664   4.271 -0.2265  0.1381  0.6029
16751TIP3   OH271743   4.664   2.319   5.044  0.2790  0.1808 -0.5756
16751TIP3    H171744   4.758   2.336   5.035  0.9056 -1.2538  2.2568
16751TIP3    H271745   4.655   2.224   5.032 -0.2606 -0.1927  2.1313
16752TIP3   OH271746   2.989   5.073   0.251 -0.6749  0.5108 -0.5288
16752TIP3    H171747   2.909   5.102   0.294 -0.6330 -2.0495  1.5417
16752TIP3    H271748   2.959   5.035   0.168 -1.8762 -1.5102  0.7383
16753TIP3   OH271749   1.120   6.256   0.538 -0.0128 -0.1627  0.2076
16753TIP3    H171750   1.176   6.325   0.574 -0.1313  0.5867 -0.9730
16753TIP3    H271751   1.041   6.302   0.510  0.1239 -0.6783 -1.0868
16754TIP3   OH271752   3.937   5.205  13.755 -0.6880 -0.3902  0.2101
16754TIP3    H171753   3.855   5.184  13.710 -0.1060 -0.9852 -0.6020
16754TIP3    H271754   4.005   5.158  13.705  0.2182  0.5641  0.5029
16755TIP3   OH271755   5.681   4.406   3.985 -0.3981  0.5131  0.1368
16755TIP3    H171756   5.638   4.454   3.914  2.2818 -0.1681 -2.1298
16755TIP3    H271757   5.658   4.314   3.969 -2.1068  0.5678  1.9545
16756TIP3   OH271758   5.861   1.911   3.017  0.5996  0.3193 -0.1083
16756TIP3    H171759   5.867   2.003   2.991  0.6751 -0.1725 -2.0050
16756TIP3    H271760   5.804   1.871   2.951  0.2558 -0.9283  0.9015
16757TIP3   OH271761   1.872   4.267  16.317  0.1107  0.0727 -0.5869
16757TIP3    H171762   1.899   4.185  16.359 -0.3774 -0.7604 -1.8416
16757TIP3    H271763   1.888   4.334  16.383  2.1228 -0.7966 -0.1155
16758TIP3   OH271764   5.890   6.019   4.415  0.1143 -0.0304  0.1101
16758TIP3    H171765   5.798   6.036   4.433 -0.2063 -0.4596 -1.0200
16758TIP3    H271766   5.891   5.990   4.324  1.6061  1.8706 -0.5339
16759TIP3   OH271767   3.730   0.535   4.430  0.0103  0.1875  0.4174
16759TIP3    H171768   3.643   0.503   4.406 -0.3943  0.9281  0.8635
16759TIP3    H271769   3.747   0.606   4.369  0.2395  0.1458  0.4316
16760TIP3   OH271770   3.861   6.321   3.111  0.2994  0.0968  0.1633
16760TIP3    H171771   3.770   6.350   3.111  0.7498  1.6020 -0.3139
16760TIP3    H271772   3.862   6.245   3.053 -0.8033 -0.5041  0.9064
16761TIP3   OH271773   4.292   3.423   0.564  0.1065  0.0470 -0.0330
16761TIP3    H171774   4.295   3.421   0.659  1.1828  3.2553  0.1021
16761TIP3    H271775   4.334   3.341   0.537  0.8097 -0.4023  2.2284
16762TIP3   OH271776   0.343   6.044   5.387 -0.1770 -0.0172 -0.4845
16762TIP3    H171777   0.407   6.025   5.319 -2.1277  0.3519 -2.5215
16762TIP3    H271778   0.394   6.089   5.455  1.5557  1.1205 -2.4179
16763TIP3   OH271779   1.654   3.454   2.408  0.4469  0.1292 -0.2311
16763TIP3    H171780   1.743   3.462   2.374 -0.0121 -1.7484 -2.0942
16763TIP3    H271781   1.615   3.540   2.396  2.3031  1.3460  1.7364
16764TIP3   OH271782   1.718   3.579  10.730  0.3341 -0.2536 -0.3566
16764TIP3    H171783   1.677   3.554  10.647  3.0159 -2.2961 -1.2111
16764TIP3    H271784   1.784   3.644  10.705  0.9360 -0.6392  0.1984
16765TIP3   OH271785   0.277   3.727  14.557 -0.1583 -0.6606 -0.3657
16765TIP3    H171786   0.340   3.680  14.611 -0.2217 -0.6887 -0.3152
16765TIP3    H271787   0.329   3.767  14.487 -0.2171 -1.5837 -0.9581
16766TIP3   OH271788   4.546   0.659   1.214  0.1403 -0.9720  0.5258
16766TIP3    H171789   4.580   0.597   1.150 -0.3187 -0.8277  0.1307
16766TIP3    H271790   4.616   0.669   1.278  0.8475 -0.6773 -0.2702
16767TIP3   OH271791   4.766   4.307   4.399  0.5646 -0.2702 -0.5210
16767TIP3    H171792   4.814   4.323   4.480 -1.7365 -0.0381  0.9083
16767TIP3    H271793   4.740   4.394   4.368 -0.3033 -0.4537 -0.3434
16768TIP3   OH271794   4.132   1.880  15.921  0.3701 -0.2722 -0.3802
16768TIP3    H171795   4.193   1.807  15.914  1.1120  0.2572  0.2481
16768TIP3    H271796   4.075   1.857  15.994  1.0644  0.0722  0.2946
16769TIP3   OH271797   5.038   4.213  13.036 -0.7010 -0.0033 -0.4945
16769TIP3    H171798   5.080   4.195  13.120  0.9737  0.4060 -1.2003
16769TIP3    H271799   5.080   4.153  12.975  0.1969  1.6610 -1.5792
16770TIP3   OH271800   3.239   2.359   0.059 -0.2534  0.3775  0.0736
16770TIP3    H171801   3.239   2.340  -0.034  2.0186  0.6470 -0.0240
16770TIP3    H271802   3.292   2.438   0.068 -1.2215  0.9068  1.5062
16771TIP3   OH271803   4.161   0.883   1.534  0.5788  0.1524  0.3667
16771TIP3    H171804   4.159   0.855   1.625 -0.5992  3.6745  1.6236
16771TIP3    H271805   4.252   0.909   1.519  1.0878 -1.7393  0.0248
16772TIP3   OH271806   3.096   1.551  11.421  0.5123  0.0265  0.0957
16772TIP3    H171807   3.074   1.458  11.429  2.8486 -0.5403  0.8716
16772TIP3    H271808   3.131   1.575  11.507  0.8631  1.3608 -0.3914
16773TIP3   OH271809   5.535   4.827   4.707 -0.0553 -0.1492 -0.4734
16773TIP3    H171810   5.504   4.895   4.767  1.2855 -0.2439  0.3613
16773TIP3    H271811   5.630   4.829   4.715  0.0642 -1.4096 -1.2381
16774TIP3   OH271812   2.507   0.930  12.396 -0.1201 -0.2572 -0.2664
16774TIP3    H171813   2.507   1.025  12.385 -2.9473 -0.2320 -0.7938
16774TIP3    H271814   2.521   0.895  12.308 -1.0066 -0.2642 -0.4206
16775TIP3   OH271815   1.262   4.893   2.330 -0.5952  0.1914 -0.2642
16775TIP3    H171816   1.219   4.935   2.256 -0.0411  0.8149 -0.2429
16775TIP3    H271817   1.301   4.813   2.293 -0.7878  0.2145 -0.5226
16776TIP3   OH271818   3.654   4.423  10.597  0.0644 -0.3678 -0.5868
16776TIP3    H171819   3.705   4.347  10.624 -0.6789 -0.7771 -0.3121
16776TIP3    H271820   3.719   4.485  10.563  0.7719 -0.7403  0.0663
16777TIP3   OH271821   6.259   3.786  15.583  0.1616 -0.0202  0.0077
16777TIP3    H171822   6.223   3.698  15.566  2.7105 -1.1822  0.1935
16777TIP3    H271823   6.196   3.826  15.642 -1.6042 -1.3144 -0.8939
16778TIP3   OH271824   5.729   1.744   0.116 -0.0024  0.0875 -0.2144
16778TIP3    H171825   5.633   1.743   0.109  0.0077 -2.3330 -0.6602
16778TIP3    H271826   5.760   1.739   0.025  0.7203  4.1657 -0.4131
16779TIP3   OH271827   3.592   6.182   5.240  0.0436 -0.4840  0.2715
16779TIP3    H171828   3.545   6.264   5.223  1.0231 -0.4759 -3.4166
16779TIP3    H271829   3.640   6.198   5.321 -1.7694  1.5962  1.0464
16780TIP3   OH271830   4.772   0.136  13.129  0.5111 -0.6766  0.3496
16780TIP3    H171831   4.696   0.189  13.103  1.7912  1.3394  0.5263
16780TIP3    H271832   4.766   0.058  13.074 -0.2793  0.6187 -1.5244
16781TIP3   OH271833   5.514   2.566   3.881  0.7981  0.1854 -0.1836
16781TIP3    H171834   5.499   2.593   3.791  1.4513  0.0509 -0.3407
16781TIP3    H271835   5.485   2.641   3.934  1.4769  0.7253 -0.5615
16782TIP3   OH271836   6.649   3.782  17.114 -0.1042 -0.5405 -0.1132
16782TIP3    H171837   6.669   3.854  17.054 -1.4675 -0.5999 -0.6739
16782TIP3    H271838   6.733   3.739  17.129  0.4452  0.1546 -1.0863
16783TIP3   OH271839   0.884   2.203  14.062 -0.3968  0.0328  0.0240
16783TIP3    H171840   0.891   2.276  14.000  0.7771 -0.5543 -0.5736
16783TIP3    H271841   0.960   2.212  14.119 -0.4273 -0.5329  0.1615
16784TIP3   OH271842   5.225   1.891  15.890 -0.0753 -0.0817  0.2844
16784TIP3    H171843   5.156   1.873  15.953 -1.9844 -0.8070 -1.8804
16784TIP3    H271844   5.243   1.807  15.849  0.9119  0.4053 -0.3306
16785TIP3   OH271845   4.369   1.731   6.480 -0.1478  0.5068  0.0526
16785TIP3    H171846   4.418   1.674   6.421 -0.7463  1.1099 -1.0519
16785TIP3    H271847   4.311   1.671   6.527 -0.2756  0.1190 -0.5836
16786TIP3   OH271848   1.461   2.240   1.147 -0.4818  0.3786 -0.4351
16786TIP3    H171849   1.452   2.156   1.103 -0.0558 -0.7956  1.6070
16786TIP3    H271850   1.377   2.284   1.134 -1.2636 -1.0185 -0.2333
16787TIP3   OH271851   3.798   0.968   5.544 -0.7006 -0.5931 -0.0652
16787TIP3    H171852   3.757   0.977   5.630  1.0847 -1.6298  0.9532
16787TIP3    H271853   3.793   0.874   5.525 -1.2265 -0.3477 -1.1788
16788TIP3   OH271854   0.472   1.456   2.636  0.7008  0.0041  0.3233
16788TIP3    H171855   0.530   1.389   2.600  0.8600 -0.8641  2.1112
16788TIP3    H271856   0.402   1.407   2.680 -0.4806  1.0295 -0.3199
16789TIP3   OH271857   0.198   1.165  12.434  0.3948 -0.1010 -0.7640
16789TIP3    H171858   0.121   1.122  12.472  0.6168  1.1604  1.2373
16789TIP3    H271859   0.273   1.120  12.474  0.6997 -0.2922 -1.5250
16790TIP3   OH271860   1.553   3.921   4.721  0.2161 -0.4203 -0.3540
16790TIP3    H171861   1.617   3.857   4.691  0.0506 -0.6487 -0.2277
16790TIP3    H271862   1.597   3.969   4.791 -0.2472 -1.5797  0.7620
16791TIP3   OH271863   3.466   1.760  15.070  0.5810 -0.1259  0.0811
16791TIP3    H171864   3.503   1.832  15.019 -1.3915  1.0752  0.2264
16791TIP3    H271865   3.411   1.713  15.007 -1.1345  0.8162  0.8167
16792TIP3   OH271866   5.046   4.618   4.953  0.2404 -0.9428  0.3568
16792TIP3    H171867   5.088   4.699   4.981  1.0749 -1.5183  0.7929
16792TIP3    H271868   4.968   4.647   4.905  1.2641  0.1404 -0.6932
16793TIP3   OH271869   1.101   6.357  14.976  0.3764  0.1448  0.0399
16793TIP3    H171870   1.127   6.449  14.979  3.1041 -0.5021 -0.8632
16793TIP3    H271871   1.049   6.349  14.896 -0.4818  1.0088  0.4937
16794TIP3   OH271872   5.837   0.291   2.863 -0.6713  0.0178 -0.2037
16794TIP3    H171873   5.880   0.225   2.917  1.9784  0.1968 -1.8812
16794TIP3    H271874   5.759   0.247   2.828  0.4729 -1.9235 -0.4745
16795TIP3   OH271875   0.167   6.660   2.274  0.6608  0.2731 -0.6708
16795TIP3    H171876   0.160   6.569   2.245 -0.3889 -0.0159  0.4241
16795TIP3    H271877   0.129   6.660   2.362  1.7619  1.5382 -0.1586
16796TIP3   OH271878   2.518   0.785   0.705 -0.5190 -0.2993  0.0791
16796TIP3    H171879   2.598   0.812   0.750 -1.4778  1.0489  1.0374
16796TIP3    H271880   2.509   0.692   0.728  0.1585 -0.1777  0.9026
16797TIP3   OH271881   5.234   0.797  16.881  0.1100 -0.2819 -0.0093
16797TIP3    H171882   5.205   0.831  16.797 -1.3436 -0.0724  0.5469
16797TIP3    H271883   5.238   0.875  16.937 -0.2392 -0.5921  0.4561
16798TIP3   OH271884   1.154   5.525   1.879 -0.4238  0.3357  0.0857
16798TIP3    H171885   1.178   5.617   1.888 -1.1831  0.3465  3.3407
16798TIP3    H271886   1.225   5.477   1.922 -0.3943 -0.5751 -0.9294
16799TIP3   OH271887   5.951   4.146   3.202  0.0944 -0.3322  0.8060
16799TIP3    H171888   5.997   4.163   3.284  0.3933  5.4516 -0.1950
16799TIP3    H271889   6.015   4.169   3.134 -1.6155 -0.5061 -0.9370
16800TIP3   OH271890   4.411   1.750   1.227  0.8275 -0.0108 -0.0916
16800TIP3    H171891   4.380   1.661   1.210  1.8293 -0.0601 -1.9315
16800TIP3    H271892   4.366   1.776   1.308 -0.9615 -1.4561 -0.5574
16801TIP3   OH271893   0.017   3.801  16.686 -0.0157  0.1574 -0.4683
16801TIP3    H171894   0.004   3.708  16.673  0.4754 -0.1384  0.9911
16801TIP3    H271895  -0.067   3.833  16.721  0.3891 -0.1237  0.8250
16802TIP3   OH271896   1.289   2.130  14.031 -0.0638 -0.2874 -0.1457
16802TIP3    H171897   1.300   2.035  14.028 -0.4306 -0.3929  1.1322
16802TIP3    H271898   1.194   2.144  14.030 -0.0048  0.1117 -1.0728
16803TIP3   OH271899   3.156   1.369   5.854 -0.6071 -0.2602 -0.0335
16803TIP3    H171900   3.167   1.317   5.774 -0.4429  1.0190 -0.8715
16803TIP3    H271901   3.244   1.379   5.888 -0.6915 -0.9183  0.3966
16804TIP3   OH271902   5.443   1.946   4.430 -0.2450  0.5536 -0.4404
16804TIP3    H171903   5.404   2.032   4.414 -0.6344  0.3956 -0.3616
16804TIP3    H271904   5.536   1.957   4.411 -0.5395  0.5776 -2.0663
16805TIP3   OH271905   3.503   1.941  15.765  0.0672  0.6255  0.3399
16805TIP3    H171906   3.577   1.905  15.814  0.2701 -1.6549 -1.4568
16805TIP3    H271907   3.426   1.913  15.813  0.3056 -0.0321  0.3463
16806TIP3   OH271908   5.009   5.362   4.082 -0.8686  0.0719 -0.1161
16806TIP3    H171909   5.040   5.452   4.096 -0.0448  0.0604 -1.6422
16806TIP3    H271910   5.000   5.355   3.986 -1.4367 -1.3112  0.0216
16807TIP3   OH271911   2.909   4.765  14.667 -0.3033  0.4442  0.0573
16807TIP3    H171912   2.873   4.719  14.591 -0.6037  0.2054  0.3388
16807TIP3    H271913   2.954   4.697  14.716  0.4350  0.7186 -0.2272
16808TIP3   OH271914   3.249   2.958   2.114  0.4190 -0.2542  0.0980
16808TIP3    H171915   3.301   3.002   2.181  1.5773 -1.9011  0.3534
16808TIP3    H271916   3.286   2.870   2.109 -1.6407 -1.1516 -0.5251
16809TIP3   OH271917   2.029   1.103  15.465 -0.2407 -0.5631 -0.4150
16809TIP3    H171918   1.935   1.110  15.481 -0.2409 -1.7990  0.2708
16809TIP3    H271919   2.056   1.026  15.515  1.2641  0.1570 -0.0738
16810TIP3   OH271920   1.111   6.832  10.574  0.1150 -0.4209  0.0813
16810TIP3    H171921   1.162   6.832  10.493 -0.7896 -1.6890 -0.5259
16810TIP3    H271922   1.030   6.786  10.551 -0.4191 -0.2602  1.5471
16811TIP3   OH271923   1.903   4.671   3.362 -0.8421 -0.5132  0.1456
16811TIP3    H171924   1.820   4.625   3.375 -0.4504 -0.8888  1.5013
16811TIP3    H271925   1.881   4.745   3.305 -1.9182 -1.1173 -0.2548
16812TIP3   OH271926   6.606   0.502  16.726  0.2405  0.0399  0.1651
16812TIP3    H171927   6.512   0.502  16.745  0.2344 -0.7389  0.1713
16812TIP3    H271928   6.612   0.483  16.633  0.4109 -0.4987  0.2846
16813TIP3   OH271929   6.038   5.487   2.634  0.0677  0.2721  0.3077
16813TIP3    H171930   6.033   5.394   2.611  1.4841  0.1246  0.4770
16813TIP3    H271931   6.106   5.522   2.576 -0.8376  1.3442 -0.1350
16814TIP3   OH271932   1.557   3.407  10.896 -0.2594 -0.4898  0.0852
16814TIP3    H171933   1.615   3.333  10.883  0.6340  0.4581 -1.5602
16814TIP3    H271934   1.602   3.481  10.855 -1.5194  0.7892  0.9130
16815TIP3   OH271935   4.997   1.549  16.096  0.1813  0.3411 -0.3393
16815TIP3    H171936   5.038   1.511  16.174  3.1930  2.6309 -0.5831
16815TIP3    H271937   4.926   1.489  16.074  0.7803 -1.7267  2.6846
16816TIP3   OH271938   0.263   0.475  14.429 -0.7137 -0.6562  0.3583
16816TIP3    H171939   0.200   0.404  14.417 -1.7118  0.3997 -1.0157
16816TIP3    H271940   0.215   0.554  14.405  0.5915  0.4146  1.1104
16817TIP3   OH271941   2.104   1.524  13.775 -0.0950  0.9868  0.5443
16817TIP3    H171942   2.181   1.497  13.825 -1.8794 -0.2883  2.8123
16817TIP3    H271943   2.112   1.619  13.767  1.5435  0.9074  0.9614
16818TIP3   OH271944   1.119   0.805   1.428 -0.8030 -0.1422  0.1164
16818TIP3    H171945   1.212   0.784   1.421 -1.1729 -1.7328 -0.4611
16818TIP3    H271946   1.085   0.742   1.491 -0.8240  2.9399  3.5515
16819TIP3   OH271947   0.830   2.244   5.557 -0.0297 -0.6223 -0.1675
16819TIP3    H171948   0.761   2.179   5.547  0.8341 -1.3821 -1.4530
16819TIP3    H271949   0.817   2.305   5.484  0.2996 -0.4289 -0.0664
16820TIP3   OH271950   2.396   1.936   5.094 -0.2929 -0.0041  0.5752
16820TIP3    H171951   2.441   1.864   5.050 -0.1199 -0.1522  0.9841
16820TIP3    H271952   2.355   1.896   5.171  0.3806  0.4492  1.1858
16821TIP3   OH271953   1.628   3.303   4.185  0.2678 -0.1087 -0.5269
16821TIP3    H171954   1.723   3.311   4.180  0.2418 -0.2987 -1.5139
16821TIP3    H271955   1.602   3.371   4.247  0.9755  0.5274 -0.9079
16822TIP3   OH271956   6.798   3.156   0.211 -0.3850  0.1399 -0.0345
16822TIP3    H171957   6.715   3.146   0.165  0.9603  0.4707 -2.7207
16822TIP3    H271958   6.843   3.226   0.164  1.6388 -0.4025  0.9973
16823TIP3   OH271959   6.761   1.243   0.498  0.1944 -0.5869 -0.1432
16823TIP3    H171960   6.731   1.288   0.577  0.4164 -0.0869 -0.3407
16823TIP3    H271961   6.681   1.213   0.455  0.0080  0.1682 -0.3319
16824TIP3   OH271962   1.445   4.061   3.510 -0.7907 -0.0751  0.4659
16824TIP3    H171963   1.497   4.095   3.437  0.2735 -0.6259  0.9587
16824TIP3    H271964   1.398   3.986   3.472  0.8092 -1.2266  0.6435
16825TIP3   OH271965   4.053   2.281  11.917 -0.2491 -0.4599 -0.4499
16825TIP3    H171966   4.095   2.363  11.890  1.1679 -0.0704  2.4585
16825TIP3    H271967   4.123   2.216  11.912 -0.5446 -0.8260  0.1257
16826TIP3   OH271968   6.289   5.974   2.275 -0.4011  0.0026  0.2604
16826TIP3    H171969   6.215   5.974   2.214 -1.1518  0.6116  1.1416
16826TIP3    H271970   6.349   6.041   2.240  0.6154 -1.6910 -1.4331
16827TIP3   OH271971   4.588   0.498   4.289 -0.3475 -0.0765  0.0294
16827TIP3    H171972   4.496   0.515   4.306 -0.4223 -2.5950  3.1055
16827TIP3    H271973   4.635   0.560   4.346 -0.1737  0.3863 -0.6152
16828TIP3   OH271974   1.477   6.706  12.445 -0.2456 -0.3539  0.1956
16828TIP3    H171975   1.514   6.641  12.386 -0.7100  0.3953 -0.9540
16828TIP3    H271976   1.550   6.735  12.499  0.1775 -1.0730  0.0212
16829TIP3   OH271977   4.722   6.367   1.689  0.5391 -0.3473  0.4238
16829TIP3    H171978   4.632   6.389   1.662  0.2486 -0.1727  1.4825
16829TIP3    H271979   4.769   6.450   1.682  0.8142 -0.5860 -0.8144
16830TIP3   OH271980   0.827   4.562  14.305  0.4096  0.1858 -0.3966
16830TIP3    H171981   0.753   4.599  14.258 -2.5726 -1.6422  2.4384
16830TIP3    H271982   0.873   4.509  14.239 -1.7165  0.1125 -1.9255
16831TIP3   OH271983   2.663   5.254  13.565 -0.7651  0.2012  0.9740
16831TIP3    H171984   2.669   5.160  13.586 -2.7047 -0.4129 -0.8204
16831TIP3    H271985   2.717   5.264  13.487  0.0041  0.7616  1.5622
16832TIP3   OH271986   3.179   3.456  11.921  0.0518 -0.5900 -0.0480
16832TIP3    H171987   3.246   3.476  11.855  1.3422  0.8437  1.5723
16832TIP3    H271988   3.189   3.526  11.986 -0.0813 -2.7376  2.4501
16833TIP3   OH271989   3.173   4.393   3.184  0.0046  0.0610  0.5164
16833TIP3    H171990   3.264   4.365   3.171 -0.6278 -0.8093 -3.0975
16833TIP3    H271991   3.122   4.313   3.176 -1.1690  0.6024  2.1411
16834TIP3   OH271992   2.907   1.955   0.566  0.2334 -0.1819 -0.2632
16834TIP3    H171993   2.847   1.881   0.579 -0.1744  0.2383  0.3180
16834TIP3    H271994   2.864   2.028   0.609  1.7652 -0.1626  1.3863
16835TIP3   OH271995   2.476   5.402  13.707  0.1898  0.2133 -0.3995
16835TIP3    H171996   2.527   5.329  13.669  1.4566  1.1936 -0.6597
16835TIP3    H271997   2.400   5.360  13.746  1.8858 -1.5286  1.2822
16836TIP3   OH271998   3.396   2.567  12.971 -0.1758  0.3554  0.0131
16836TIP3    H171999   3.341   2.498  12.933 -0.0483 -0.8758  1.8989
16836TIP3    H272000   3.344   2.600  13.045  1.6270 -0.9985  1.9899
16837TIP3   OH272001   2.117   2.355  14.709 -0.1816 -0.0182 -0.7942
16837TIP3    H172002   2.158   2.269  14.719 -1.7173 -1.1032 -2.8896
16837TIP3    H272003   2.170   2.414  14.762  0.6688 -2.3280  1.0764
16838TIP3   OH272004   3.465   1.545   5.024 -0.1458  0.2565 -0.0119
16838TIP3    H172005   3.455   1.476   5.089  1.1881  2.1008  2.3352
16838TIP3    H272006   3.543   1.521   4.975  0.7330  0.3706  1.2679
16839TIP3   OH272007   1.420   4.903   3.196 -0.0476 -0.1487 -0.4820
16839TIP3    H172008   1.512   4.919   3.213  0.1793 -0.8244 -1.0012
16839TIP3    H272009   1.373   4.968   3.249  0.7612  1.5025 -1.7125
16840TIP3   OH272010   6.840   0.512   2.402  0.0345 -0.2795 -0.4260
16840TIP3    H172011   6.911   0.526   2.465 -0.3054  0.6940 -0.2314
16840TIP3    H272012   6.807   0.425   2.421  0.7331 -0.4675 -0.0629
16841TIP3   OH272013   3.226   4.675   5.863 -0.5620  0.5580  0.2776
16841TIP3    H172014   3.156   4.653   5.925 -1.3093 -2.3771 -1.4374
16841TIP3    H272015   3.273   4.593   5.849  1.5362  1.8357 -0.7487
16842TIP3   OH272016   5.228   4.019   6.158 -0.1925  0.8018  0.1654
16842TIP3    H172017   5.291   4.040   6.226 -0.4255  1.4806  0.1717
16842TIP3    H272018   5.272   3.952   6.105  0.5002  1.2020  0.2228
16843TIP3   OH272019   3.022   3.086   2.387  0.5423  0.0494  0.3365
16843TIP3    H172020   3.005   3.087   2.293 -0.0203 -0.1898  0.4295
16843TIP3    H272021   2.986   3.169   2.418 -0.2598 -0.3457  0.4957
16844TIP3   OH272022   1.370   5.497  16.785 -0.8503  0.0763  0.2350
16844TIP3    H172023   1.395   5.495  16.878 -1.0100 -0.9959  0.2679
16844TIP3    H272024   1.398   5.583  16.755  1.2775 -0.3911  0.7142
16845TIP3   OH272025   2.095   0.293   1.142 -0.1119  0.5682  0.0960
16845TIP3    H172026   2.093   0.377   1.188  1.2462 -0.3329  1.9638
16845TIP3    H272027   2.072   0.229   1.210  0.0981 -0.6699 -0.9665
16846TIP3   OH272028   1.789   2.184   3.227 -0.1876 -0.4405 -0.1532
16846TIP3    H172029   1.736   2.152   3.301 -1.2667 -0.7591 -1.0345
16846TIP3    H272030   1.806   2.276   3.248  0.2207 -0.7258  0.8704
16847TIP3   OH272031   1.847   1.830   0.813  0.2951  0.0056 -0.3779
16847TIP3    H172032   1.916   1.764   0.808  0.1821 -0.0981 -0.5912
16847TIP3    H272033   1.797   1.807   0.891 -0.7303 -1.1419 -1.3238
16848TIP3   OH272034   3.971   3.259   2.611  0.0367  0.5300 -0.5885
16848TIP3    H172035   3.928   3.298   2.536  0.2785  3.0725  0.4786
16848TIP3    H272036   3.909   3.269   2.683  0.3747 -0.5550 -0.1144
16849TIP3   OH272037   3.170   2.000   0.911  0.6917  0.4225  0.5805
16849TIP3    H172038   3.209   2.074   0.958  2.2325 -0.5417  0.8887
16849TIP3    H272039   3.172   2.027   0.819  2.5596  0.2647  0.5195
16850TIP3   OH272040   1.957   6.289  14.432  0.6022 -0.1967 -0.3047
16850TIP3    H172041   1.946   6.194  14.432 -4.6335  0.1121 -0.5696
16850TIP3    H272042   1.936   6.315  14.521  0.6441  0.8007 -0.5800
16851TIP3   OH272043   0.874   5.500   5.154  0.3208  0.6758 -0.0815
16851TIP3    H172044   0.926   5.569   5.197 -0.2569  0.7944  0.4485
16851TIP3    H272045   0.894   5.421   5.204 -1.3669  1.0626  1.3173
16852TIP3   OH272046   5.576   3.777   2.074 -0.1000 -0.6229 -0.4765
16852TIP3    H172047   5.510   3.744   2.134 -0.7789  1.6326  0.0769
16852TIP3    H272048   5.549   3.743   1.988 -1.7841 -0.0349 -0.2044
16853TIP3   OH272049   5.700   3.483   0.983  0.0447  0.1548 -0.5118
16853TIP3    H172050   5.659   3.526   0.908  1.0132  0.1913 -1.0311
16853TIP3    H272051   5.721   3.395   0.951  0.6941  0.2529 -0.3611
16854TIP3   OH272052   3.885   5.435   4.184 -0.1399 -0.1854 -0.2735
16854TIP3    H172053   3.799   5.421   4.143  0.4596 -1.1084 -1.2858
16854TIP3    H272054   3.883   5.380   4.262  0.3028 -2.0248 -1.4844
16855TIP3   OH272055   6.696   5.649   0.417 -0.4894  0.0906  0.0855
16855TIP3    H172056   6.672   5.666   0.326 -0.9671 -3.6918 -0.6771
16855TIP3    H272057   6.733   5.561   0.415  0.2994  0.2378  3.4591
16856TIP3   OH272058   0.293   1.136   3.223 -0.2753 -0.1155  0.0094
16856TIP3    H172059   0.212   1.122   3.271 -0.5230 -0.8769 -0.6166
16856TIP3    H272060   0.337   1.050   3.224 -0.0659 -0.0244 -0.7208
16857TIP3   OH272061   1.042   5.062  14.431 -0.4497 -0.0310  0.1361
16857TIP3    H172062   1.032   4.980  14.382  0.4671 -0.5698  0.8122
16857TIP3    H272063   1.023   5.131  14.368 -1.7670 -0.7685 -0.3120
16858TIP3   OH272064   1.832   6.686   1.010 -0.2135 -0.1150 -0.0415
16858TIP3    H172065   1.887   6.613   1.038  1.0275  1.4359  1.7804
16858TIP3    H272066   1.777   6.704   1.086 -0.8673  0.5397 -0.6607
16859TIP3   OH272067   1.697   0.496   2.417  0.2859  0.1383 -0.2603
16859TIP3    H172068   1.704   0.402   2.429  1.9018 -0.0973 -2.2855
16859TIP3    H272069   1.626   0.507   2.354  1.5702  0.0083 -1.8024
16860TIP3   OH272070   0.904   5.872  12.167 -0.3137  0.2250 -0.1448
16860TIP3    H172071   0.818   5.875  12.210 -0.1377 -1.0057  0.3528
16860TIP3    H272072   0.894   5.806  12.099  0.0997  0.4337 -0.4078
16861TIP3   OH272073   5.898   5.267  12.777 -0.5865 -0.3254 -0.5699
16861TIP3    H172074   5.964   5.199  12.788 -0.9092 -0.5128  0.2627
16861TIP3    H272075   5.931   5.341  12.829 -1.2390 -0.5811  0.2369
16862TIP3   OH272076   6.094   4.360  11.508  0.0597 -0.8069  0.4256
16862TIP3    H172077   6.064   4.277  11.544 -1.7813  0.7657  2.7686
16862TIP3    H272078   6.024   4.388  11.449 -0.7049  0.3628  1.8243
16863TIP3   OH272079   0.509   1.124   5.624  0.1333  0.2808  0.4209
16863TIP3    H172080   0.519   1.029   5.621 -0.0836  0.2779 -1.2115
16863TIP3    H272081   0.546   1.154   5.541 -0.1317  1.5931  0.7616
16864TIP3   OH272082   1.729   5.637  11.173  0.1399  0.1196  0.2238
16864TIP3    H172083   1.816   5.632  11.133  0.6926 -0.3954  1.4577
16864TIP3    H272084   1.708   5.730  11.174  0.3749  0.1935 -0.6868
16865TIP3   OH272085   1.476   4.932  12.431 -0.5883 -0.3203  0.0311
16865TIP3    H172086   1.566   4.898  12.423  1.3712  3.4259  2.9399
16865TIP3    H272087   1.440   4.924  12.344  2.8196 -1.4925 -1.4533
16866TIP3   OH272088   4.955   4.820   3.771 -0.0821  0.1765 -0.8748
16866TIP3    H172089   4.874   4.809   3.722 -0.5669  3.2582 -0.9641
16866TIP3    H272090   4.931   4.875   3.846  1.4822 -0.9060  0.4962
16867TIP3   OH272091   3.891   1.598   5.274 -0.1598  0.8896  0.1084
16867TIP3    H172092   3.945   1.521   5.296  2.8114  2.0624 -2.2162
16867TIP3    H272093   3.930   1.669   5.324 -2.0338  1.1680  1.2223
16868TIP3   OH272094   2.302   0.662   4.485  0.1882 -0.5037  0.8969
16868TIP3    H172095   2.314   0.753   4.509 -1.6865  0.5538 -1.7359
16868TIP3    H272096   2.330   0.656   4.394  0.9579 -2.7686  1.2042
16869TIP3   OH272097   5.966   2.242   0.370  0.5961  0.3239  0.4518
16869TIP3    H172098   5.940   2.177   0.305 -0.4409  0.1085  1.0613
16869TIP3    H272099   6.045   2.282   0.334 -0.9105  1.4928 -1.8449
16870TIP3   OH272100   1.550   2.989   2.665 -0.6284 -0.4273 -0.2760
16870TIP3    H172101   1.585   3.046   2.596 -0.3904  0.0559  0.2357
16870TIP3    H272102   1.595   2.906   2.653  0.1361 -0.0435 -0.0980
16871TIP3   OH272103   4.472   0.695  11.549 -0.2974  0.2491 -0.0199
16871TIP3    H172104   4.479   0.613  11.598 -1.3878  1.4526  2.3651
16871TIP3    H272105   4.378   0.714  11.548 -0.0211  1.7288 -0.0328
16872TIP3   OH272106   1.470   5.992   4.445 -0.3943  0.2302  0.3903
16872TIP3    H172107   1.456   5.904   4.411  0.6657  1.0299 -2.4002
16872TIP3    H272108   1.546   5.984   4.502 -0.0554 -0.6161 -0.1682
16873TIP3   OH272109   3.291   0.013   1.585  0.1165 -0.3704  0.1627
16873TIP3    H172110   3.220   0.046   1.530  1.1590  1.9141  0.1013
16873TIP3    H272111   3.263   0.031   1.675 -1.4468 -3.8265  0.5538
16874TIP3   OH272112   3.513   4.638   1.608 -0.3515 -0.1589 -0.0010
16874TIP3    H172113   3.543   4.588   1.684 -1.4627 -2.0190 -0.7121
16874TIP3    H272114   3.424   4.665   1.631 -0.9475 -1.3088 -0.8536
16875TIP3   OH272115   3.127   0.938  16.029  0.1634 -0.2939  0.1784
16875TIP3    H172116   3.039   0.907  16.051  0.3147 -0.7935  0.0942
16875TIP3    H272117   3.175   0.935  16.111  0.1271 -0.0999  0.2077
16876TIP3   OH272118   3.000   3.104   3.459  0.4201 -0.4853 -0.2118
16876TIP3    H172119   2.993   3.069   3.548 -0.6626  0.8621  0.2699
16876TIP3    H272120   3.068   3.171   3.465 -0.0067 -0.0417 -0.2708
16877TIP3   OH272121   1.263   1.149   0.372 -0.2355  0.1339 -0.5162
16877TIP3    H172122   1.331   1.117   0.431  2.8562  3.2869 -2.0017
16877TIP3    H272123   1.188   1.165   0.428  1.5299  0.1619  2.0209
16878TIP3   OH272124   5.653   4.108   0.719 -0.4282 -0.0155 -0.1409
16878TIP3    H172125   5.704   4.188   0.734 -0.3304 -0.3123  1.1936
16878TIP3    H272126   5.695   4.068   0.643  1.5407 -0.3949  1.0808
16879TIP3   OH272127   6.186   3.982   4.553 -1.0482 -0.2561 -0.0076
16879TIP3    H172128   6.138   4.064   4.547 -2.3886 -0.9160  1.0941
16879TIP3    H272129   6.272   4.001   4.515 -1.8482  1.2170 -1.1417
16880TIP3   OH272130   0.838   6.421  14.860  0.1429 -0.1579  0.4032
16880TIP3    H172131   0.780   6.472  14.803 -0.7240  0.0448  1.4388
16880TIP3    H272132   0.912   6.398  14.804 -0.9982 -0.5459 -1.0030
16881TIP3   OH272133   5.710   3.125  11.098 -0.0328  0.0655 -0.0056
16881TIP3    H172134   5.730   3.116  11.005 -0.8296 -1.0313 -0.0880
16881TIP3    H272135   5.710   3.036  11.132  1.3802  0.5339  1.3097
16882TIP3   OH272136   5.862   5.877  11.245  0.3255  0.0075 -0.3785
16882TIP3    H172137   5.826   5.821  11.177 -0.1927 -0.2860  0.1339
16882TIP3    H272138   5.809   5.859  11.322 -1.3836  2.8558 -0.7498
16883TIP3   OH272139   4.122   4.496  16.814 -0.3288  0.4174 -0.1760
16883TIP3    H172140   4.075   4.535  16.741  0.1634  1.1635 -0.0967
16883TIP3    H272141   4.064   4.425  16.844 -1.2304  1.0831 -0.3127
16884TIP3   OH272142   2.612   5.549   4.760  0.6912  0.7368  0.0385
16884TIP3    H172143   2.553   5.584   4.827 -0.0594 -0.6508  0.1325
16884TIP3    H272144   2.658   5.626   4.727  1.7027  1.4014  2.6985
16885TIP3   OH272145   2.138   4.379  12.445 -0.1731 -0.2693  0.0952
16885TIP3    H172146   2.083   4.426  12.507 -0.1053 -0.2134  0.1119
16885TIP3    H272147   2.117   4.416  12.360  0.1426  0.0402  0.1514
16886TIP3   OH272148   5.766   1.467  13.517  0.2911 -0.0079 -0.1672
16886TIP3    H172149   5.797   1.377  13.526 -1.8521 -0.7679  0.2584
16886TIP3    H272150   5.700   1.463  13.448 -2.0372  0.5438  1.8857
16887TIP3   OH272151   5.676   4.612   5.311 -0.6506  0.7094 -0.2631
16887TIP3    H172152   5.591   4.594   5.350  0.2100 -1.0351  0.9195
16887TIP3    H272153   5.669   4.582   5.221 -1.5539  1.4330 -0.4437
16888TIP3   OH272154   1.595   2.175   5.516 -0.4330  0.0511 -0.1539
16888TIP3    H172155   1.600   2.140   5.605 -0.5006  1.2011  0.3174
16888TIP3    H272156   1.511   2.145   5.483 -0.9675  0.6270  0.6295
16889TIP3   OH272157   6.480   2.186  15.688 -0.3454 -0.5158  0.7381
16889TIP3    H172158   6.458   2.165  15.598 -0.1851 -0.6307  0.7254
16889TIP3    H272159   6.400   2.224  15.725 -0.3960 -0.4257  0.5356
16890TIP3   OH272160   2.932   2.830   0.240  0.2368 -0.1549 -1.0447
16890TIP3    H172161   2.868   2.896   0.212  0.3907  0.8415  0.7970
16890TIP3    H272162   2.966   2.793   0.158  0.0081  1.9291 -2.1419
16891TIP3   OH272163   4.637   6.064   4.638 -0.1261 -0.0321  0.1730
16891TIP3    H172164   4.689   5.985   4.654 -2.3107 -1.6993 -0.5873
16891TIP3    H272165   4.586   6.076   4.718 -0.6831 -0.0905 -0.1728
16892TIP3   OH272166   4.042   4.468  12.941 -0.5456  0.3644 -0.4351
16892TIP3    H172167   3.955   4.508  12.942 -1.2589 -1.0034  2.3666
16892TIP3    H272168   4.089   4.513  13.012  0.1644 -0.6092 -0.2704
16893TIP3   OH272169   0.748   0.476  14.533 -0.2079 -0.2765 -0.2490
16893TIP3    H172170   0.681   0.417  14.568  1.1438 -3.0090 -1.9851
16893TIP3    H272171   0.703   0.526  14.465 -1.0518 -0.1659  0.3605
16894TIP3   OH272172   1.226   2.572  13.073  0.3016  0.0630 -0.2726
16894TIP3    H172173   1.215   2.657  13.032 -1.2416  0.0245  0.0319
16894TIP3    H272174   1.292   2.528  13.018  0.1849  0.9696 -1.1655
16895TIP3   OH272175   1.482   6.309  11.689 -0.2599  0.3228 -0.2413
16895TIP3    H172176   1.390   6.298  11.666 -0.1700  0.8834 -0.9370
16895TIP3    H272177   1.507   6.391  11.646  0.5989  0.1030 -0.1787
16896TIP3   OH272178   4.122   1.167  16.754  0.0540  0.0736 -0.2941
16896TIP3    H172179   4.033   1.193  16.777 -0.0945 -1.4060  0.9588
16896TIP3    H272180   4.110   1.095  16.692  0.4231  0.8970 -1.3535
16897TIP3   OH272181   5.152   5.386  14.466  0.0131 -0.2958 -0.2071
16897TIP3    H172182   5.093   5.406  14.539 -0.2514  2.6264 -1.1109
16897TIP3    H272183   5.214   5.323  14.503 -0.9345  0.0333  2.1189
16898TIP3   OH272184   1.029   1.622  13.234  0.4573 -0.2801 -0.4597
16898TIP3    H172185   0.947   1.662  13.262  1.4610  1.3137  0.3764
16898TIP3    H272186   1.093   1.650  13.299  1.5169 -2.1960 -0.6103
16899TIP3   OH272187   6.099   1.513  14.449  0.1209  0.6021  0.0314
16899TIP3    H172188   6.061   1.446  14.392  0.6628  1.2729 -1.1418
16899TIP3    H272189   6.085   1.479  14.538  0.4385 -1.0939 -0.5268
16900TIP3   OH272190   0.707   2.240  15.126 -0.7708  0.5408 -0.1239
16900TIP3    H172191   0.712   2.239  15.221 -2.1195 -1.9371 -0.0124
16900TIP3    H272192   0.798   2.231  15.097 -0.4289  0.5860  0.9135
16901TIP3   OH272193   5.081   4.055   0.545 -0.6799  0.0413 -0.5582
16901TIP3    H172194   5.141   4.080   0.475  1.3925  2.1775  1.7274
16901TIP3    H272195   5.052   4.138   0.582  0.0512 -0.8854  2.4016
16902TIP3   OH272196   6.285   6.759   5.735 -0.4959  0.1710 -0.0786
16902TIP3    H172197   6.313   6.768   5.644  0.7872  0.6828  0.3394
16902TIP3    H272198   6.200   6.716   5.730 -0.5953  0.4928 -1.5289
16903TIP3   OH272199   4.366   5.586   1.173 -0.4910  0.0435  0.9332
16903TIP3    H172200   4.410   5.544   1.099  0.6802  0.7542  1.2035
16903TIP3    H272201   4.273   5.574   1.155 -0.2293  0.0534 -0.5814
16904TIP3   OH272202   2.377   2.496   3.679  0.2683 -0.1190  0.1212
16904TIP3    H172203   2.399   2.569   3.621  0.3268 -0.2044  0.0338
16904TIP3    H272204   2.351   2.537   3.761  1.4381 -0.0345  0.4640
16905TIP3   OH272205   4.630   4.481  12.590 -0.2664 -0.0734  0.1318
16905TIP3    H172206   4.688   4.407  12.611 -1.5178 -1.6187 -1.5267
16905TIP3    H272207   4.567   4.482  12.662  0.5047  0.2101  0.8180
16906TIP3   OH272208   2.797   1.841   1.198  0.5898 -0.4829 -0.3868
16906TIP3    H172209   2.740   1.825   1.122  0.2420 -0.9210 -0.0381
16906TIP3    H272210   2.850   1.917   1.173 -0.3978  0.1601 -0.5716
16907TIP3   OH272211   3.699   3.187   2.235  0.0645  0.4766 -0.4654
16907TIP3    H172212   3.653   3.107   2.208  3.0132 -1.1899 -0.9750
16907TIP3    H272213   3.677   3.196   2.328  1.8477 -2.6751  0.4150
16908TIP3   OH272214   4.354   4.983  10.911  0.7770 -0.1607 -0.1743
16908TIP3    H172215   4.448   4.992  10.928  1.3373  1.1848 -3.3781
16908TIP3    H272216   4.316   5.066  10.942  0.5082 -0.8143  1.3803
16909TIP3   OH272217   0.628   4.543  13.767 -0.5065 -0.2085  0.2854
16909TIP3    H172218   0.537   4.565  13.751 -1.0010 -1.8419  0.6255
16909TIP3    H272219   0.674   4.567  13.687 -1.3049  0.1948 -0.0597
16910TIP3   OH272220   1.526   3.309   4.913  0.1723 -0.0791 -0.8222
16910TIP3    H172221   1.570   3.236   4.957 -1.1640 -0.9923 -0.9335
16910TIP3    H272222   1.494   3.271   4.831  0.5668  0.9773 -1.4734
16911TIP3   OH272223   4.752   1.573  14.717 -0.5848 -0.1854  0.3440
16911TIP3    H172224   4.817   1.515  14.759 -0.8328 -1.0319 -0.4029
16911TIP3    H272225   4.791   1.595  14.633 -0.7985  0.1833  0.3411
16912TIP3   OH272226   6.442   6.398   3.176  0.0597 -0.2169 -0.3367
16912TIP3    H172227   6.420   6.355   3.094 -0.3111  1.7580 -1.3205
16912TIP3    H272228   6.358   6.411   3.219  0.3172 -2.0712  0.8620
16913TIP3   OH272229   0.305   2.623   2.827 -0.2487  0.2529  0.3141
16913TIP3    H172230   0.326   2.627   2.734  4.0269 -1.5884  0.9635
16913TIP3    H272231   0.299   2.529   2.846  0.5806  0.5191  2.1348
16914TIP3   OH272232   0.358   6.178   3.217 -0.0299 -0.4860  0.0894
16914TIP3    H172233   0.419   6.125   3.269  0.6501  1.3612  1.3285
16914TIP3    H272234   0.302   6.220   3.283 -0.5514  0.2798 -0.8212
16915TIP3   OH272235   6.063   3.953   1.011 -0.5327  0.2232  0.1275
16915TIP3    H172236   6.022   4.028   0.967  0.1271  0.7368  0.3645
16915TIP3    H272237   6.041   3.878   0.956 -1.6014  0.5190  0.1391
16916TIP3   OH272238   1.681   5.343  14.206  0.6904  0.0869  0.1814
16916TIP3    H172239   1.613   5.298  14.256  1.8004  0.2321  1.8664
16916TIP3    H272240   1.632   5.391  14.138 -0.7429 -1.1211  0.3033
16917TIP3   OH272241   1.919   4.622  12.380  0.5021  0.0359  0.5865
16917TIP3    H172242   1.945   4.627  12.472  0.2220  1.2387  0.6150
16917TIP3    H272243   1.998   4.642  12.331  0.9256 -1.6615  0.5043
16918TIP3   OH272244   2.736   5.858   4.285 -0.5703 -0.1638 -0.5498
16918TIP3    H172245   2.768   5.946   4.304  1.3362 -1.0318  0.5483
16918TIP3    H272246   2.777   5.835   4.202 -0.4249 -0.3375 -0.4271
16919TIP3   OH272247   5.016   4.027  17.046  0.1298  0.0663 -0.1693
16919TIP3    H172248   5.022   4.122  17.050  3.6884  0.0818 -1.8224
16919TIP3    H272249   5.092   3.995  17.095 -0.9043 -1.9564  0.2457
16920TIP3   OH272250   6.221   5.995  13.527 -0.1530  0.0920  0.0106
16920TIP3    H172251   6.238   6.000  13.433 -1.2079  1.6952 -0.1415
16920TIP3    H272252   6.147   5.935  13.536  1.5893 -2.1535  0.1166
16921TIP3   OH272253   3.641   6.234  11.004  0.1582  0.6388  0.1230
16921TIP3    H172254   3.725   6.277  11.019  1.0358 -0.9804  0.0412
16921TIP3    H272255   3.602   6.282  10.932  1.6485  0.5801 -0.7580
16922TIP3   OH272256   3.833   5.652   4.817 -0.0261 -0.0293  0.3850
16922TIP3    H172257   3.768   5.650   4.747 -0.7296 -0.5420  1.0347
16922TIP3    H272258   3.786   5.686   4.893  0.2076 -1.2576  1.1059
16923TIP3   OH272259   6.467   4.438   1.074 -0.1810  0.1198 -0.1906
16923TIP3    H172260   6.462   4.459   0.981 -0.3869  0.7120 -0.0488
16923TIP3    H272261   6.411   4.360   1.084  1.5539 -1.2902 -0.9256
16924TIP3   OH272262   4.771   4.113   5.930  0.3270 -0.7041 -0.3006
16924TIP3    H172263   4.716   4.187   5.958  0.8520 -0.0225 -1.0111
16924TIP3    H272264   4.772   4.120   5.834  1.8494 -0.5458 -0.3011
16925TIP3   OH272265   4.923   3.424  13.407 -0.2794 -0.3173 -0.4637
16925TIP3    H172266   4.854   3.382  13.460 -0.6391  1.3833  0.4918
16925TIP3    H272267   4.945   3.504  13.455 -0.0488  0.9197 -2.5106
16926TIP3   OH272268   5.245   5.066   3.906  0.2179  0.0280  0.7018
16926TIP3    H172269   5.207   5.087   3.991 -0.2259  0.8512  0.3204
16926TIP3    H272270   5.311   5.134   3.892  1.2395 -0.8872  0.9731
16927TIP3   OH272271   4.098   0.144   1.392 -0.2071 -0.0426 -0.1497
16927TIP3    H172272   4.111   0.191   1.309  3.6465 -1.4428 -0.5795
16927TIP3    H272273   4.091   0.052   1.367  2.0331 -0.6095  0.9621
16928TIP3   OH272274   6.790   4.489  13.890  0.5142  0.1704  0.1933
16928TIP3    H172275   6.767   4.531  13.808 -0.4324 -2.5975 -1.0936
16928TIP3    H272276   6.716   4.507  13.948 -0.4032 -0.5788 -0.7020
16929TIP3   OH272277   3.398   4.486  11.459  0.3939 -0.0661 -0.6991
16929TIP3    H172278   3.419   4.398  11.427 -0.7837 -0.0231 -1.6608
16929TIP3    H272279   3.339   4.470  11.533 -0.0539 -0.0966 -1.0548
16930TIP3   OH272280   1.414   1.819   5.348 -0.0359 -0.0597 -0.1615
16930TIP3    H172281   1.393   1.733   5.310 -1.3386  0.5046 -0.7815
16930TIP3    H272282   1.443   1.871   5.274  1.0135 -0.0181  0.2597
16931TIP3   OH272283   1.151   1.617  17.068  0.5914 -0.6897  0.0044
16931TIP3    H172284   1.232   1.661  17.096  0.6953 -0.3871 -0.7409
16931TIP3    H272285   1.097   1.688  17.033  0.4848 -1.0586 -0.5935
16932TIP3   OH272286   0.752   5.208  12.212  0.2808 -0.0264 -0.1127
16932TIP3    H172287   0.807   5.264  12.267 -0.0173 -0.4272  0.6148
16932TIP3    H272288   0.690   5.268  12.171 -0.3215  0.1415  1.0037
16933TIP3   OH272289   4.114   3.018   3.922  0.2641  0.0136 -0.1663
16933TIP3    H172290   4.033   3.025   3.971 -0.3721 -0.5715 -1.1053
16933TIP3    H272291   4.160   3.100   3.940  0.1444 -0.2531  1.5290
16934TIP3   OH272292   4.984   6.429   5.701 -0.2188  0.3727  0.4011
16934TIP3    H172293   4.933   6.426   5.620  1.3498 -2.6491 -0.6287
16934TIP3    H272294   5.053   6.493   5.683  0.2723 -0.4619 -0.8113
16935TIP3   OH272295   2.321   5.827  13.936 -0.1459  0.0768  0.0809
16935TIP3    H172296   2.342   5.898  13.875  0.5477  1.5632  1.9745
16935TIP3    H272297   2.392   5.763  13.923  2.4619  2.3103  2.1809
16936TIP3   OH272298   4.833   2.966   0.915 -0.3406 -0.4707  0.2942
16936TIP3    H172299   4.876   3.038   0.961  2.1608  0.0471 -2.5323
16936TIP3    H272300   4.896   2.895   0.918 -1.1986 -1.2695 -0.1978
16937TIP3   OH272301   0.445   2.631   4.810  0.0664  0.2844 -0.4236
16937TIP3    H172302   0.525   2.677   4.785 -0.3979  1.1257 -0.4226
16937TIP3    H272303   0.452   2.545   4.768  2.5611 -1.0591  2.4049
16938TIP3   OH272304   2.623   0.528  15.755 -1.0251  0.1621 -0.6645
16938TIP3    H172305   2.540   0.562  15.788 -0.4599  0.5674  0.3749
16938TIP3    H272306   2.603   0.438  15.730 -1.2285 -0.6294  2.0088
16939TIP3   OH272307   4.611   3.223   3.928  0.6437 -0.5118  0.3822
16939TIP3    H172308   4.635   3.306   3.969  0.5875 -1.2819  2.0586
16939TIP3    H272309   4.694   3.176   3.918  1.0110  0.5992 -2.7172
16940TIP3   OH272310   1.310   3.791   3.456 -0.9481 -0.3505  0.4738
16940TIP3    H172311   1.302   3.843   3.376  0.7424 -1.7408 -0.6828
16940TIP3    H272312   1.384   3.733   3.439 -0.4441 -0.5917  3.1383
16941TIP3   OH272313   4.981   6.308  16.623 -0.0924  0.3682  0.3085
16941TIP3    H172314   4.956   6.217  16.612  0.7973 -0.0022  1.2892
16941TIP3    H272315   4.926   6.340  16.694  1.4505 -0.1807  1.8090
16942TIP3   OH272316   5.922   2.220  10.900 -0.3068  0.0853 -0.4730
16942TIP3    H172317   5.931   2.158  10.827  0.4644  0.2669 -0.5471
16942TIP3    H272318   5.831   2.248  10.897 -1.3788 -2.8188  1.0247
16943TIP3   OH272319   5.252   1.835  13.597 -0.0199  0.0044  0.1313
16943TIP3    H172320   5.251   1.916  13.648 -1.3365  1.2128 -1.7183
16943TIP3    H272321   5.278   1.862  13.509  1.2059 -1.8790 -0.1489
16944TIP3   OH272322   3.355   4.439   3.781  0.6010 -0.0530 -0.3828
16944TIP3    H172323   3.286   4.420   3.718 -0.1137 -0.8897  0.6217
16944TIP3    H272324   3.435   4.403   3.741 -0.2913 -3.1336  0.3626
16945TIP3   OH272325   4.984   0.600   3.699 -0.7211 -0.0078 -0.0729
16945TIP3    H172326   4.928   0.541   3.748 -0.4045 -0.8744 -0.7275
16945TIP3    H272327   5.002   0.554   3.617  1.2630  0.0339  0.2710
16946TIP3   OH272328   2.321   0.533  14.562 -0.2162  0.2144 -0.4519
16946TIP3    H172329   2.304   0.523  14.655 -0.7671  0.0630 -0.5653
16946TIP3    H272330   2.311   0.627  14.546 -0.9776  0.1302 -0.5153
16947TIP3   OH272331   1.121   4.607  13.031  0.5095  0.1246  0.0499
16947TIP3    H172332   1.077   4.690  13.015 -0.6402 -0.5050 -0.1659
16947TIP3    H272333   1.210   4.631  13.056  0.5754  1.3742 -1.2475
16948TIP3   OH272334   5.191   2.104  15.681  0.0552 -0.1369 -0.5363
16948TIP3    H172335   5.207   2.030  15.740 -2.6385 -0.5719 -0.2182
16948TIP3    H272336   5.233   2.079  15.599  3.7665  0.4094  0.9480
16949TIP3   OH272337   3.422   3.705  11.473  0.8892 -0.1748  0.2340
16949TIP3    H172338   3.375   3.775  11.426 -0.3630 -0.0856  1.5560
16949TIP3    H272339   3.379   3.625  11.444  0.6144 -0.1792  0.6466
16950TIP3   OH272340   6.689   0.545  14.720 -0.2649 -0.7175 -0.2682
16950TIP3    H172341   6.770   0.502  14.747  1.1575  1.2212 -1.1851
16950TIP3    H272342   6.637   0.551  14.800  0.8115 -1.3371  0.5022
16951TIP3   OH272343   5.032   3.117   5.776  0.7447 -0.1436 -0.4282
16951TIP3    H172344   5.062   3.166   5.699 -1.5967  0.1066 -1.2670
16951TIP3    H272345   5.043   3.025   5.752 -2.0632 -0.1624 -2.1249
16952TIP3   OH272346   3.585   5.998  15.238 -0.3263  0.0442  0.1985
16952TIP3    H172347   3.523   5.959  15.299  0.7067  0.9498  1.9016
16952TIP3    H272348   3.645   5.927  15.216 -1.1517 -0.4862 -0.4038
16953TIP3   OH272349   6.377   6.710  10.268 -0.3058 -0.6403 -0.0793
16953TIP3    H172350   6.429   6.767  10.210 -0.7751  0.5463  0.6363
16953TIP3    H272351   6.441   6.672  10.327 -0.1319  0.2000  0.2909
16954TIP3   OH272352   5.152   1.123   0.250  0.4232 -0.0966  0.0477
16954TIP3    H172353   5.074   1.076   0.220 -0.3943 -0.5964  2.6825
16954TIP3    H272354   5.190   1.065   0.316  0.6910  1.9320  1.7663
16955TIP3   OH272355   6.441   5.668  13.565  0.1528 -0.0108 -0.1917
16955TIP3    H172356   6.494   5.733  13.609 -0.8664  0.8760 -0.2430
16955TIP3    H272357   6.355   5.674  13.606  0.0490 -1.3823 -0.1426
16956TIP3   OH272358   6.572   1.647  15.273 -0.0210 -0.0577 -0.5806
16956TIP3    H172359   6.592   1.655  15.367 -2.3388 -1.2404  0.0824
16956TIP3    H272360   6.560   1.737  15.243  1.3019  0.3747  0.1003
16957TIP3   OH272361   3.588   0.322   5.151  0.3693  0.0448  0.2113
16957TIP3    H172362   3.632   0.343   5.233 -0.6396 -0.3931  0.8831
16957TIP3    H272363   3.516   0.265   5.176  0.3786 -0.5657 -1.0506
16958TIP3   OH272364   5.936   6.746  16.221  0.0587 -0.4170  0.4383
16958TIP3    H172365   5.841   6.740  16.224 -0.0243  0.4231 -0.3192
16958TIP3    H272366   5.957   6.756  16.128  0.9497 -1.5300  0.4971
16959TIP3   OH272367   1.211   5.404   6.276 -0.5858 -0.3571  0.1163
16959TIP3    H172368   1.178   5.320   6.244  0.4037 -1.1660  1.1352
16959TIP3    H272369   1.160   5.421   6.355 -0.4511 -0.2448  0.1804
16960TIP3   OH272370   6.750   2.877  14.313 -0.1898  0.1773  0.7140
16960TIP3    H172371   6.691   2.935  14.360  1.2167  1.2046  1.2732
16960TIP3    H272372   6.739   2.792  14.355 -3.1713 -0.3843 -0.8870
16961TIP3   OH272373   5.556   5.334   2.424  0.3522  0.0388  0.5977
16961TIP3    H172374   5.478   5.365   2.378  0.2508 -1.0064  0.0259
16961TIP3    H272375   5.545   5.366   2.514 -0.1149  0.9611  0.2236
16962TIP3   OH272376   6.773   1.521   6.034  0.1714 -0.5157 -0.5734
16962TIP3    H172377   6.770   1.438   6.081 -0.4688 -0.4933 -0.5770
16962TIP3    H272378   6.730   1.583   6.093 -0.0514 -0.3488 -0.9116
16963TIP3   OH272379   3.880   5.632  11.475 -0.0033  0.5123  0.0535
16963TIP3    H172380   3.907   5.720  11.449 -1.9664  1.0313 -0.4448
16963TIP3    H272381   3.805   5.646  11.533 -0.2786 -0.8265  0.0613
16964TIP3   OH272382   5.812   3.984   6.504 -0.4315  0.0304 -0.3712
16964TIP3    H172383   5.734   4.030   6.472 -1.9385  0.3197  3.2346
16964TIP3    H272384   5.839   4.034   6.581  1.1214 -2.1487  0.5852
16965TIP3   OH272385   5.306   6.807  16.242 -0.2105  0.4096 -0.9051
16965TIP3    H172386   5.375   6.754  16.204  1.3468  1.5831  0.1221
16965TIP3    H272387   5.299   6.883  16.184  0.8718  1.2915  0.0395
16966TIP3   OH272388   0.294   4.258  15.076 -0.1295  0.1146  0.1782
16966TIP3    H172389   0.250   4.219  15.151  0.1569 -2.1726 -0.7557
16966TIP3    H272390   0.226   4.308  15.031 -1.1628 -1.2423  0.1680
16967TIP3   OH272391   5.278   6.539  14.851  0.0108  0.3178  0.4917
16967TIP3    H172392   5.360   6.522  14.804 -0.1088  0.9798  0.0293
16967TIP3    H272393   5.262   6.632  14.838  0.1248  0.5899  2.1087
16968TIP3   OH272394   1.831   5.469  13.307  0.2524 -0.1932 -0.0868
16968TIP3    H172395   1.744   5.436  13.284 -0.7676  2.2774 -0.0623
16968TIP3    H272396   1.888   5.437  13.238 -0.8919 -0.9568 -0.7063
16969TIP3   OH272397   1.489   1.363  15.034  0.4128 -0.0946  0.5330
16969TIP3    H172398   1.482   1.457  15.047  0.9492 -0.0032  0.2125
16969TIP3    H272399   1.561   1.337  15.092  2.6037  0.2613 -1.8410
16970TIP3   OH272400   2.327   3.376  13.121 -0.3010 -0.1460  0.0725
16970TIP3    H172401   2.240   3.381  13.162 -1.7625 -2.4713 -2.4194
16970TIP3    H272402   2.324   3.444  13.053 -0.3251 -0.5147 -0.2927
16971TIP3   OH272403   4.028   0.410  14.093  0.4828  0.2242 -0.3029
16971TIP3    H172404   3.978   0.481  14.052 -1.2066 -1.1614 -0.7828
16971TIP3    H272405   3.998   0.331  14.048  2.5568 -0.7879 -0.0301
16972TIP3   OH272406   2.351   1.459   0.964 -0.4665  0.4101 -0.6884
16972TIP3    H172407   2.424   1.416   0.919 -2.7723 -2.1948 -2.2244
16972TIP3    H272408   2.346   1.414   1.049 -1.9883 -1.5729 -1.7387
16973TIP3   OH272409   5.480   4.125  13.595  0.4455 -0.0658 -0.3380
16973TIP3    H172410   5.565   4.101  13.632 -0.5576  1.3284  3.2912
16973TIP3    H272411   5.475   4.220  13.604 -1.9015 -0.2040  0.6041
16974TIP3   OH272412   2.396   4.305   1.909  0.3704  0.7037 -0.1794
16974TIP3    H172413   2.447   4.273   1.834 -0.0887  0.5546 -0.4273
16974TIP3    H272414   2.359   4.226   1.948  1.2741  0.6943  0.7053
16975TIP3   OH272415   6.434   5.881   3.353  0.3690  0.3916 -0.8815
16975TIP3    H172416   6.344   5.871   3.385  1.2226 -1.1541  1.2994
16975TIP3    H272417   6.452   5.975   3.362  0.1286  0.2638  2.3568
16976TIP3   OH272418   6.183   4.479   2.754  0.7326 -0.4834 -0.2595
16976TIP3    H172419   6.174   4.495   2.848 -1.3818 -2.1165 -0.1169
16976TIP3    H272420   6.226   4.393   2.748  0.6642 -0.4827 -0.7970
16977TIP3   OH272421   1.975   1.580   3.945 -0.2664 -0.3511  0.0801
16977TIP3    H172422   2.009   1.668   3.960 -0.6799  0.0905 -1.4310
16977TIP3    H272423   2.053   1.528   3.923  0.0740 -0.5582  1.6322
16978TIP3   OH272424   6.807   3.826   5.145 -0.0843  0.3196 -0.2921
16978TIP3    H172425   6.838   3.736   5.149 -1.0410 -0.2000 -2.7056
16978TIP3    H272426   6.785   3.840   5.053  0.0983  3.0650 -0.0246
16979TIP3   OH272427   5.808   2.014  15.203  0.1154 -0.3885  0.0913
16979TIP3    H172428   5.857   2.096  15.199  0.2296 -0.4951 -1.7186
16979TIP3    H272429   5.869   1.948  15.169 -0.8975 -0.7051 -1.1829
16980TIP3   OH272430   3.713   0.960   2.244  0.1824 -0.3506 -0.1135
16980TIP3    H172431   3.707   0.973   2.338 -1.7321  0.5255 -0.3125
16980TIP3    H272432   3.713   0.865   2.233  2.0900 -0.5071  0.8013
16981TIP3   OH272433   3.186   5.976  11.439  0.2006  0.1589 -0.3419
16981TIP3    H172434   3.259   5.921  11.409  0.1873 -0.6442  1.0038
16981TIP3    H272435   3.174   6.041  11.370  2.1670  0.2869 -0.6120
16982TIP3   OH272436   6.621   6.547   3.945 -0.0573 -0.4860 -0.1100
16982TIP3    H172437   6.660   6.541   4.032 -0.1510  0.1941 -0.0169
16982TIP3    H272438   6.682   6.501   3.888  1.3160  1.2226 -0.1023
16983TIP3   OH272439   4.754   6.427   2.318  0.0259 -0.5918 -0.8060
16983TIP3    H172440   4.670   6.391   2.290  0.5703 -1.5194 -1.2723
16983TIP3    H272441   4.765   6.505   2.264 -0.7809 -0.1469 -0.3535
16984TIP3   OH272442   3.119   0.371   5.378 -0.0680 -0.1661  1.0291
16984TIP3    H172443   3.182   0.323   5.323 -0.4388 -0.7591  1.1190
16984TIP3    H272444   3.087   0.307   5.441 -1.1431 -0.0070  0.6709
16985TIP3   OH272445   4.421   4.552   4.387 -0.0103 -0.2332  0.3848
16985TIP3    H172446   4.460   4.638   4.401 -1.5861  0.7714 -1.0521
16985TIP3    H272447   4.488   4.502   4.341  0.6842  0.4271  0.6670
16986TIP3   OH272448   0.361   4.007  12.788 -0.3517  0.2945  0.3560
16986TIP3    H172449   0.410   3.965  12.718 -1.3983 -1.0544  0.3829
16986TIP3    H272450   0.360   4.099  12.765 -0.5637 -0.1015 -1.3406
16987TIP3   OH272451   4.727   0.019   4.744 -0.3449 -0.3063 -0.0724
16987TIP3    H172452   4.722   0.100   4.692  0.7473  0.2329  0.6133
16987TIP3    H272453   4.756  -0.048   4.681 -1.9350 -0.3427 -0.8035
16988TIP3   OH272454   0.846   2.975  14.859  0.0136 -0.4840 -0.1983
16988TIP3    H172455   0.939   2.957  14.869 -0.2141 -1.0304  1.1752
16988TIP3    H272456   0.828   2.958  14.767  1.1871 -0.7455 -0.3961
16989TIP3   OH272457   4.912   1.998   1.554  0.4871 -0.1607 -0.6312
16989TIP3    H172458   4.914   2.062   1.484  0.5933  0.6049  0.0615
16989TIP3    H272459   4.854   1.928   1.521 -0.8289  0.9720 -0.8145
16990TIP3   OH272460   6.002   6.708   0.977 -0.0539 -0.5409  0.0559
16990TIP3    H172461   5.993   6.784   0.920  1.1774 -0.0624  0.4585
16990TIP3    H272462   5.921   6.706   1.028 -0.9585 -0.6987 -1.3523
16991TIP3   OH272463   0.255   5.014  14.557  0.3536 -0.2746 -0.6855
16991TIP3    H172464   0.245   5.037  14.649 -0.5638  0.6414 -1.0042
16991TIP3    H272465   0.214   4.928  14.550 -0.5544  0.1280 -0.4465
16992TIP3   OH272466   3.719   3.797   0.672 -0.0418 -0.8602 -0.3785
16992TIP3    H172467   3.799   3.825   0.628 -0.4368  0.4839 -0.2939
16992TIP3    H272468   3.662   3.873   0.668 -1.6538 -2.0592 -1.1816
16993TIP3   OH272469   4.433   0.156  11.618 -0.6913 -0.2990 -0.6622
16993TIP3    H172470   4.525   0.164  11.642 -1.1116  0.1133  0.9647
16993TIP3    H272471   4.429   0.078  11.563  0.7249  0.1105 -1.4046
16994TIP3   OH272472   5.038   4.638  14.940  0.5403  0.0704  0.0128
16994TIP3    H172473   5.088   4.564  14.976 -0.8786 -1.1674 -0.4413
16994TIP3    H272474   5.021   4.612  14.849  0.2610  1.0999 -0.2335
16995TIP3   OH272475   2.829   2.912  16.971 -0.1976 -0.1360 -0.0240
16995TIP3    H172476   2.846   3.007  16.975 -1.0264  0.0102  0.2199
16995TIP3    H272477   2.753   2.904  16.914  0.6283 -0.7674 -1.0564
16996TIP3   OH272478   6.194   5.352   3.883  0.1927  0.5641  0.3584
16996TIP3    H172479   6.131   5.411   3.923 -0.5845 -1.3612  2.1510
16996TIP3    H272480   6.279   5.380   3.916  0.0767  1.8685 -0.4012
16997TIP3   OH272481   1.061   4.488  11.504 -0.3732 -0.4451 -0.2307
16997TIP3    H172482   1.038   4.418  11.564  0.1912 -1.4458 -1.1565
16997TIP3    H272483   1.093   4.444  11.425  1.6939  0.8432 -0.1808
16998TIP3   OH272484   3.922   5.018   2.550 -0.0301  0.1583 -0.0124
16998TIP3    H172485   3.936   4.973   2.467 -0.7343 -0.9402  0.4336
16998TIP3    H272486   3.839   4.982   2.582 -0.7757  2.0030  0.2453
16999TIP3   OH272487   2.412   1.220  12.326 -0.1946  0.6985  0.0117
16999TIP3    H172488   2.489   1.248  12.375  0.9218 -1.6226 -0.2931
16999TIP3    H272489   2.437   1.232  12.234 -0.3145  0.2657 -0.0799
17000TIP3   OH272490   0.656   2.110  15.992 -0.4206 -0.1917 -0.3353
17000TIP3    H172491   0.624   2.200  15.984  0.5822  0.0277 -2.5525
17000TIP3    H272492   0.751   2.117  15.983 -0.3510 -1.4774 -0.7841
17001TIP3   OH272493   4.594   5.835   3.070  0.0143 -0.2603 -0.0311
17001TIP3    H172494   4.626   5.756   3.026  1.1862 -0.0506  0.3916
17001TIP3    H272495   4.627   5.828   3.160 -1.2903 -0.0819  0.4801
17002TIP3   OH272496   3.543   5.704   2.768  0.0491  0.4726  0.2165
17002TIP3    H172497   3.449   5.706   2.787 -0.4695  0.2973 -1.9756
17002TIP3    H272498   3.552   5.760   2.690  1.6088 -0.2848 -0.1748
17003TIP3   OH272499   1.819   5.488  15.762 -0.1117 -0.3809 -0.1233
17003TIP3    H172500   1.779   5.570  15.791  0.5773  0.3805 -1.2564
17003TIP3    H272501   1.780   5.421  15.819 -0.7870  0.7024  0.7317
17004TIP3   OH272502   3.432   5.207   3.422  0.5756 -0.2090 -0.1296
17004TIP3    H172503   3.462   5.172   3.338 -1.1859  0.0596 -0.9064
17004TIP3    H272504   3.346   5.243   3.404  1.0559  1.8269  1.3257
17005TIP3   OH272505   1.194   1.594   0.940 -0.4284 -0.0521 -0.3610
17005TIP3    H172506   1.123   1.570   1.000 -0.9866 -0.0841 -1.0239
17005TIP3    H272507   1.216   1.684   0.964 -1.7376  0.4975 -1.1388
17006TIP3   OH272508   3.340   2.193   3.742 -0.0850  0.6847  0.0932
17006TIP3    H172509   3.309   2.261   3.682 -0.2711 -0.7309 -1.4733
17006TIP3    H272510   3.415   2.233   3.786 -0.8537  2.2736  0.0156
17007TIP3   OH272511   6.764   4.322  15.316  0.5647  0.3511  1.0547
17007TIP3    H172512   6.682   4.278  15.293  0.1677  0.7991  1.5894
17007TIP3    H272513   6.832   4.259  15.293  0.0659 -0.0704  0.7065
17008TIP3   OH272514   5.609   2.664  13.508 -0.3589 -0.0135 -0.5127
17008TIP3    H172515   5.599   2.585  13.562  0.8401  0.0264 -0.2130
17008TIP3    H272516   5.579   2.637  13.421  0.3759 -0.9275 -0.5083
17009TIP3   OH272517   1.509   1.494  16.155  0.0958 -0.2023 -0.8288
17009TIP3    H172518   1.583   1.468  16.208 -0.4207  0.2369  0.1372
17009TIP3    H272519   1.544   1.560  16.095  0.5940 -0.4046 -0.7589
17010TIP3   OH272520   2.794   3.579  17.082  0.3775 -0.1100  0.4863
17010TIP3    H172521   2.699   3.565  17.084  0.0557  1.1231 -2.1531
17010TIP3    H272522   2.806   3.667  17.117  0.7544 -0.7961  2.1793
17011TIP3   OH272523   1.103   2.614  11.777 -0.0258  0.0062  0.2244
17011TIP3    H172524   1.065   2.676  11.840 -0.0758  2.0004 -1.6483
17011TIP3    H272525   1.070   2.529  11.804 -1.9337  1.0824  1.5069
17012TIP3   OH272526   3.483   0.170   4.619 -0.1041 -0.0004  0.4747
17012TIP3    H172527   3.426   0.169   4.542  0.6433 -2.6439 -0.1463
17012TIP3    H272528   3.572   0.174   4.583  0.4387 -4.3317  0.8577
17013TIP3   OH272529   3.414   3.855  14.165  0.0919 -0.0371  0.0057
17013TIP3    H172530   3.495   3.829  14.123  1.1889  1.1253  1.2733
17013TIP3    H272531   3.414   3.951  14.160 -1.6135 -0.0344 -0.6726
17014TIP3   OH272532   4.630   5.375  16.557 -0.4805 -0.0741 -0.0227
17014TIP3    H172533   4.595   5.332  16.635 -1.5318 -0.2315 -0.5713
17014TIP3    H272534   4.631   5.468  16.580 -0.8726 -0.1095  0.1390
17015TIP3   OH272535   2.673   4.685  12.036 -0.2950 -0.2922 -0.1356
17015TIP3    H172536   2.664   4.627  12.111 -0.6083 -1.4049 -1.0056
17015TIP3    H272537   2.644   4.633  11.962 -1.9792  1.4522 -0.7667
17016TIP3   OH272538   1.619   3.072   1.458 -0.1073 -0.3588  0.3170
17016TIP3    H172539   1.658   3.117   1.534  0.3866 -0.5448  0.1750
17016TIP3    H272540   1.525   3.081   1.472 -0.0244  0.6821  0.3202
17017TIP3   OH272541   2.084   1.999   2.807 -0.1866 -0.7549 -0.1714
17017TIP3    H172542   2.127   2.067   2.754 -0.9530  0.2892  0.4955
17017TIP3    H272543   2.021   1.958   2.748  0.3925 -0.9845 -0.6258
17018TIP3   OH272544   4.313   2.079   1.619  0.5264  0.1654  0.6213
17018TIP3    H172545   4.234   2.028   1.601  0.9344 -0.3560  0.2435
17018TIP3    H272546   4.286   2.170   1.612 -0.2067 -0.0038  1.2329
17019TIP3   OH272547   1.374   6.646   6.532  0.7746  0.4393  0.1673
17019TIP3    H172548   1.364   6.741   6.545 -2.0148  0.4335 -1.1862
17019TIP3    H272549   1.361   6.609   6.619  2.0826  1.2626  0.7482
17020TIP3   OH272550   0.852   0.465  16.771 -0.2383  0.2112  0.0969
17020TIP3    H172551   0.935   0.470  16.724  0.2955  0.1502  1.0082
17020TIP3    H272552   0.786   0.489  16.706  0.3026 -1.4709 -1.1483
17021TIP3   OH272553   3.948   3.794  14.216 -0.0854 -1.1948  0.0620
17021TIP3    H172554   4.035   3.782  14.177 -0.0784 -0.6259 -0.1076
17021TIP3    H272555   3.927   3.886  14.200  0.2815 -0.6881  2.1414
17022TIP3   OH272556   4.381   6.649   1.934  0.0018  0.1064 -0.0142
17022TIP3    H172557   4.359   6.556   1.926  0.0315  0.1069 -0.1041
17022TIP3    H272558   4.357   6.686   1.849  0.0142  0.1763  0.0130
17023TIP3   OH272559   1.589   6.332  12.975 -1.1502 -0.1524  0.5671
17023TIP3    H172560   1.600   6.239  12.959 -0.1356  0.3523 -2.2028
17023TIP3    H272561   1.497   6.349  12.954 -0.7172 -0.1592 -1.6282
17024TIP3   OH272562   6.303   0.473   1.671  0.0880 -0.3222  0.2163
17024TIP3    H172563   6.390   0.471   1.631  0.1926 -0.6431  0.4588
17024TIP3    H272564   6.261   0.393   1.642 -0.7681  0.6265 -1.2981
17025TIP3   OH272565   3.503   1.321   0.667 -0.1280 -0.3559 -0.2293
17025TIP3    H172566   3.436   1.384   0.694  1.0041  1.2422 -0.9628
17025TIP3    H272567   3.457   1.257   0.614 -0.7880  2.0239 -2.7480
17026TIP3   OH272568   3.767   5.749  15.190 -0.4558  0.0889  0.0655
17026TIP3    H172569   3.801   5.807  15.121 -1.7865  1.3343  0.3918
17026TIP3    H272570   3.765   5.663  15.150 -2.5070  0.9958 -2.0259
17027TIP3   OH272571   2.132   0.097   2.116 -0.6728 -0.1210  0.5014
17027TIP3    H172572   2.213   0.045   2.110 -1.0788 -0.6005 -1.9670
17027TIP3    H272573   2.159   0.185   2.090 -0.8644 -0.2041  0.0135
17028TIP3   OH272574   5.783   3.144  17.000 -0.0618  0.2518 -0.0386
17028TIP3    H172575   5.760   3.227  17.040  1.6419  0.7046  0.0714
17028TIP3    H272576   5.751   3.078  17.062 -1.2745  0.8003 -0.0540
17029TIP3   OH272577   0.767   1.630   4.614 -0.0942 -0.2095 -0.5364
17029TIP3    H172578   0.738   1.684   4.687  0.0502  0.0156 -0.6439
17029TIP3    H272579   0.792   1.547   4.654 -0.5016 -0.2644 -0.3961
17030TIP3   OH272580   5.334   4.367   4.889 -0.3235  0.0353  0.0904
17030TIP3    H172581   5.395   4.426   4.845 -0.3912  0.2924  0.3310
17030TIP3    H272582   5.327   4.403   4.978 -0.6241 -0.1395  0.1384
17031TIP3   OH272583   5.392   5.592  14.939 -0.0634  0.2688 -0.2329
17031TIP3    H172584   5.470   5.541  14.915 -0.7744 -1.8582  1.6556
17031TIP3    H272585   5.318   5.537  14.913 -0.8541  0.1188  2.1271
17032TIP3   OH272586   4.968   0.829  12.466  0.6538  0.0985 -0.0353
17032TIP3    H172587   4.905   0.898  12.485 -0.4090 -0.5295 -1.1052
17032TIP3    H272588   4.935   0.753  12.513  0.3192 -0.3541 -0.9667
17033TIP3   OH272589   2.119   5.153  13.779 -0.6895 -0.3723  0.0961
17033TIP3    H172590   2.120   5.079  13.839 -3.6310  0.2382  1.0341
17033TIP3    H272591   2.199   5.143  13.727 -0.1343 -3.1980  1.3398
17034TIP3   OH272592   1.873   5.147   3.413  0.4367  0.0845 -0.2795
17034TIP3    H172593   1.915   5.222   3.455  1.4725 -0.4369 -0.3648
17034TIP3    H272594   1.906   5.071   3.460  0.1220 -0.3833 -0.7988
17035TIP3   OH272595   2.509   5.315  12.759  0.2903 -0.7323  0.0245
17035TIP3    H172596   2.582   5.315  12.821  0.1645 -0.1417  0.1830
17035TIP3    H272597   2.499   5.224  12.733 -0.3237 -1.1654  1.6774
17036TIP3   OH272598   3.761   3.018  15.055  0.3995  0.1798  0.6908
17036TIP3    H172599   3.770   3.063  14.971  1.3855 -0.3664  0.4793
17036TIP3    H272600   3.754   3.088  15.119 -2.2539  0.6227  0.0198
17037TIP3   OH272601   1.856   3.165   5.355 -0.4620  0.2193 -0.1667
17037TIP3    H172602   1.920   3.154   5.285  1.2372  0.7190  1.2344
17037TIP3    H272603   1.797   3.233   5.322 -0.1951 -0.1420 -1.4436
17038TIP3   OH272604   6.415   5.624   2.878 -0.0825 -0.1695  0.3232
17038TIP3    H172605   6.361   5.553   2.844  1.5506 -0.9647 -0.7363
17038TIP3    H272606   6.400   5.623   2.973 -1.1368 -0.9849  0.1662
17039TIP3   OH272607   1.258   6.250  11.554 -0.7957 -0.0837  0.6137
17039TIP3    H172608   1.249   6.190  11.480 -2.5880  3.6248 -2.4927
17039TIP3    H272609   1.221   6.202  11.628 -0.0317 -3.5548 -1.0404
17040TIP3   OH272610   6.626   5.529   3.185 -0.0879 -0.1860  0.2692
17040TIP3    H172611   6.630   5.529   3.280  1.8333  1.0358  0.2349
17040TIP3    H272612   6.553   5.588   3.164  1.6177  2.3725  1.0219
17041TIP3   OH272613   6.398   3.057  16.840 -0.4562  0.7498  0.0777
17041TIP3    H172614   6.431   3.060  16.750  1.0360 -0.4280  0.5373
17041TIP3    H272615   6.409   3.146  16.872  1.3515  0.6534 -0.1521
17042TIP3   OH272616   4.182   4.764   6.268 -0.2238  0.1094  0.3336
17042TIP3    H172617   4.269   4.769   6.229  0.5738 -2.9448  1.3845
17042TIP3    H272618   4.123   4.751   6.195  0.3479  1.0921 -0.3150
17043TIP3   OH272619   0.071   4.178  11.950 -0.5796 -0.2072 -0.8755
17043TIP3    H172620   0.152   4.129  11.963 -0.5590 -0.0493 -0.4171
17043TIP3    H272621   0.069   4.197  11.856  0.7071  1.1846 -0.6497
17044TIP3   OH272622   4.891   5.372  11.095  0.1365  0.6534  0.3031
17044TIP3    H172623   4.846   5.292  11.122 -0.7369  0.6794 -0.9772
17044TIP3    H272624   4.850   5.396  11.011  1.8303  1.2593 -0.4030
17045TIP3   OH272625   1.603   3.372  11.741  0.3324 -0.2944 -0.1434
17045TIP3    H172626   1.546   3.417  11.802 -0.1820 -0.2722 -0.6372
17045TIP3    H272627   1.585   3.412  11.656  1.8161  0.4254 -0.1608
17046TIP3   OH272628   6.361   6.725   4.182 -0.2106  0.3127  0.2222
17046TIP3    H172629   6.280   6.746   4.230  0.6559  0.9037  1.4730
17046TIP3    H272630   6.413   6.675   4.244  0.7665  0.7227 -0.2472
17047TIP3   OH272631   3.048   3.941  11.696  0.0564  0.6431  0.2411
17047TIP3    H172632   3.133   3.914  11.732 -0.7557 -0.3003  1.5407
17047TIP3    H272633   2.996   3.861  11.695 -0.5986  1.0550 -1.2605
17048TIP3   OH272634   4.077   1.916  12.238  0.4339  0.6502  0.3461
17048TIP3    H172635   3.994   1.958  12.214  0.1748  0.4170  0.8285
17048TIP3    H272636   4.101   1.865  12.161 -0.5097 -0.2805  0.6469
17049TIP3   OH272637   4.865   4.249  12.359 -0.0412 -0.1049 -0.1658
17049TIP3    H172638   4.784   4.205  12.332 -1.0269  1.6444 -0.1999
17049TIP3    H272639   4.911   4.184  12.410 -0.7821 -1.6397 -1.3530
17050TIP3   OH272640   2.011   4.038  16.453  0.0332  1.1592  0.7102
17050TIP3    H172641   2.068   4.060  16.526  0.8861  2.4246 -0.2893
17050TIP3    H272642   2.069   3.996  16.389 -0.4160  1.2757  0.2162
17051TIP3   OH272643   6.376   1.187   1.279 -0.2946  0.0048 -0.2524
17051TIP3    H172644   6.393   1.194   1.185  1.4704 -2.1972 -0.1890
17051TIP3    H272645   6.462   1.168   1.317 -1.2654 -0.9767  1.5777
17052TIP3   OH272646   3.948   3.815  14.495  0.1059  0.3392  0.2300
17052TIP3    H172647   3.879   3.807  14.429 -0.4854  0.7714  0.7791
17052TIP3    H272648   4.023   3.851  14.447 -0.6456  1.6522 -0.0209
17053TIP3   OH272649   6.260   5.463  16.362  0.5998  0.1857 -0.2807
17053TIP3    H172650   6.255   5.369  16.341 -0.2273  0.2208 -0.2827
17053TIP3    H272651   6.217   5.470  16.447 -2.0985  0.9515 -1.5908
17054TIP3   OH272652   3.217   4.767  10.522  0.2680 -0.1264 -0.4624
17054TIP3    H172653   3.135   4.718  10.521 -0.6560  1.3454 -1.3717
17054TIP3    H272654   3.200   4.842  10.464  2.3209  0.1066 -0.8233
17055TIP3   OH272655   6.503   3.075  15.430  0.1682 -0.9450 -0.1118
17055TIP3    H172656   6.470   2.985  15.431  1.3110 -1.3729  0.7486
17055TIP3    H272657   6.577   3.075  15.491  1.2824  0.1585 -1.3824
17056TIP3   OH272658   1.171   6.674   5.995  0.2713  0.2516 -0.5092
17056TIP3    H172659   1.084   6.714   5.987 -0.1911 -0.6922 -0.3379
17056TIP3    H272660   1.154   6.584   6.020  1.3155  0.0748 -0.3800
17057TIP3   OH272661   1.897   4.368  14.798 -0.6531 -0.3986  0.3197
17057TIP3    H172662   1.820   4.318  14.824 -0.9412  0.2091  0.6450
17057TIP3    H272663   1.943   4.310  14.736 -1.2108 -0.8783  0.3450
17058TIP3   OH272664   0.388   3.849   1.447  0.2419  0.4724  0.1681
17058TIP3    H172665   0.429   3.859   1.533  1.0057 -0.9058 -0.0061
17058TIP3    H272666   0.390   3.936   1.408  1.3760  0.7834  0.8970
17059TIP3   OH272667   4.355   6.487  13.154 -0.0219 -0.3764  0.4943
17059TIP3    H172668   4.398   6.531  13.228  1.9055  1.6636 -1.6903
17059TIP3    H272669   4.296   6.553  13.118  0.7529 -0.5208 -1.1159
17060TIP3   OH272670   0.491   2.539  12.409  0.6836  0.2034 -0.1743
17060TIP3    H172671   0.418   2.517  12.351 -2.5887 -0.4439  3.6915
17060TIP3    H272672   0.559   2.475  12.387 -1.1346 -1.2688 -1.9504
17061TIP3   OH272673   4.184   3.911  10.544  0.0828 -0.4186 -0.5659
17061TIP3    H172674   4.138   3.974  10.600  0.4397  0.9032 -1.7123
17061TIP3    H272675   4.138   3.828  10.558 -1.0777  0.3269  0.1707
17062TIP3   OH272676   2.005   2.774   4.016 -0.0462  0.5148 -0.3781
17062TIP3    H172677   2.015   2.697   4.071  0.9490  2.8982  3.1622
17062TIP3    H272678   1.913   2.799   4.026  0.2007  1.1196  0.6325
17063TIP3   OH272679   6.080   3.850   2.905  0.0082 -0.0033  0.1613
17063TIP3    H172680   6.113   3.764   2.879 -0.3858 -0.9397  2.5289
17063TIP3    H272681   6.145   3.885   2.965 -0.2333  1.0082 -0.1326
17064TIP3   OH272682   3.565   5.610  13.185  0.2538  0.7314  0.0550
17064TIP3    H172683   3.524   5.590  13.270  1.7018  0.4733  0.7188
17064TIP3    H272684   3.556   5.530  13.135  2.6835 -0.4416  1.3438
17065TIP3   OH272685   5.803   3.396  14.435  0.8055 -0.2628 -0.0620
17065TIP3    H172686   5.796   3.491  14.437  0.7938 -0.1899 -1.7566
17065TIP3    H272687   5.716   3.365  14.460  1.0986  0.1247  1.5293
17066TIP3   OH272688   4.160   6.696  15.770 -0.2131  0.2685  0.1265
17066TIP3    H172689   4.134   6.628  15.832  2.7542 -0.7186  0.4617
17066TIP3    H272690   4.197   6.647  15.696 -0.6582  1.5030 -0.9596
17067TIP3   OH272691   6.311   1.497  17.134 -0.0831 -0.6310  0.1646
17067TIP3    H172692   6.272   1.542  17.209  0.9146 -0.5742  0.6528
17067TIP3    H272693   6.288   1.552  17.059 -0.5314 -0.3460  0.5043
17068TIP3   OH272694   0.046   3.138   2.241 -0.7038  0.9146 -0.5916
17068TIP3    H172695  -0.042   3.124   2.275  0.0536  1.0001  1.5921
17068TIP3    H272696   0.055   3.074   2.170 -2.4033  0.7374 -0.6910
17069TIP3   OH272697   0.317   6.508  13.386 -0.2579 -0.4699  0.4423
17069TIP3    H172698   0.377   6.491  13.314 -1.2250  0.1731 -0.5547
17069TIP3    H272699   0.332   6.600  13.409 -0.3268 -0.5211  0.6968
17070TIP3   OH272700   1.384   2.313  12.918 -0.2136  0.5511  0.2614
17070TIP3    H172701   1.466   2.349  12.885 -0.9063  1.8612 -0.1013
17070TIP3    H272702   1.390   2.219  12.901  1.0015  0.6974 -0.1999
17071TIP3   OH272703   1.562   2.589  15.658 -0.0295  0.0894  0.5881
17071TIP3    H172704   1.628   2.622  15.597 -0.0701  0.5904  0.8101
17071TIP3    H272705   1.600   2.605  15.745  0.0929 -0.7517  0.7033
17072TIP3   OH272706   5.608   1.908   1.969  0.3371 -0.7766  0.0685
17072TIP3    H172707   5.540   1.871   2.025  0.3815  1.5182  1.7835
17072TIP3    H272708   5.561   1.965   1.908  0.6270  0.6863  1.1494
17073TIP3   OH272709   3.523   2.913  12.328 -0.3241 -0.0343 -0.1906
17073TIP3    H172710   3.601   2.857  12.339  0.9542  1.2572 -2.0731
17073TIP3    H272711   3.504   2.910  12.234 -0.2210  2.6075 -0.3739
17074TIP3   OH272712   5.356   5.656   2.119  0.3354 -0.4853 -0.2570
17074TIP3    H172713   5.309   5.736   2.140  1.0978  0.1722 -0.9528
17074TIP3    H272714   5.351   5.602   2.198 -1.8696 -0.6059 -0.4246
17075TIP3   OH272715   5.258   2.003   4.738  0.3356 -0.1440 -1.1593
17075TIP3    H172716   5.248   2.005   4.643 -1.6338 -0.5516 -0.9874
17075TIP3    H272717   5.201   1.933   4.768  1.2182 -0.2873  0.3214
17076TIP3   OH272718   4.088   6.545   0.958 -0.2092  0.1203  0.1829
17076TIP3    H172719   4.166   6.600   0.969  0.1633 -0.7266  2.2891
17076TIP3    H272720   4.117   6.458   0.984 -2.0941 -0.0334  2.0170
17077TIP3   OH272721   2.366   0.548  16.600 -0.3819  0.4213  0.1805
17077TIP3    H172722   2.435   0.485  16.584 -0.3071  0.5406  0.0328
17077TIP3    H272723   2.323   0.517  16.681  0.4006  0.8293  0.7668
17078TIP3   OH272724   3.801   0.507  11.617  0.0125 -0.7190  0.1956
17078TIP3    H172725   3.792   0.425  11.665  0.6688 -0.5370  0.6370
17078TIP3    H272726   3.895   0.522  11.611 -0.0913  0.6404  1.2439
17079TIP3   OH272727   5.440   2.622  14.030  0.3838  0.0563 -0.7129
17079TIP3    H172728   5.397   2.707  14.042 -0.5275 -0.2833 -1.4795
17079TIP3    H272729   5.415   2.571  14.107  0.9039  0.4627 -0.2688
17080TIP3   OH272730   3.738   6.632  12.975 -0.5870  0.2804  0.0457
17080TIP3    H172731   3.709   6.566  13.038  0.9027  0.0246  0.4909
17080TIP3    H272732   3.833   6.625  12.974 -0.5633 -0.0209 -2.5711
17081TIP3   OH272733   4.094   3.471   0.828  0.2344  0.6410  0.2732
17081TIP3    H172734   4.004   3.498   0.844 -0.8140 -1.7769 -1.0901
17081TIP3    H272735   4.135   3.548   0.789 -1.5816  1.4247 -0.1986
17082TIP3   OH272736   2.231   2.024  13.682  0.1968 -0.5699 -0.5405
17082TIP3    H172737   2.189   1.942  13.654 -0.6891 -1.2600  2.3900
17082TIP3    H272738   2.296   1.996  13.747  1.0423  0.9598 -0.6883
17083TIP3   OH272739   4.578   3.425  13.039  0.5944  0.1711  0.2129
17083TIP3    H172740   4.562   3.381  12.956  0.7440 -1.0034  0.7913
17083TIP3    H272741   4.502   3.404  13.093 -0.6591  2.8183 -0.3304
17084TIP3   OH272742   0.678   1.606  16.574  0.1458 -0.0372 -0.0041
17084TIP3    H172743   0.582   1.613  16.576  0.0450 -0.5835 -1.4896
17084TIP3    H272744   0.707   1.694  16.550  0.0354  0.1444  0.5019
17085TIP3   OH272745   5.272   1.916   4.115 -0.5614 -0.0313 -0.1410
17085TIP3    H172746   5.362   1.949   4.126 -0.4514 -0.0115 -1.0163
17085TIP3    H272747   5.229   1.982   4.061 -0.0736 -1.6890 -2.7054
17086TIP3   OH272748   4.086   0.581   2.763  0.1496  0.1290  0.1166
17086TIP3    H172749   4.123   0.512   2.708 -0.0218  0.2859 -0.1956
17086TIP3    H272750   4.135   0.660   2.739  1.1163 -0.0878  1.2582
17087TIP3   OH272751   2.670   0.452  10.964 -0.8559  0.2816 -0.3309
17087TIP3    H172752   2.763   0.446  10.984 -1.0016 -0.7831  0.0898
17087TIP3    H272753   2.657   0.391  10.892 -1.5385 -1.0629  0.8632
17088TIP3   OH272754   1.549   6.505   0.050 -0.1007 -0.0637 -0.2059
17088TIP3    H172755   1.621   6.518   0.112 -0.6648  0.2629  0.3903
17088TIP3    H272756   1.539   6.590   0.006 -1.8234  0.7402  1.5773
17089TIP3   OH272757   2.222   2.671  11.125  0.1640  0.0952 -0.0530
17089TIP3    H172758   2.176   2.624  11.056  2.8757  0.7667 -2.5262
17089TIP3    H272759   2.269   2.603  11.174 -0.4196 -0.2501  0.0276
17090TIP3   OH272760   2.189   2.957  11.965 -0.6109 -0.5988 -0.4754
17090TIP3    H172761   2.205   2.928  12.054 -0.8366  0.5839 -0.0326
17090TIP3    H272762   2.128   2.893  11.929 -0.0249 -1.4417 -0.0067
17091TIP3   OH272763   3.700   0.764  11.692  0.1131 -0.5573  0.6302
17091TIP3    H172764   3.744   0.781  11.609  0.4730 -1.2201  0.6750
17091TIP3    H272765   3.724   0.674  11.714 -0.2791 -0.5161  1.2687
17092TIP3   OH272766   1.484   6.408  14.302 -0.4507 -0.0858  0.5347
17092TIP3    H172767   1.392   6.389  14.283 -0.1184 -1.4007  0.1517
17092TIP3    H272768   1.492   6.395  14.397 -0.6722  0.0462  0.5701
17093TIP3   OH272769   5.338   5.172   0.017 -0.1561 -0.7630  0.6228
17093TIP3    H172770   5.245   5.191   0.029 -0.2235 -0.5030 -0.2111
17093TIP3    H272771   5.340   5.085  -0.024 -0.0312 -0.7865  0.6775
17094TIP3   OH272772   0.337   1.607  12.752 -0.4974  0.2572 -0.1448
17094TIP3    H172773   0.260   1.651  12.788 -0.8957  0.9569 -1.7216
17094TIP3    H272774   0.387   1.678  12.710 -0.2196 -0.5132 -1.1670
17095TIP3   OH272775   2.903   2.933   3.720 -0.1718  0.3270  0.1077
17095TIP3    H172776   2.871   2.961   3.805 -0.8391 -0.2182  0.0391
17095TIP3    H272777   2.833   2.878   3.684  0.1536  0.4488 -0.7347
17096TIP3   OH272778   3.418   6.280  13.201  0.6257 -0.0938  0.3714
17096TIP3    H172779   3.367   6.234  13.267  0.6451  0.8268  1.0599
17096TIP3    H272780   3.427   6.218  13.128 -1.5974 -0.2469  0.1569
17097TIP3   OH272781   3.899   4.123  16.584 -0.2210  0.2248 -0.1088
17097TIP3    H172782   3.861   4.101  16.499  2.2931 -0.6443 -1.0913
17097TIP3    H272783   3.969   4.185  16.565  0.7372 -0.3799  1.2455
17098TIP3   OH272784   6.635   2.627  13.018  0.6043 -0.2152 -0.1461
17098TIP3    H172785   6.663   2.610  12.928  0.1101  4.1256 -1.3235
17098TIP3    H272786   6.704   2.681  13.056  0.3171 -1.1077  1.8390
17099TIP3   OH272787   6.422   0.036   3.450 -0.4758  0.0984 -0.0726
17099TIP3    H172788   6.407  -0.010   3.367  0.7037 -1.8704  0.7435
17099TIP3    H272789   6.444   0.126   3.424 -1.9578  0.0360 -1.7718
17100TIP3   OH272790   5.079   0.118   2.281 -0.5086  0.0692  0.0315
17100TIP3    H172791   5.096   0.084   2.369  0.6483 -0.0631 -0.2339
17100TIP3    H272792   5.034   0.047   2.236 -1.0067  0.0961  0.4747
17101TIP3   OH272793   1.961   3.617  14.682  0.2593  0.7187 -0.4671
17101TIP3    H172794   1.887   3.557  14.670  0.3517 -0.6522  3.8516
17101TIP3    H272795   1.921   3.699  14.713  0.3838  0.1066  1.4779
17102TIP3   OH272796   2.023   2.877   2.092  0.1595 -0.0772 -0.2590
17102TIP3    H172797   2.091   2.918   2.037 -0.1040  0.3529 -0.2670
17102TIP3    H272798   2.071   2.812   2.143  0.9001  1.3020  0.9151
17103TIP3   OH272799   3.811   0.258  12.701  0.2599  0.0457  0.2259
17103TIP3    H172800   3.779   0.173  12.731 -0.5111  0.0090 -0.6497
17103TIP3    H272801   3.906   0.253  12.711  0.3567 -1.4360 -1.0571
17104TIP3   OH272802   5.729   6.341   0.209  0.5010 -0.0856  0.0930
17104TIP3    H172803   5.823   6.328   0.223  0.4104 -0.7387  0.0989
17104TIP3    H272804   5.723   6.430   0.172  1.0476  0.2750  0.8434
17105TIP3   OH272805   5.741   5.342  12.464  0.6680  0.0901  0.0897
17105TIP3    H172806   5.659   5.327  12.415  0.4038  0.5540  0.3833
17105TIP3    H272807   5.716   5.332  12.555  1.1349 -0.6378  0.1407
17106TIP3   OH272808   1.386   2.138  10.657  0.6689  0.2437  0.3506
17106TIP3    H172809   1.403   2.046  10.634  0.6172  0.2931  0.1114
17106TIP3    H272810   1.320   2.133  10.726 -1.4136  0.1486 -1.5193
17107TIP3   OH272811   0.460   2.697   1.042 -0.5662 -0.2220  0.1228
17107TIP3    H172812   0.377   2.745   1.040 -0.8638 -0.7600 -0.5152
17107TIP3    H272813   0.455   2.636   0.969  0.4088 -0.2389  0.0580
17108TIP3   OH272814   0.800   3.072   4.019 -0.3097  0.1613  0.1047
17108TIP3    H172815   0.891   3.058   4.047 -0.3443  0.1471  0.2088
17108TIP3    H272816   0.803   3.155   3.971 -0.1314 -0.1250 -0.3946
17109TIP3   OH272817   0.676   6.525   5.738  0.0810  0.6252 -0.1316
17109TIP3    H172818   0.761   6.563   5.717 -0.2246  0.6682 -1.4074
17109TIP3    H272819   0.633   6.515   5.653 -1.0773  0.3358  0.4666
17110TIP3   OH272820   2.088   1.660  11.508  0.0195 -0.1711  0.6115
17110TIP3    H172821   2.078   1.752  11.486 -1.0556 -0.2177  0.8328
17110TIP3    H272822   2.180   1.650  11.533  0.7615  0.3358 -1.6909
17111TIP3   OH272823   0.015   1.722  15.756  0.2871  0.1446  0.7915
17111TIP3    H172824   0.010   1.706  15.850  0.0653  0.5366  0.8521
17111TIP3    H272825   0.044   1.640  15.718  3.2545  0.7617  1.4912
17112TIP3   OH272826   3.245   6.804  13.240  0.5617 -0.0128 -0.4249
17112TIP3    H172827   3.232   6.847  13.155  0.3078 -0.1630 -0.4615
17112TIP3    H272828   3.282   6.719  13.218 -1.6403 -0.9974 -0.5385
17113TIP3   OH272829   1.015   3.563  11.414 -0.1408 -0.2660 -0.3464
17113TIP3    H172830   0.976   3.649  11.429  2.2972  1.5853 -3.3235
17113TIP3    H272831   0.944   3.511  11.375 -0.9277  1.4538 -1.3461
17114TIP3   OH272832   5.772   3.592   5.221  0.3924  0.4176 -0.4505
17114TIP3    H172833   5.683   3.590   5.256 -0.9076 -1.0935 -3.4658
17114TIP3    H272834   5.788   3.684   5.200 -1.3593  0.4882 -1.7267
17115TIP3   OH272835   1.408   2.088  15.186  0.3354  0.1855  0.0144
17115TIP3    H172836   1.324   2.116  15.149  0.0558  0.8423  1.1012
17115TIP3    H272837   1.385   2.019  15.247  0.5501  0.5155  0.4765
17116TIP3   OH272838   0.364   0.666  15.530  0.8950 -0.2044  0.1307
17116TIP3    H172839   0.338   0.574  15.527 -0.4431  0.1092  0.8949
17116TIP3    H272840   0.402   0.684  15.444 -1.4017 -0.7824 -1.0921
17117TIP3   OH272841   5.009   4.547  11.588  0.0971  0.1810  0.4929
17117TIP3    H172842   5.014   4.545  11.493 -0.8181  0.4551  0.4287
17117TIP3    H272843   5.053   4.629  11.613  0.8326 -0.1655  0.3515
17118TIP3   OH272844   0.729   1.511   0.139 -0.6533  0.1088  0.7379
17118TIP3    H172845   0.805   1.542   0.089 -1.3100 -0.1563 -0.4579
17118TIP3    H272846   0.686   1.591   0.168 -1.1242  0.3233 -0.4749
17119TIP3   OH272847   0.465   3.273  12.431  0.5000  0.3277  0.0092
17119TIP3    H172848   0.395   3.335  12.449  1.7467  1.3997  1.4212
17119TIP3    H272849   0.426   3.209  12.372 -1.5452  1.0732  0.4843
17120TIP3   OH272850   6.147   2.674   5.193  0.3130  0.2681  0.1208
17120TIP3    H172851   6.198   2.596   5.216 -0.5929 -0.3608  0.0457
17120TIP3    H272852   6.073   2.641   5.143  2.2989  1.5755 -4.1491
17121TIP3   OH272853   4.268   5.505  17.112  0.3564  0.3422 -0.2512
17121TIP3    H172854   4.231   5.540  17.193  0.7483  1.2477 -0.4502
17121TIP3    H272855   4.239   5.414  17.110 -0.4214  0.5583  0.4496
17122TIP3   OH272856   2.459   4.166  12.446 -0.0815 -0.1839  0.3156
17122TIP3    H172857   2.425   4.255  12.441 -3.2443 -1.0893  2.4977
17122TIP3    H272858   2.541   4.174  12.495  1.4146  1.7497 -2.2531
17123TIP3   OH272859   5.519   3.194   6.359  0.8776  0.0377  0.0901
17123TIP3    H172860   5.590   3.170   6.419  0.7444  0.7460  0.5436
17123TIP3    H272861   5.440   3.176   6.409  0.6486 -2.5168 -1.0689
17124TIP3   OH272862   1.236   6.112  14.724  0.1218 -0.1143  0.4013
17124TIP3    H172863   1.260   6.030  14.681 -0.7574 -0.1657 -0.0201
17124TIP3    H272864   1.256   6.097  14.817  1.5509 -0.1819  0.1044
17125TIP3   OH272865   5.801   1.854   5.766  0.5163  0.3033  0.0943
17125TIP3    H172866   5.755   1.848   5.682  1.5385  0.8742 -0.5331
17125TIP3    H272867   5.834   1.765   5.782 -1.7373 -0.4039  1.1427
17126TIP3   OH272868   0.244   1.603  10.923 -0.2498 -0.1133 -0.0589
17126TIP3    H172869   0.264   1.694  10.946  1.3985  0.4928 -3.2881
17126TIP3    H272870   0.149   1.601  10.913 -0.5318  0.6670  1.9434
17127TIP3   OH272871   2.621   3.755   6.043 -0.2998 -0.5382 -0.2985
17127TIP3    H172872   2.630   3.660   6.044  0.2175 -0.5015  1.0762
17127TIP3    H272873   2.681   3.785   5.975  0.8141 -1.1049  0.4041
17128TIP3   OH272874   5.588   1.605   2.014 -0.5082  0.4577 -0.0521
17128TIP3    H172875   5.680   1.617   2.039  0.1003  0.3577 -2.0211
17128TIP3    H272876   5.593   1.557   1.932 -2.3358  0.5480 -0.2384
17129TIP3   OH272877   5.511   5.755   1.314 -0.4450 -0.4117  0.0302
17129TIP3    H172878   5.447   5.752   1.243 -3.0688 -1.3561  2.2816
17129TIP3    H272879   5.461   5.782   1.391  2.3778  1.1583  1.4900
17130TIP3   OH272880   5.969   2.542   2.183 -0.5215  0.1671 -0.8225
17130TIP3    H172881   6.025   2.494   2.243 -2.0671 -0.5948  0.0730
17130TIP3    H272882   6.016   2.541   2.100  2.3625  2.4925  0.6117
17131TIP3   OH272883   1.169   0.521  12.319 -0.0332 -0.2533  0.0473
17131TIP3    H172884   1.115   0.594  12.351 -1.1973 -1.5390  1.1651
17131TIP3    H272885   1.156   0.521  12.224 -0.9040  0.3173  0.1524
17132TIP3   OH272886   5.697   1.092   5.904  0.1700  0.0497  0.5155
17132TIP3    H172887   5.658   1.006   5.890  0.9743 -0.1633 -0.5168
17132TIP3    H272888   5.788   1.082   5.877 -0.2260  1.7865 -1.7739
17133TIP3   OH272889   2.013   3.569  16.927 -0.6477 -0.5119 -0.1222
17133TIP3    H172890   1.937   3.626  16.913 -0.0322  0.0609 -1.2875
17133TIP3    H272891   2.003   3.500  16.861  1.2349  1.0871 -2.2169
17134TIP3   OH272892   2.030   3.634  16.477  0.6511  0.3648 -0.6168
17134TIP3    H172893   1.973   3.711  16.469 -1.6292 -1.2117 -0.3597
17134TIP3    H272894   1.984   3.565  16.429  0.8783 -1.7453  1.9696
17135TIP3   OH272895   4.331   3.311  15.494 -0.1501  0.3487  0.0643
17135TIP3    H172896   4.366   3.226  15.521 -0.4060 -0.4311 -1.8673
17135TIP3    H272897   4.285   3.292  15.412  0.0342  2.4190 -0.5611
17136TIP3   OH272898   5.908   6.537   4.557  0.4114 -0.0151 -0.4243
17136TIP3    H172899   5.894   6.588   4.637  1.6301  0.4865 -0.5033
17136TIP3    H272900   5.884   6.447   4.581  1.4189 -0.0122  0.7471
17137TIP3   OH272901   5.408   5.051  16.365  0.1614 -0.0460  0.6134
17137TIP3    H172902   5.469   5.005  16.422 -0.3895  0.8883  1.9987
17137TIP3    H272903   5.329   5.061  16.417 -0.0038  1.7833  0.0828
17138TIP3   OH272904   2.806   4.537  13.373  0.3311 -0.1528 -0.1637
17138TIP3    H172905   2.763   4.453  13.355 -0.5823  0.4234 -0.7650
17138TIP3    H272906   2.881   4.514  13.427 -0.0679 -1.3279 -0.0708
17139TIP3   OH272907   1.396   0.976   4.519  0.1904 -0.4017  0.5758
17139TIP3    H172908   1.456   0.912   4.482  1.9921  1.2687  0.4156
17139TIP3    H272909   1.358   0.933   4.595  0.2452 -2.1249 -0.3373
17140TIP3   OH272910   1.767   1.724   4.099 -0.7371  0.1029  0.1423
17140TIP3    H172911   1.800   1.740   4.187 -2.0543  0.4152  0.6092
17140TIP3    H272912   1.836   1.675   4.055  0.9751  2.0151  0.5658
17141TIP3   OH272913   3.243   4.993  14.818  0.0045  0.0546  0.1220
17141TIP3    H172914   3.268   5.067  14.872 -1.6973  0.6677  0.1283
17141TIP3    H272915   3.302   4.998  14.742  0.0514  1.3032  0.2160
17142TIP3   OH272916   6.741   1.341   4.228  0.4966  0.0609 -0.2160
17142TIP3    H172917   6.730   1.394   4.307  1.9801  0.2916 -0.1309
17142TIP3    H272918   6.808   1.276   4.252 -0.8954 -1.5545 -0.4860
17143TIP3   OH272919   3.435   1.319  15.100 -0.6841 -0.0996 -0.7263
17143TIP3    H172920   3.416   1.408  15.129  0.3856  0.3291 -1.2816
17143TIP3    H272921   3.352   1.273  15.107 -0.9487  0.5501  0.9510
17144TIP3   OH272922   0.757   6.475  16.123  0.1411 -0.4060 -0.4215
17144TIP3    H172923   0.759   6.385  16.090 -0.8995  0.1002 -1.9967
17144TIP3    H272924   0.665   6.490  16.145  0.3964  0.1176  0.2874
17145TIP3   OH272925   3.649   2.316   2.647  0.3475 -0.3509 -0.3420
17145TIP3    H172926   3.641   2.411   2.643  0.7766 -0.3482 -1.2750
17145TIP3    H272927   3.743   2.299   2.646  0.4134 -0.7058  2.6114
17146TIP3   OH272928   2.936   5.767   4.114  0.2963 -0.2422  0.2223
17146TIP3    H172929   2.986   5.804   4.187 -1.0900  0.9380  0.6214
17146TIP3    H272930   2.997   5.767   4.041  1.2081  0.1281  0.9588
17147TIP3   OH272931   4.792   5.018  13.861 -0.1565  0.4080  0.3070
17147TIP3    H172932   4.721   5.006  13.925 -0.5632 -1.4037 -0.4074
17147TIP3    H272933   4.839   5.095  13.892  0.4710 -1.1042  3.5459
17148TIP3   OH272934   3.135   5.445   4.466  1.0435  0.1149 -0.2330
17148TIP3    H172935   3.177   5.395   4.396  0.8521  1.0924 -1.0652
17148TIP3    H272936   3.172   5.533   4.459 -0.3206  0.7224 -0.3104
17149TIP3   OH272937   4.003   6.425  12.418 -0.2919 -0.7453 -0.4869
17149TIP3    H172938   4.003   6.365  12.344  2.3458  0.0776 -1.2502
17149TIP3    H272939   3.996   6.512  12.378 -2.5572 -0.3948  0.5108
17150TIP3   OH272940   5.943   1.783  15.062  0.1151 -0.4601 -0.1361
17150TIP3    H172941   6.024   1.832  15.077  0.4943 -0.6209 -1.5261
17150TIP3    H272942   5.973   1.696  15.034 -0.5471 -0.8512  0.3526
17151TIP3   OH272943   0.192   3.067  16.535 -0.2251  0.6605  0.4032
17151TIP3    H172944   0.211   3.143  16.480  0.9759  0.0801 -0.0225
17151TIP3    H272945   0.150   3.004  16.476 -2.3113  1.3990  1.0207
17152TIP3   OH272946   4.071   5.829  16.762  0.2405  0.2911  0.6683
17152TIP3    H172947   4.099   5.915  16.791  0.7455  0.5631 -0.5500
17152TIP3    H272948   4.088   5.772  16.837  2.5983  0.7457  0.5757
17153TIP3   OH272949   5.577   5.772  11.717 -0.0335  0.5468  0.1850
17153TIP3    H172950   5.628   5.766  11.798  1.8371  3.0893 -0.6794
17153TIP3    H272951   5.509   5.836  11.737  0.7694  1.6000 -0.3612
17154TIP3   OH272952   1.261   6.213  12.240  0.5118  0.1895 -0.1791
17154TIP3    H172953   1.337   6.163  12.270  1.2996  0.2714 -1.9011
17154TIP3    H272954   1.293   6.262  12.164 -1.0181  0.9780 -0.3516
17155TIP3   OH272955   1.073   3.052  12.385 -0.3070 -0.0135  0.1776
17155TIP3    H172956   1.087   2.958  12.368  1.8424  0.2182  0.4506
17155TIP3    H272957   0.996   3.054  12.441 -0.7771 -1.5727 -0.3364
17156TIP3   OH272958   0.637   0.990   5.103 -0.0129  0.4990 -0.3378
17156TIP3    H172959   0.619   1.069   5.052 -0.5639  0.4638 -0.2071
17156TIP3    H272960   0.554   0.971   5.147 -0.0922 -0.5454 -0.9147
17157TIP3   OH272961   1.014   6.598  12.073 -0.5458  0.3860 -0.8090
17157TIP3    H172962   0.994   6.568  12.161 -2.7313 -0.7893 -1.6384
17157TIP3    H272963   0.936   6.646  12.045 -0.0390  0.4541 -2.2220
17158TIP3   OH272964   4.558   5.524  13.021  0.1477  0.1015  0.0309
17158TIP3    H172965   4.587   5.433  13.025 -1.1482 -0.3452 -0.3772
17158TIP3    H272966   4.576   5.559  13.109 -0.0901 -0.7878  0.4427
17159TIP3   OH272967   5.565   0.428   3.122 -0.1326  0.3559  0.1298
17159TIP3    H172968   5.614   0.510   3.120  1.4853 -0.3803  3.4055
17159TIP3    H272969   5.627   0.364   3.157 -2.4221 -1.4394  1.1442
17160TIP3   OH272970   4.097   4.225  11.811 -0.1065  1.0531  0.2186
17160TIP3    H172971   4.016   4.182  11.783 -0.5989  2.0115  0.1281
17160TIP3    H272972   4.167   4.168  11.778 -0.7154  0.9320 -0.9284
17161TIP3   OH272973   5.448   4.343  13.069 -0.2554  0.5491  0.1907
17161TIP3    H172974   5.518   4.408  13.058 -0.9970  1.4907  0.8445
17161TIP3    H272975   5.452   4.289  12.990 -0.9464  2.6801 -1.3964
17162TIP3   OH272976   1.869   0.025   5.477  0.4324 -0.4617  0.3241
17162TIP3    H172977   1.877   0.120   5.463  0.5108 -0.3431  1.1041
17162TIP3    H272978   1.862  -0.012   5.390  0.2723  0.2807  0.0171
17163TIP3   OH272979   4.176   3.232  11.298 -0.4243 -0.3696  0.1128
17163TIP3    H172980   4.117   3.303  11.273 -0.3444 -0.4971 -0.4384
17163TIP3    H272981   4.121   3.154  11.301 -0.0820 -0.7115 -1.5514
17164TIP3   OH272982   3.867   4.081   5.584 -0.0647  0.1076 -0.1921
17164TIP3    H172983   3.834   4.168   5.608  0.4683  0.6426 -1.2999
17164TIP3    H272984   3.887   4.039   5.667 -0.3518  1.0424  0.3649
17165TIP3   OH272985   2.512   3.195   1.281 -0.0705  0.2013 -0.2941
17165TIP3    H172986   2.498   3.278   1.326 -2.5053  0.1068 -0.7512
17165TIP3    H272987   2.440   3.190   1.218 -0.2465 -2.4334  0.0175
17166TIP3   OH272988   5.740   0.072   1.618 -0.8152 -0.2749 -0.0799
17166TIP3    H172989   5.696   0.125   1.552 -0.2216 -0.9121 -1.0200
17166TIP3    H272990   5.830   0.105   1.621 -0.9105 -0.0561  0.6335
17167TIP3   OH272991   4.393   6.428   4.121 -0.1009  0.2433  0.1892
17167TIP3    H172992   4.328   6.498   4.125 -3.8306 -2.7474 -1.9726
17167TIP3    H272993   4.378   6.385   4.037  3.6842 -1.7247  0.2783
17168TIP3   OH272994   5.731   0.084   2.567 -0.0657  0.5304 -0.3718
17168TIP3    H172995   5.809   0.133   2.543  0.7517 -0.0531  1.0034
17168TIP3    H272996   5.684   0.141   2.627 -0.1603  0.4503 -0.3695
17169TIP3   OH272997   1.958   1.978   3.364 -0.3646  0.2263 -0.3860
17169TIP3    H172998   1.911   1.929   3.297  0.3568 -1.4640  0.2978
17169TIP3    H272999   1.909   1.963   3.444  0.5480 -0.4347  0.0715
17170TIP3   OH273000   0.619   5.429  14.805  0.1347 -0.6082 -0.0366
17170TIP3    H173001   0.653   5.507  14.762 -2.9078  0.8890  0.0344
17170TIP3    H273002   0.654   5.434  14.894  0.6874  0.1993 -0.2874
17171TIP3   OH273003   3.843   6.490  14.597  0.1179  0.0485 -0.1160
17171TIP3    H173004   3.861   6.396  14.596  1.2048  0.2415  0.1027
17171TIP3    H273005   3.799   6.506  14.513 -0.9540 -0.7997  0.2586
17172TIP3   OH273006   2.760   0.754  13.764 -0.4080 -0.2329 -0.0058
17172TIP3    H173007   2.729   0.733  13.851 -0.6099  0.6973  0.1635
17172TIP3    H273008   2.681   0.766  13.712 -0.3027 -2.3032 -0.7416
17173TIP3   OH273009   6.447   3.516   2.393 -0.1243 -0.1947  0.5775
17173TIP3    H173010   6.451   3.517   2.297  2.3983 -3.2042  0.4599
17173TIP3    H273011   6.455   3.608   2.418  0.2443  0.6030 -2.0920
17174TIP3   OH273012   1.096   4.517  10.672 -0.1695  0.2093 -0.2868
17174TIP3    H173013   1.164   4.465  10.630 -0.2002 -1.0769  1.1930
17174TIP3    H273014   1.014   4.480  10.640 -0.1874 -0.1976  0.2274
17175TIP3   OH273015   4.016   1.142   5.597  0.2121 -0.3135 -0.2780
17175TIP3    H173016   3.948   1.134   5.663  1.3382  0.4296  1.0301
17175TIP3    H273017   3.978   1.104   5.518 -1.0077 -1.6494  0.9011
17176TIP3   OH273018   4.598   0.812  12.360  0.1749 -0.5150  0.0340
17176TIP3    H173019   4.662   0.883  12.359  1.1347 -1.3554  0.2783
17176TIP3    H273020   4.634   0.745  12.302 -0.6932 -0.8312 -0.1602
17177TIP3   OH273021   4.291   3.277  16.193 -0.0412 -0.5068 -0.0305
17177TIP3    H173022   4.264   3.277  16.284  0.8034 -1.5994  0.2491
17177TIP3    H273023   4.209   3.283  16.143 -0.5426 -0.4656  0.7904
17178TIP3   OH273024   2.026   2.585   0.426 -0.4063  0.5687  0.2213
17178TIP3    H173025   1.979   2.556   0.504 -1.6966  0.0582 -0.6962
17178TIP3    H273026   1.966   2.565   0.354 -0.3355  3.3176 -0.7012
17179TIP3   OH273027   2.053   1.951  12.329  0.0547 -0.2259  0.3442
17179TIP3    H173028   2.114   1.971  12.399  0.0843  0.4520  0.1302
17179TIP3    H273029   2.046   2.032  12.278  2.2835 -1.4596 -2.1904
17180TIP3   OH273030   5.970   5.531  11.242 -0.1800 -0.1471  0.3501
17180TIP3    H173031   6.002   5.619  11.262  2.3680 -0.7787 -0.5801
17180TIP3    H273032   5.958   5.531  11.147 -3.1861  0.0324  0.6198
17181TIP3   OH273033   2.491   0.432   2.672  0.3402  0.1983 -0.6505
17181TIP3    H173034   2.482   0.345   2.632 -0.1910 -0.2620  0.4324
17181TIP3    H273035   2.530   0.415   2.757  2.1216  1.2356 -1.2121
17182TIP3   OH273036   3.067   2.526   0.210 -0.0343 -0.0735  0.4473
17182TIP3    H173037   3.145   2.566   0.248 -0.1332  0.9986 -0.4365
17182TIP3    H273038   3.095   2.437   0.188  0.3900 -0.3036  1.8029
17183TIP3   OH273039   3.907   5.119  13.427 -0.0180  0.4233 -0.1348
17183TIP3    H173040   3.928   5.206  13.394  2.1449  1.2975  3.0091
17183TIP3    H273041   3.941   5.058  13.361  3.7859  1.9998  0.1211
17184TIP3   OH273042   3.001   1.230  14.236  0.2566 -0.5290  0.1494
17184TIP3    H173043   3.017   1.210  14.143  0.6457 -0.2940  0.1608
17184TIP3    H273044   2.933   1.296  14.235  1.1030  0.3702 -0.0379
17185TIP3   OH273045   2.296   6.051  11.023 -0.7220  0.3853 -0.1456
17185TIP3    H173046   2.336   6.058  10.937  0.4559  0.2176  0.3639
17185TIP3    H273047   2.334   5.972  11.061 -3.5312 -1.3211 -0.6183
17186TIP3   OH273048   5.198   3.873   1.349 -0.0920  0.4870 -0.3457
17186TIP3    H173049   5.241   3.951   1.313  0.2318  1.6201  2.2098
17186TIP3    H273050   5.207   3.883   1.444  0.4572 -2.9932  0.0992
17187TIP3   OH273051   2.479   3.478   1.614 -0.6480 -0.2668  0.7375
17187TIP3    H173052   2.464   3.570   1.638  0.0684  0.4276 -1.2638
17187TIP3    H273053   2.573   3.473   1.599 -0.5546 -1.5654  1.5739
17188TIP3   OH273054   5.108   0.915  14.030 -0.4272 -0.1574 -0.2900
17188TIP3    H173055   5.060   0.998  14.027  2.3325  1.5739 -0.9110
17188TIP3    H273056   5.061   0.858  13.971 -2.2870  1.0316 -0.0455
17189TIP3   OH273057   6.761   4.856   0.368 -0.0746 -0.2047 -0.1431
17189TIP3    H173058   6.816   4.816   0.435 -0.5417  1.5602  1.3959
17189TIP3    H273059   6.718   4.782   0.325  0.6475 -1.4360  1.1495
17190TIP3   OH273060   3.943   5.735  12.038 -0.9476 -0.3221 -0.3174
17190TIP3    H173061   3.914   5.647  12.060 -0.2436 -0.6678 -0.7526
17190TIP3    H273062   4.033   5.724  12.006 -0.5799  0.6390  0.3316
17191TIP3   OH273063   5.740   0.775  16.188 -0.2760 -0.3565 -0.0130
17191TIP3    H173064   5.812   0.835  16.210  0.0764 -1.1596  1.1376
17191TIP3    H273065   5.775   0.722  16.117 -0.7382  1.0316 -1.3254
17192TIP3   OH273066   1.712   4.587  13.686 -0.4994 -0.2013  0.3923
17192TIP3    H173067   1.693   4.681  13.680  0.5166  0.0088  0.3065
17192TIP3    H273068   1.776   4.570  13.617  0.9881 -0.4943  1.7792
17193TIP3   OH273069   4.562   0.008  12.541  0.0445  0.0260 -0.9286
17193TIP3    H173070   4.514  -0.072  12.519  1.1924 -1.1312  0.4939
17193TIP3    H273071   4.507   0.051  12.607  0.2826 -0.5935 -0.3066
17194TIP3   OH273072   2.173   3.908   2.101  0.3439 -0.1504  0.0283
17194TIP3    H173073   2.163   3.887   2.194 -1.1728 -1.6735 -0.4352
17194TIP3    H273074   2.215   3.831   2.064 -1.4072 -0.6697 -0.9764
17195TIP3   OH273075   2.292   5.579  10.982  0.2637 -0.2088  0.0236
17195TIP3    H173076   2.255   5.514  11.042 -2.2388  1.2528  0.2118
17195TIP3    H273077   2.260   5.552  10.896 -0.7239  0.6848  0.0937
17196TIP3   OH273078   6.099   1.528  16.476  0.1133  0.8756 -0.3696
17196TIP3    H173079   6.119   1.448  16.426  0.4404  1.1922 -0.7555
17196TIP3    H273080   6.178   1.543  16.528 -0.5142  0.1075  0.8641
17197TIP3   OH273081   6.777   3.476  11.229  0.0538  0.3075 -0.3862
17197TIP3    H173082   6.700   3.420  11.223 -0.4322  1.1023 -2.4624
17197TIP3    H273083   6.743   3.564  11.240  0.6971  0.5789 -0.4805
17198TIP3   OH273084   0.514   5.863   0.622 -0.2022  0.2223 -0.1323
17198TIP3    H173085   0.571   5.901   0.689 -1.9369  2.2416  0.3009
17198TIP3    H273086   0.510   5.930   0.554 -0.3514 -0.8095 -1.1545
17199TIP3   OH273087   4.136   0.718  12.800  0.5484  0.0788 -0.0451
17199TIP3    H173088   4.137   0.768  12.882  1.0875  1.0982 -0.6530
17199TIP3    H273089   4.051   0.673  12.801  0.4021  0.3497  0.9087
17200TIP3   OH273090   6.375   6.807  14.979  0.5108  0.3101 -0.9090
17200TIP3    H173091   6.307   6.874  14.981  0.6245  0.4242 -0.7807
17200TIP3    H273092   6.371   6.770  14.891  0.6052  0.6494 -1.0571
17201TIP3   OH273093   0.701   4.330  11.239  0.3320  0.3562 -0.1414
17201TIP3    H173094   0.759   4.390  11.192  0.0089  0.3958 -0.4878
17201TIP3    H273095   0.648   4.289  11.171 -0.9797  1.3067  0.2646
17202TIP3   OH273096   3.383   5.352   1.973 -0.6533 -0.2570 -0.5550
17202TIP3    H173097   3.359   5.433   2.019  0.3543 -0.7217  0.8915
17202TIP3    H273098   3.367   5.371   1.881 -0.3181  1.6572 -0.2714
17203TIP3   OH273099   3.723   3.445  16.761  0.2337  0.2596  0.1049
17203TIP3    H173100   3.634   3.413  16.776 -0.1654  1.7730  1.1556
17203TIP3    H273101   3.716   3.500  16.683 -0.1040  1.6318  1.0765
17204TIP3   OH273102   1.424   1.523  13.143  0.0155 -0.7676  0.0940
17204TIP3    H173103   1.415   1.573  13.062  2.3484  1.6483  1.1876
17204TIP3    H273104   1.337   1.488  13.158 -0.8044 -0.2679 -2.7817
17205TIP3   OH273105   3.784   6.557  12.581 -0.4750  0.3665 -0.1407
17205TIP3    H173106   3.859   6.496  12.579 -2.0057 -1.7847  1.8294
17205TIP3    H273107   3.758   6.566  12.490 -0.8412 -2.9569 -0.5141
17206TIP3   OH273108   6.418   4.779   6.463 -0.3476 -0.3581 -0.0078
17206TIP3    H173109   6.442   4.866   6.496 -0.5665 -0.4501  0.3980
17206TIP3    H273110   6.323   4.784   6.451 -0.0505  0.3533 -2.6172
17207TIP3   OH273111   0.404   2.346   3.116  0.0483  0.0986  0.2914
17207TIP3    H173112   0.324   2.294   3.122 -0.9587  1.5988  0.4084
17207TIP3    H273113   0.429   2.342   3.024  0.0086 -0.5886  0.3009
17208TIP3   OH273114   4.730   0.429  11.159  0.0938  0.5994  0.4253
17208TIP3    H173115   4.813   0.420  11.113 -0.2999 -0.7169 -0.0955
17208TIP3    H273116   4.738   0.510  11.209  1.8259  0.3236  0.6631
17209TIP3   OH273117   3.847   5.471  13.761  0.2310 -0.8017  0.0194
17209TIP3    H173118   3.803   5.497  13.680 -0.7082 -0.6993  0.5438
17209TIP3    H273119   3.871   5.379  13.747  1.5647 -0.3375 -0.9857
17210TIP3   OH273120   2.743   3.646  14.546 -0.5369  0.0914 -0.2328
17210TIP3    H173121   2.837   3.661  14.535 -0.3676 -0.5973  0.1799
17210TIP3    H273122   2.719   3.700  14.621 -0.0112 -1.3480  1.0156
17211TIP3   OH273123   5.914   5.903  13.520  0.0114 -0.8421 -0.3199
17211TIP3    H173124   5.891   5.812  13.535 -0.0908 -0.6430  0.7629
17211TIP3    H273125   5.931   5.939  13.607 -0.0944  0.2126 -0.7183
17212TIP3   OH273126   0.719   1.575  13.005 -0.0851 -0.0266 -0.4702
17212TIP3    H173127   0.629   1.542  13.004 -0.1118 -0.2987  2.3549
17212TIP3    H273128   0.772   1.499  12.981 -0.4605 -0.7953  1.0072
17213TIP3   OH273129   5.482   6.546  15.071 -0.0566  0.3597  0.1519
17213TIP3    H173130   5.412   6.611  15.061 -1.1458 -0.9289 -0.8811
17213TIP3    H273131   5.437   6.462  15.073  1.5336 -0.6262 -1.9615
17214TIP3   OH273132   2.476   3.928  12.674  0.1396  0.1889  0.2102
17214TIP3    H173133   2.525   3.882  12.607 -1.4024 -0.2241 -0.6748
17214TIP3    H273134   2.434   4.001  12.629 -2.7871 -1.3881  0.1044
17215TIP3   OH273135   5.354   3.914   5.475 -0.2659 -0.2953  0.8611
17215TIP3    H173136   5.389   3.935   5.389 -0.0470 -0.8424  0.8155
17215TIP3    H273137   5.261   3.898   5.460 -0.3865  0.3763  0.8557
17216TIP3   OH273138   0.851   0.702  13.051  0.2949  0.3483 -0.3630
17216TIP3    H173139   0.808   0.620  13.028 -1.3440  0.9533  0.3362
17216TIP3    H273140   0.836   0.759  12.975 -0.3896  0.6271 -0.0351
17217TIP3   OH273141   0.337   3.632   1.800  0.2093  0.5663 -1.2438
17217TIP3    H173142   0.280   3.709   1.805  1.2779  1.5469 -2.9945
17217TIP3    H273143   0.311   3.588   1.719  0.3612 -0.2884 -0.8339
17218TIP3   OH273144   6.658   1.267   4.875  0.5663  0.2139 -0.3019
17218TIP3    H173145   6.684   1.217   4.952 -1.7391  2.1555  1.9110
17218TIP3    H273146   6.690   1.356   4.893 -1.1362  0.9896 -0.9039
17219TIP3   OH273147   1.747   0.967  15.206  0.3257 -0.1060  0.2784
17219TIP3    H173148   1.755   1.026  15.130 -2.4821  0.1634  0.0914
17219TIP3    H273149   1.739   0.880  15.167 -1.3270  0.0537  0.1906
17220TIP3   OH273150   2.653   0.146  11.342  0.0757  0.2030 -0.2420
17220TIP3    H173151   2.695   0.089  11.277 -1.2836 -1.7594  0.5086
17220TIP3    H273152   2.561   0.122  11.338 -0.1927  0.8114  1.6393
17221TIP3   OH273153   6.054   3.721  16.032  0.1233  0.3402 -0.5627
17221TIP3    H173154   6.013   3.702  16.117 -0.9317  1.6112 -0.7561
17221TIP3    H273155   6.011   3.663  15.970 -1.6986  1.8646 -0.8172
17222TIP3   OH273156   6.645   6.612   3.399  0.0062 -0.0937 -0.1870
17222TIP3    H173157   6.732   6.604   3.362 -0.4301  0.6334 -1.4305
17222TIP3    H273158   6.592   6.651   3.329 -1.0635  0.4865  0.8981
17223TIP3   OH273159   6.063   3.815   4.382 -0.0358 -0.6336  0.2915
17223TIP3    H173160   6.155   3.808   4.356 -0.0840  0.8173 -0.3504
17223TIP3    H273161   6.066   3.857   4.468 -0.1301  2.7005 -1.1607
17224TIP3   OH273162   5.266   1.341  17.041 -0.1757 -0.1967  0.4129
17224TIP3    H173163   5.255   1.252  17.009 -1.5445  0.3167 -0.6658
17224TIP3    H273164   5.183   1.385  17.019  0.8800  1.6391 -0.1180
17225TIP3   OH273165   1.170   5.685  16.246  0.5667  0.0563  0.6127
17225TIP3    H173166   1.247   5.728  16.210  1.0360 -0.9655  0.3646
17225TIP3    H273167   1.115   5.666  16.170  0.1507  0.6081  0.7687
17226TIP3   OH273168   0.908   4.712   1.243 -0.1111 -0.4453 -0.1363
17226TIP3    H173169   0.815   4.727   1.227  0.1461  1.0552 -0.3219
17226TIP3    H273170   0.939   4.792   1.284  1.6455  0.1570 -2.4251
17227TIP3   OH273171   0.595   4.774   4.643 -0.3061  0.6547  0.1131
17227TIP3    H173172   0.510   4.740   4.613  0.8185 -0.1307 -2.5098
17227TIP3    H273173   0.577   4.863   4.673 -2.5386 -0.5200  2.6450
17228TIP3   OH273174   3.452   6.332  14.738  0.3067  0.4503 -0.1814
17228TIP3    H173175   3.501   6.406  14.774 -2.0888  1.8949  0.2931
17228TIP3    H273176   3.435   6.357  14.647  0.1930  0.0925 -0.2592
17229TIP3   OH273177   6.422   3.993  14.361 -0.3765  0.9007  0.1428
17229TIP3    H173178   6.454   4.081  14.377 -0.6579  0.8741  0.9007
17229TIP3    H273179   6.498   3.944  14.330  0.2994  0.8790  1.7462
17230TIP3   OH273180   4.593   5.953   0.594  0.0013  0.3555  0.2680
17230TIP3    H173181   4.578   5.956   0.688 -0.1469 -0.7745  0.2886
17230TIP3    H273182   4.686   5.976   0.584  0.5926 -1.6345  0.8784
17231TIP3   OH273183   4.348   0.702   0.329  0.2078 -0.1390 -0.0627
17231TIP3    H173184   4.305   0.617   0.316  1.2947 -0.3941 -2.7864
17231TIP3    H273185   4.276   0.765   0.334 -0.5716 -1.0345  0.3344
17232TIP3   OH273186   6.007   1.102  10.562  0.0698  0.0731  0.3557
17232TIP3    H173187   5.987   1.046  10.487  2.3793  3.1421 -2.8385
17232TIP3    H273188   5.928   1.154  10.575  0.6524  1.8114 -2.3045
17233TIP3   OH273189   5.942   1.032  11.073 -0.2280 -0.4759 -0.1700
17233TIP3    H173190   5.910   1.112  11.115  0.2723  0.8479 -2.1301
17233TIP3    H273191   6.032   1.054  11.048  0.1007 -1.8629 -0.2624
17234TIP3   OH273192   5.279   4.275   0.062  0.0198 -0.5715 -0.0232
17234TIP3    H173193   5.283   4.185   0.030  1.6048 -1.1991  1.7283
17234TIP3    H273194   5.367   4.310   0.046 -0.0170  0.0205  0.9787
17235TIP3   OH273195   6.648   1.159  11.759 -0.0205  0.2131  0.6774
17235TIP3    H173196   6.560   1.124  11.751 -0.1181  0.2721  1.4118
17235TIP3    H273197   6.639   1.252  11.737  0.2436 -0.1799 -1.2949
17236TIP3   OH273198   4.120   0.613  15.965  0.4653  0.3553 -0.7053
17236TIP3    H173199   4.048   0.582  15.910  0.8146  1.3437 -1.7623
17236TIP3    H273200   4.167   0.534  15.990 -0.3939 -0.2171 -0.8423
17237TIP3   OH273201   1.780   5.446   6.153  0.4482 -0.0125 -0.2996
17237TIP3    H173202   1.868   5.474   6.128  0.0254 -0.1107 -2.0050
17237TIP3    H273203   1.749   5.514   6.213  1.8264 -0.1979  0.6616
17238TIP3   OH273204   4.466   4.727   5.864 -0.2092  0.2733  0.5103
17238TIP3    H173205   4.562   4.723   5.861 -0.1597  1.3149 -0.0932
17238TIP3    H273206   4.445   4.742   5.956  0.4241  3.0861  0.3085
17239TIP3   OH273207   1.564   5.135  16.510 -0.1006  0.7552  0.3942
17239TIP3    H173208   1.591   5.066  16.450 -1.6104  2.4860 -2.4728
17239TIP3    H273209   1.528   5.088  16.586  0.3272 -1.5689 -0.7439
17240TIP3   OH273210   4.520   4.068   3.937 -0.3435 -0.1638 -0.2006
17240TIP3    H173211   4.599   4.122   3.942  0.1566 -0.8078 -0.9266
17240TIP3    H273212   4.448   4.129   3.952  0.1912  0.7899 -1.3509
17241TIP3   OH273213   2.384   6.639  11.604 -0.1019 -0.0295 -0.0885
17241TIP3    H173214   2.378   6.601  11.692 -1.0157  0.6938  0.1682
17241TIP3    H273215   2.422   6.726  11.617 -0.7210  0.2870 -0.3449
17242TIP3   OH273216   5.776   0.977   0.043  0.1509 -0.0393  0.1294
17242TIP3    H173217   5.868   0.950   0.044 -0.2990 -1.7871 -0.7729
17242TIP3    H273218   5.758   1.004   0.132  1.3679 -0.3311  0.4923
17243TIP3   OH273219   6.155   4.916   2.868  0.2981 -0.1648  0.3905
17243TIP3    H173220   6.247   4.916   2.840  0.2665  0.8476  0.2241
17243TIP3    H273221   6.106   4.899   2.788  0.3068  0.2387  0.2976
17244TIP3   OH273222   6.451   0.785   2.297 -0.5076 -0.6066 -0.0521
17244TIP3    H173223   6.462   0.718   2.364  0.5671 -1.4659 -1.0479
17244TIP3    H273224   6.374   0.756   2.247 -0.9503 -0.2787  0.4244
17245TIP3   OH273225   5.013   1.363   3.208 -0.0431  0.3381 -0.0687
17245TIP3    H173226   5.028   1.310   3.129  1.6106  0.3050  0.2392
17245TIP3    H273227   5.100   1.394   3.233 -0.1899 -1.3208  2.9185
17246TIP3   OH273228   2.600   4.733   2.452  0.3026 -0.1390  0.5618
17246TIP3    H173229   2.595   4.668   2.381 -0.0483 -0.3710  0.7961
17246TIP3    H273230   2.541   4.803   2.424  1.2123  0.4152 -0.0234
17247TIP3   OH273231   3.530   3.675  13.251  0.4701  0.1066  0.5231
17247TIP3    H173232   3.577   3.598  13.283  0.8767 -0.1328 -0.5914
17247TIP3    H273233   3.595   3.723  13.200 -0.0415  0.6730  0.3903
17248TIP3   OH273234   4.273   1.632  13.720  0.5077 -0.1214 -0.0600
17248TIP3    H173235   4.363   1.602  13.708  0.3939 -0.2403 -0.6830
17248TIP3    H273236   4.275   1.687  13.798  1.0550 -0.3869  0.1124
17249TIP3   OH273237   6.148   0.525  13.955  0.0927  0.1855 -0.2663
17249TIP3    H173238   6.158   0.465  14.029  0.3412 -0.2020 -0.6092
17249TIP3    H273239   6.180   0.476  13.880  0.2774  0.7442 -0.5578
17250TIP3   OH273240   1.049   0.385   0.262  0.2630  0.1017 -0.5885
17250TIP3    H173241   1.138   0.380   0.227  0.3790 -0.0097 -0.2785
17250TIP3    H273242   1.025   0.477   0.251 -0.0578 -0.1030 -1.8184
17251TIP3   OH273243   5.741   3.191   0.372  0.0107 -0.4043 -0.3580
17251TIP3    H173244   5.761   3.279   0.339 -0.4929 -0.2390 -0.2417
17251TIP3    H273245   5.782   3.132   0.309  1.6985 -0.0953  0.3922
17252TIP3   OH273246   1.161   3.345  13.166 -0.1153  0.0522  0.5515
17252TIP3    H173247   1.076   3.353  13.122 -0.3484  0.9267  1.1235
17252TIP3    H273248   1.139   3.331  13.259  0.3695 -0.8588  0.5386
17253TIP3   OH273249   4.326   6.690  12.503  0.1005  0.5731 -0.4770
17253TIP3    H173250   4.268   6.762  12.480 -0.8388 -0.1608 -0.4914
17253TIP3    H273251   4.283   6.648  12.578  0.3681 -0.2624 -0.7806
17254TIP3   OH273252   6.187   3.035  12.770 -0.4729 -0.9224  0.2954
17254TIP3    H173253   6.241   2.974  12.821 -0.9889 -0.3552  1.5769
17254TIP3    H273254   6.098   3.021  12.804 -1.0770 -1.4532 -1.3877
17255TIP3   OH273255   2.010   4.932   3.538  0.5584 -0.1169  0.2623
17255TIP3    H173256   2.018   4.855   3.481  1.2896  1.1289 -1.4228
17255TIP3    H273257   2.092   4.934   3.587  2.8260  2.0874 -3.1518
17256TIP3   OH273258   0.773   3.451  15.972 -0.1370 -0.0662  0.2599
17256TIP3    H173259   0.828   3.515  16.017  0.8910  0.1754 -1.2574
17256TIP3    H273260   0.813   3.367  15.990  0.7448  0.1052 -0.8083
17257TIP3   OH273261   2.774   0.848  15.785 -0.0282  0.3159  0.2930
17257TIP3    H173262   2.848   0.899  15.754 -0.1022  1.3508  1.7126
17257TIP3    H273263   2.721   0.832  15.707  1.4937 -0.1762 -0.6911
17258TIP3   OH273264   2.200   3.937  14.164 -0.2643  0.2310  0.9514
17258TIP3    H173265   2.134   3.926  14.096 -0.7865  2.3360  1.0205
17258TIP3    H273266   2.176   3.875  14.232 -1.0333 -0.3734  0.1415
17259TIP3   OH273267   2.496   4.413  14.908  0.0653  0.1886 -0.4394
17259TIP3    H173268   2.407   4.442  14.927  0.4936  1.5379 -0.4253
17259TIP3    H273269   2.522   4.462  14.831  0.7257 -0.3550 -0.5737
17260TIP3   OH273270   5.857   0.122   0.546  0.1409  0.4215  0.0338
17260TIP3    H173271   5.913   0.090   0.476 -0.7407 -2.3720  0.4590
17260TIP3    H273272   5.917   0.152   0.614  1.1833 -1.7796  0.1658
17261TIP3   OH273273   1.981   0.570   2.376 -0.0662  0.3134 -0.5246
17261TIP3    H173274   1.895   0.528   2.374 -0.4572  1.0750 -0.2362
17261TIP3    H273275   2.030   0.522   2.443 -0.5707  0.4388 -0.0616
17262TIP3   OH273276   5.100   2.193  10.288 -0.7171  0.2641 -0.7834
17262TIP3    H173277   5.095   2.114  10.235 -0.0588  0.2231 -0.7971
17262TIP3    H273278   5.032   2.182  10.355 -1.0078 -0.0490 -1.1246
17263TIP3   OH273279   3.981   4.809  16.805  0.3586 -0.2295  0.4596
17263TIP3    H173280   4.029   4.799  16.887  0.8606 -0.6886  0.1168
17263TIP3    H273281   3.889   4.808  16.830  0.5252  1.3217  1.1952
17264TIP3   OH273282   3.773   2.567   0.586  0.4827  0.4975  0.4440
17264TIP3    H173283   3.798   2.479   0.614 -0.6719 -0.4332 -1.2597
17264TIP3    H273284   3.849   2.601   0.540 -0.4879 -1.5031 -2.9404
17265TIP3   OH273285   1.107   3.929  11.302  0.0028  0.2000  0.1141
17265TIP3    H173286   1.059   4.005  11.269 -0.4917 -0.2411 -0.2131
17265TIP3    H273287   1.168   3.964  11.366 -1.5119  0.6782  1.3758
17266TIP3   OH273288   0.399   3.566  14.149 -0.6268  0.5096 -0.0020
17266TIP3    H173289   0.327   3.581  14.210  0.3465  0.4491  1.2014
17266TIP3    H273290   0.433   3.480  14.173 -0.4523  0.3282 -0.8753
17267TIP3   OH273291   4.528   4.199   5.572  0.1016  0.5268  0.4208
17267TIP3    H173292   4.504   4.259   5.502 -2.6027  0.1205  0.8744
17267TIP3    H273293   4.444   4.169   5.607  1.3695 -0.9457  2.4065
17268TIP3   OH273294   5.969   4.929   1.657  0.0896  0.0235 -0.2484
17268TIP3    H173295   5.893   4.985   1.639 -1.2125 -1.1903  1.2130
17268TIP3    H273296   6.040   4.990   1.676 -0.8992  1.1864 -0.1740
17269TIP3   OH273297   1.651   5.827   0.967  0.6662  0.2156 -0.3827
17269TIP3    H173298   1.637   5.839   1.061  1.3508  1.7301 -0.4438
17269TIP3    H273299   1.564   5.838   0.928 -0.0969 -2.8671  0.2197
17270TIP3   OH273300   0.022   6.296   1.444 -0.1376  0.1320 -0.0351
17270TIP3    H173301   0.109   6.333   1.454  0.5656 -1.4366 -0.1121
17270TIP3    H273302  -0.008   6.329   1.359  0.4356  0.5549 -0.0765
17271TIP3   OH273303   6.099   3.942  12.776 -0.1416 -0.6172  0.1654
17271TIP3    H173304   6.017   3.912  12.816 -0.0529  0.6740  1.3899
17271TIP3    H273305   6.073   4.016  12.722  0.3003  0.2734  1.1499
17272TIP3   OH273306   6.766   1.877   3.114 -0.6918  0.2575 -0.0592
17272TIP3    H173307   6.780   1.941   3.045 -0.2938  0.4516  0.1975
17272TIP3    H273308   6.744   1.796   3.067  1.7826 -0.2199 -0.5716
17273TIP3   OH273309   6.099   2.003   1.741  0.0425  0.5074 -0.5656
17273TIP3    H173310   6.076   2.088   1.703 -1.4336  0.0237 -0.8384
17273TIP3    H273311   6.017   1.971   1.778  0.1674 -1.4992 -1.8627
17274TIP3   OH273312   2.965   4.571   0.965 -0.1128  0.3046  0.2550
17274TIP3    H173313   2.918   4.488   0.964  0.4888 -0.0610  0.9107
17274TIP3    H273314   2.897   4.638   0.957 -0.7348 -0.2054  1.1617
17275TIP3   OH273315   6.322   2.765   1.919 -0.4341  0.1486 -0.2467
17275TIP3    H173316   6.340   2.787   2.011 -0.6033  1.0284 -0.4187
17275TIP3    H273317   6.408   2.741   1.883 -0.2020  0.7923 -0.1223
17276TIP3   OH273318   2.483   3.290  16.497  0.3223  0.1587  0.0342
17276TIP3    H173319   2.417   3.318  16.434  0.6446  0.4659 -0.1682
17276TIP3    H273320   2.559   3.346  16.480  0.7652 -0.4401  0.0188
17277TIP3   OH273321   1.453   4.102  16.081 -0.2346 -0.5826  0.1215
17277TIP3    H173322   1.493   4.054  16.154  0.1145 -2.6007 -1.3001
17277TIP3    H273323   1.369   4.057  16.067 -0.4258 -0.0282 -0.5196
17278TIP3   OH273324   0.001   6.640  14.546  0.6651  0.0548 -0.4271
17278TIP3    H173325  -0.034   6.664  14.632  0.5173  0.5259 -0.6101
17278TIP3    H273326  -0.022   6.548  14.536 -0.4851  0.3252 -0.5045
17279TIP3   OH273327   4.748   2.043  15.891  0.4256  0.4769  0.1132
17279TIP3    H173328   4.674   2.083  15.846  1.3326  0.9651 -1.0095
17279TIP3    H273329   4.808   2.018  15.820  1.7334  0.9066  1.0333
17280TIP3   OH273330   2.490   3.614  14.239  0.3403 -0.4577  0.0292
17280TIP3    H173331   2.568   3.565  14.267  1.6202  0.4888 -1.6923
17280TIP3    H273332   2.447   3.557  14.176  0.5426 -0.3204 -0.2339
17281TIP3   OH273333   1.278   2.320  15.793 -0.0470 -0.3912  0.0465
17281TIP3    H173334   1.199   2.277  15.760  1.7622 -3.0826 -1.1391
17281TIP3    H273335   1.274   2.408  15.756 -2.1823 -0.6297 -0.4518
17282TIP3   OH273336   0.449   6.337   2.658  0.6051  0.1245  0.2181
17282TIP3    H173337   0.465   6.248   2.627  2.1616  0.8523 -1.2093
17282TIP3    H273338   0.455   6.331   2.754  1.8801 -1.0873  0.0854
17283TIP3   OH273339   5.988   4.309   0.226 -0.1044  0.3366  0.5832
17283TIP3    H173340   5.973   4.362   0.148  0.1655  0.2581  0.4789
17283TIP3    H273341   5.913   4.328   0.282  0.1129  1.0159  0.6522
17284TIP3   OH273342   0.080   4.936  13.783 -0.4787  0.2142  0.0430
17284TIP3    H173343   0.015   4.956  13.850 -0.5964  1.5189 -0.4273
17284TIP3    H273344   0.045   4.859  13.738 -0.1639 -0.9886  1.7376
17285TIP3   OH273345   3.886   3.420  14.085  0.2779  0.1950  0.2663
17285TIP3    H173346   3.909   3.403  13.994 -1.1179 -0.1573 -0.0397
17285TIP3    H273347   3.863   3.335  14.121  0.7956  0.3365  0.9529
17286TIP3   OH273348   3.812   1.906   6.131  0.5448 -0.2428  0.7601
17286TIP3    H173349   3.755   1.972   6.169  0.0791  0.3878 -0.9635
17286TIP3    H273350   3.877   1.955   6.081 -0.0499 -1.0392 -0.8950
17287TIP3   OH273351   4.755   4.620   1.667  0.0434  0.0598 -0.0703
17287TIP3    H173352   4.757   4.550   1.733  0.4743  1.2123  1.1810
17287TIP3    H273353   4.776   4.576   1.585  3.1245 -0.8818  1.0753
17288TIP3   OH273354   6.592   6.238   0.773  0.0155  0.1431  0.0539
17288TIP3    H173355   6.534   6.168   0.804 -1.6944  0.8807 -1.2762
17288TIP3    H273356   6.603   6.295   0.848  0.8334 -1.1305  0.9510
17289TIP3   OH273357   2.411   1.518  16.350 -0.9673 -0.4050 -0.0663
17289TIP3    H173358   2.345   1.539  16.283 -2.2541 -0.3708  1.1614
17289TIP3    H273359   2.480   1.583  16.337 -1.3336 -0.2143 -1.1634
17290TIP3   OH273360   6.045   5.624   0.707  0.6493 -0.3510 -0.0474
17290TIP3    H173361   5.959   5.629   0.750  1.7318  0.7743  2.1271
17290TIP3    H273362   6.024   5.619   0.614 -1.7712 -0.0487  0.4038
17291TIP3   OH273363   5.425   4.356  16.909  0.2193  0.3717  0.3752
17291TIP3    H173364   5.491   4.322  16.849 -0.9066  0.6546 -1.0731
17291TIP3    H273365   5.365   4.283  16.923 -0.1912  0.6670  0.1736
17292TIP3   OH273366   1.896   6.783  12.007 -0.2056  0.1206  0.0094
17292TIP3    H173367   1.982   6.810  12.041 -0.2594  0.4026 -0.0823
17292TIP3    H273368   1.902   6.687  12.002 -0.1986  0.0713  0.8251
17293TIP3   OH273369   5.114   2.075  13.065  0.4893 -0.1031  0.2205
17293TIP3    H173370   5.117   2.010  13.135  1.2059  1.9038  2.2008
17293TIP3    H273371   5.167   2.037  12.994 -0.2400 -2.1893  0.7425
17294TIP3   OH273372   0.909   6.776   3.649  0.9685  0.4115  0.1875
17294TIP3    H173373   0.844   6.729   3.596  0.3276  0.9709  0.4508
17294TIP3    H273374   0.945   6.708   3.707 -0.5988  0.3572  1.1952
17295TIP3   OH273375   5.859   4.861  11.741  0.3314  0.4604 -0.4144
17295TIP3    H173376   5.855   4.824  11.829  1.9187  0.7556 -0.1979
17295TIP3    H273377   5.894   4.791  11.687  0.6453  0.7279 -0.5539
17296TIP3   OH273378   6.704   3.998  12.742  0.1446  0.5986  0.1896
17296TIP3    H173379   6.737   4.058  12.675  0.4225 -1.1626 -1.3407
17296TIP3    H273380   6.725   3.911  12.708  1.0144 -0.3789  2.9552
17297TIP3   OH273381   1.968   6.140   2.702  0.0485  0.4999  0.3250
17297TIP3    H173382   2.023   6.165   2.776  0.3263 -0.8356  0.5859
17297TIP3    H273383   1.931   6.055   2.726 -1.9778  1.2486  0.0710
17298TIP3   OH273384   3.702   6.086  13.208 -0.0619  0.6230 -0.8650
17298TIP3    H173385   3.744   6.124  13.285  1.1016  1.8294 -2.0586
17298TIP3    H273386   3.735   5.996  13.205  2.6834  1.5489 -1.8323
17299TIP3   OH273387   6.192   0.928  10.684  0.1502  0.1710 -0.0881
17299TIP3    H173388   6.270   0.908  10.633 -0.1594  0.8534 -0.8517
17299TIP3    H273389   6.140   0.985  10.627 -2.1242 -2.2890 -0.6430
17300TIP3   OH273390   0.890   6.419  15.495 -0.2485  0.0105  0.4377
17300TIP3    H173391   0.985   6.420  15.502 -0.2462 -1.4000  0.7441
17300TIP3    H273392   0.866   6.511  15.479  1.2270  0.2336 -0.6564
17301TIP3   OH273393   6.378   2.106  15.457  0.1557  0.7898  0.0157
17301TIP3    H173394   6.368   2.015  15.483  1.5031  0.1247 -1.5834
17301TIP3    H273395   6.289   2.141  15.453 -0.2860 -0.0152  2.0546
17302TIP3   OH273396   2.746   3.524  11.360  0.3608  0.6012  0.0332
17302TIP3    H173397   2.751   3.617  11.337  2.5818  0.3135 -0.9085
17302TIP3    H273398   2.813   3.482  11.306 -0.4155 -1.5383  0.6044
17303TIP3   OH273399   1.993   6.252  16.585 -0.1285 -0.3510 -0.3946
17303TIP3    H173400   1.931   6.310  16.630 -0.9046 -0.9296 -0.7007
17303TIP3    H273401   2.050   6.312  16.536 -0.7252  0.1713 -0.4668
17304TIP3   OH273402   5.958   5.151   5.369 -0.6241 -0.4766  0.3184
17304TIP3    H173403   5.896   5.107   5.427 -1.3295 -0.2840 -0.2720
17304TIP3    H273404   6.040   5.152   5.418 -0.5899 -2.4007  0.3659
17305TIP3   OH273405   3.158   0.413  11.036 -0.4265  0.1636 -0.2526
17305TIP3    H173406   3.185   0.325  11.009 -0.0644  0.2755 -0.2632
17305TIP3    H273407   3.240   0.457  11.058 -0.7104  0.0519  1.1079
17306TIP3   OH273408   6.503   1.099   0.367  1.0087 -0.2782  0.1864
17306TIP3    H173409   6.448   1.175   0.383  3.2667  1.1054  2.0968
17306TIP3    H273410   6.487   1.076   0.275 -0.7225  1.6430 -0.0692
17307TIP3   OH273411   3.827   4.427   3.675 -0.1247 -0.0195  0.6119
17307TIP3    H173412   3.817   4.457   3.585 -0.8156  0.5546  0.8629
17307TIP3    H273413   3.913   4.459   3.702  0.6186 -1.2412 -0.2168
17308TIP3   OH273414   5.122   0.338   2.852 -0.0265 -0.8774  0.5309
17308TIP3    H173415   5.068   0.296   2.784  0.2325 -0.8646  0.3166
17308TIP3    H273416   5.087   0.305   2.934 -0.1152 -1.1663  0.3776
17309TIP3   OH273417   0.358   0.168  14.202 -0.0541 -0.1267 -0.6918
17309TIP3    H173418   0.300   0.181  14.127 -0.0270 -1.0453 -0.8840
17309TIP3    H273419   0.426   0.235  14.191 -0.0427 -0.2567 -1.5027
17310TIP3   OH273420   6.325   6.416  11.199 -0.0023 -0.4012 -0.2654
17310TIP3    H173421   6.420   6.419  11.184  0.2009 -0.6414  0.9069
17310TIP3    H273422   6.290   6.483  11.140  1.1696  1.6302  1.2379
17311TIP3   OH273423   3.067   3.426  12.254  0.1477 -0.0211  0.0576
17311TIP3    H173424   3.075   3.388  12.341  0.3553  0.8184  0.4159
17311TIP3    H273425   3.043   3.517  12.269  0.4736  0.2116 -0.7561
17312TIP3   OH273426   0.242   5.419   2.819 -0.0536 -0.0444  0.0080
17312TIP3    H173427   0.247   5.325   2.835  0.0058  0.0895  0.8652
17312TIP3    H273428   0.179   5.428   2.747 -0.1888 -0.7270  0.0315
17313TIP3   OH273429   5.984   0.630  13.301 -0.0760  0.1735  0.5661
17313TIP3    H173430   5.951   0.696  13.239 -1.2345 -1.8315 -1.0737
17313TIP3    H273431   6.079   0.629  13.286 -0.2580  0.1875 -0.7369
17314TIP3   OH273432   2.966   4.426  15.240  0.3086  0.0306 -0.5955
17314TIP3    H173433   2.906   4.500  15.251  2.3325  1.8675 -1.0878
17314TIP3    H273434   2.921   4.367  15.180 -1.7476  0.4102  0.4962
17315TIP3   OH273435   2.137   3.335   2.203  0.5795 -0.3755  0.0806
17315TIP3    H173436   2.134   3.287   2.120 -0.4599  0.9454 -0.6909
17315TIP3    H273437   2.046   3.354   2.224  0.8736 -0.0919  1.1780
17316TIP3   OH273438   4.182   4.448   4.482  0.1750 -0.0924  0.6649
17316TIP3    H173439   4.263   4.469   4.435  0.0044  0.5660  0.6492
17316TIP3    H273440   4.208   4.444   4.574  0.3062 -0.3033  0.6189
17317TIP3   OH273441   5.883   1.604  15.352 -0.3720  0.2927 -0.8418
17317TIP3    H173442   5.978   1.589  15.358 -0.4262  0.3754  0.6203
17317TIP3    H273443   5.871   1.695  15.377 -0.9341 -0.0598  0.2484
17318TIP3   OH273444   4.936   5.714   6.190 -0.0264 -0.2409  0.3075
17318TIP3    H173445   4.976   5.793   6.154  2.9756 -1.5642  0.4870
17318TIP3    H273446   4.912   5.661   6.114 -0.6604  0.1718  0.2122
17319TIP3   OH273447   6.452   2.602   2.736 -0.5469  0.2644 -0.0691
17319TIP3    H173448   6.492   2.521   2.769 -0.4588  0.2815 -0.1343
17319TIP3    H273449   6.475   2.604   2.643  0.3227  0.8860  0.1515
17320TIP3   OH273450   0.373   2.505   3.374  0.5672 -0.5744 -0.4045
17320TIP3    H173451   0.438   2.454   3.423 -0.1981 -2.1585 -0.9777
17320TIP3    H273452   0.411   2.515   3.287  0.8189  0.0801 -0.2294
17321TIP3   OH273453   2.705   0.243   5.552  0.4298 -0.2932  0.0103
17321TIP3    H173454   2.658   0.182   5.609  0.9436  0.2942  1.0899
17321TIP3    H273455   2.658   0.238   5.468 -0.1830 -1.3644  0.3980
17322TIP3   OH273456   0.050   5.969  15.461 -0.2857 -0.5861  0.2307
17322TIP3    H173457   0.009   5.884  15.442 -0.3735 -0.4733 -0.0895
17322TIP3    H273458   0.143   5.949  15.469  0.0164 -0.3839 -2.1023
17323TIP3   OH273459   1.262   5.160   0.035 -0.1715 -0.1287 -0.7994
17323TIP3    H173460   1.342   5.135   0.081 -0.1897  4.8570  2.7540
17323TIP3    H273461   1.292   5.217  -0.036 -0.4835 -1.2069 -1.8163
17324TIP3   OH273462   1.784   4.900   3.701 -0.4109 -0.1353  0.0901
17324TIP3    H173463   1.865   4.908   3.651 -1.8049 -0.1187 -2.3654
17324TIP3    H273464   1.717   4.882   3.634 -2.4217 -0.1733  2.0039
17325TIP3   OH273465   2.749   3.315   2.172  0.6414 -1.0998  0.7829
17325TIP3    H173466   2.699   3.370   2.233  1.4214  1.6923 -0.8984
17325TIP3    H273467   2.689   3.300   2.099  1.4429  0.3528 -0.2188
17326TIP3   OH273468   6.117   3.249   4.665  0.3978 -0.2580 -0.3848
17326TIP3    H173469   6.047   3.301   4.703 -0.2486 -0.2598 -1.5357
17326TIP3    H273470   6.172   3.224   4.740 -0.0520  0.8940  0.3465
17327TIP3   OH273471   1.512   5.418   0.371 -0.2460 -0.6905  0.7105
17327TIP3    H173472   1.583   5.457   0.319 -0.6538 -0.7788  0.0787
17327TIP3    H273473   1.528   5.449   0.460 -1.9691  3.0391 -0.1249
17328TIP3   OH273474   3.967   1.808  16.428 -0.5155 -0.3789  0.0710
17328TIP3    H173475   4.014   1.865  16.489  1.3978  0.2307 -1.8569
17328TIP3    H273476   3.893   1.775  16.479  0.3431  0.9661  2.3561
17329TIP3   OH273477   4.741   1.406  10.629  0.0178  0.1320  0.1948
17329TIP3    H173478   4.711   1.369  10.546 -1.3896 -0.4255  0.9227
17329TIP3    H273479   4.826   1.446  10.608 -0.1606 -0.2716 -1.4288
17330TIP3   OH273480   0.562   2.366  17.092 -0.4212 -0.4608 -0.1149
17330TIP3    H173481   0.554   2.446  17.041  1.3091 -1.6104 -2.3508
17330TIP3    H273482   0.472   2.334  17.101 -0.9066  0.5636 -1.1473
17331TIP3   OH273483   2.400   4.973  14.103  0.3589 -0.1149 -0.0511
17331TIP3    H173484   2.480   4.950  14.150 -0.0481 -0.1361  0.6348
17331TIP3    H273485   2.365   5.048  14.150 -0.8965 -1.1152  0.6594
17332TIP3   OH273486   4.583   2.404  13.808  0.4229 -0.1776 -0.1203
17332TIP3    H173487   4.554   2.313  13.797  0.0773 -0.1994  0.9364
17332TIP3    H273488   4.672   2.397  13.842  0.0504 -0.1322  0.8815
17333TIP3   OH273489   2.326   5.178  13.617  0.5589  0.1348  0.2953
17333TIP3    H173490   2.356   5.092  13.587 -1.3158 -0.5902  0.3838
17333TIP3    H273491   2.322   5.231  13.537  1.3395  0.0303  0.1811
17334TIP3   OH273492   1.013   0.337   0.665 -0.3632  0.1152 -0.1204
17334TIP3    H173493   0.982   0.338   0.756  0.0829  0.3618  0.0321
17334TIP3    H273494   1.072   0.263   0.661 -0.3040  0.1661 -0.1836
17335TIP3   OH273495   1.407   5.308  11.133 -0.1440 -0.2108  0.0822
17335TIP3    H173496   1.446   5.258  11.062  0.6752  0.4107  0.0826
17335TIP3    H273497   1.313   5.288  11.128  0.1346 -1.5433 -0.0584
17336TIP3   OH273498   3.371   2.917   2.578  0.0428 -0.0820 -0.4405
17336TIP3    H173499   3.463   2.923   2.602  0.3717 -3.0243 -0.6094
17336TIP3    H273500   3.369   2.937   2.485  0.3125  1.1173 -0.2014
17337TIP3   OH273501   6.644   1.494   3.665  0.0051 -0.0711  0.0477
17337TIP3    H173502   6.632   1.471   3.757 -1.1552  0.5001  0.0613
17337TIP3    H273503   6.647   1.590   3.664 -1.6653  0.0151 -0.6570
17338TIP3   OH273504   6.531   2.883   2.452 -0.5387  0.1267 -0.2527
17338TIP3    H173505   6.462   2.914   2.510  0.2815  1.4424  0.0664
17338TIP3    H273506   6.526   2.940   2.375 -0.6570 -0.6338 -0.8198
17339TIP3   OH273507   1.671   3.665   5.850  0.1066  0.5079 -0.3684
17339TIP3    H173508   1.715   3.579   5.846  0.1645  0.5428 -0.5167
17339TIP3    H273509   1.710   3.708   5.925  0.5557  0.6600 -0.6810
17340TIP3   OH273510   3.328   4.934   0.768  0.5065 -0.7922  0.3039
17340TIP3    H173511   3.311   4.849   0.727 -0.4125 -0.9384  0.9422
17340TIP3    H273512   3.291   4.926   0.856 -2.2918  1.1934 -0.5475
17341TIP3   OH273513   2.954   3.439  13.876  0.3035 -0.0319  0.1639
17341TIP3    H173514   2.860   3.424  13.894  0.0745  0.5800 -0.5205
17341TIP3    H273515   2.957   3.524  13.834  0.7316 -1.6265 -3.3646
17342TIP3   OH273516   1.129   3.932   0.292  0.2410  0.2317 -0.0680
17342TIP3    H173517   1.181   4.001   0.249  0.3584  0.5351  0.5562
17342TIP3    H273518   1.053   3.922   0.235 -0.4473  1.8179  0.5077
17343TIP3   OH273519   4.686   3.154   5.355 -0.5613  0.5781  0.0219
17343TIP3    H173520   4.615   3.102   5.316 -1.5855  0.7217  1.5767
17343TIP3    H273521   4.641   3.223   5.403  0.6443  0.7304  0.9838
17344TIP3   OH273522   2.165   4.169   4.998  0.0849  0.5526  0.0938
17344TIP3    H173523   2.259   4.160   5.013  0.0310  0.3136  0.2907
17344TIP3    H273524   2.147   4.261   5.014  0.3894  0.7299 -0.5313
17345TIP3   OH273525   3.706   1.349   3.335  0.2314  0.0486 -0.3632
17345TIP3    H173526   3.705   1.306   3.420 -0.0960 -0.3747 -0.5800
17345TIP3    H273527   3.668   1.285   3.275 -1.2874  1.0300 -0.4955
17346TIP3   OH273528   5.908   1.077  11.647  0.4197  0.1348  0.7852
17346TIP3    H173529   5.947   0.990  11.635  0.9251  0.6277 -1.7754
17346TIP3    H273530   5.821   1.069  11.609  0.6586  0.8543  0.0691
17347TIP3   OH273531   1.213   1.744  13.414 -0.2391 -0.0688 -0.0577
17347TIP3    H173532   1.308   1.759  13.419 -0.0427 -1.3958  0.9584
17347TIP3    H273533   1.185   1.741  13.505 -1.0048 -1.0854 -0.3083
17348TIP3   OH273534   6.199   3.049  15.657  0.6556  0.2825 -0.2262
17348TIP3    H173535   6.224   3.133  15.620 -2.4436  1.7764  0.7915
17348TIP3    H273536   6.267   3.030  15.723  1.3084  2.0241 -0.3594
17349TIP3   OH273537   4.532   4.016   4.221  0.2943  0.1635 -0.5904
17349TIP3    H173538   4.504   3.976   4.138 -0.6759  1.7160 -1.0419
17349TIP3    H273539   4.602   4.076   4.196  0.1104  0.5157 -0.2554
17350TIP3   OH273540   3.547   5.418   0.425  0.6494 -0.0939  0.2136
17350TIP3    H173541   3.494   5.364   0.484 -0.5641  0.4968 -0.3117
17350TIP3    H273542   3.581   5.355   0.361 -1.4951 -0.1878 -0.9375
17351TIP3   OH273543   0.330   3.152  17.130  0.1861  0.2649  0.3227
17351TIP3    H173544   0.243   3.152  17.171  1.1511 -0.6420  2.5680
17351TIP3    H273545   0.371   3.072  17.163  2.2862  1.2764  0.2995
17352TIP3   OH273546   4.905   1.548  15.120 -0.4118  0.1039  0.3167
17352TIP3    H173547   4.972   1.504  15.173  1.5571 -0.4748 -2.4481
17352TIP3    H273548   4.952   1.619  15.076 -0.9599 -1.5114 -3.2433
17353TIP3   OH273549   0.912   3.977   6.252  0.0909  0.0474  0.3546
17353TIP3    H173550   0.980   3.958   6.316 -1.0593 -2.7323  0.9046
17353TIP3    H273551   0.832   3.939   6.289 -0.9693 -0.2223 -1.9653
17354TIP3   OH273552   2.292   3.398   5.743 -0.3384 -0.0271  0.0340
17354TIP3    H173553   2.199   3.409   5.727 -0.5862 -1.5723  0.2582
17354TIP3    H273554   2.300   3.308   5.775  1.4911 -0.6942 -2.0671
17355TIP3   OH273555   6.466   5.992   1.887 -0.0102 -0.3408  0.5571
17355TIP3    H173556   6.459   5.909   1.935  0.5424 -1.5086 -1.2819
17355TIP3    H273557   6.423   5.975   1.803  1.9826  0.5254 -0.7088
17356TIP3   OH273558   4.743   4.450  13.079  0.3842  0.2797 -0.9092
17356TIP3    H173559   4.719   4.374  13.024  0.8930  1.9898 -3.7005
17356TIP3    H273560   4.816   4.419  13.132 -1.0138 -1.8760 -0.0858
17357TIP3   OH273561   0.233   0.585  16.870  0.2146 -0.2890  0.2115
17357TIP3    H173562   0.227   0.534  16.951  0.0993  0.9427  1.0190
17357TIP3    H273563   0.175   0.541  16.809  0.0924 -1.0956  0.8897
17358TIP3   OH273564   6.759   4.344   2.957  0.5418  0.1434  0.1684
17358TIP3    H173565   6.803   4.420   2.994 -0.1009  0.0241  1.2320
17358TIP3    H273566   6.666   4.363   2.969  0.3504 -0.3397 -0.5256
17359TIP3   OH273567   5.864   0.183  13.601  0.1276 -0.0796 -0.6213
17359TIP3    H173568   5.890   0.184  13.509  3.5574 -1.7137  0.1723
17359TIP3    H273569   5.942   0.212  13.649 -0.8923 -1.1534  1.8791
17360TIP3   OH273570   4.008   2.253   5.200  0.2533 -0.0718  0.0218
17360TIP3    H173571   3.930   2.243   5.256  0.7583  2.7064  1.4255
17360TIP3    H273572   4.072   2.192   5.237 -1.0405 -2.1112 -0.9136
17361TIP3   OH273573   3.331   3.412   2.399 -0.5061 -0.6918 -0.1337
17361TIP3    H173574   3.338   3.454   2.313  2.5684  0.1299  0.3946
17361TIP3    H273575   3.360   3.479   2.461  0.3331 -2.2093  1.1883
17362TIP3   OH273576   6.098   2.839  11.646  0.1408 -0.1176 -0.2840
17362TIP3    H173577   6.105   2.928  11.680 -0.8990  0.2050 -0.8671
17362TIP3    H273578   6.132   2.784  11.716  0.0666  0.6828  0.3978
17363TIP3   OH273579   0.106   3.462   1.547 -0.2807 -0.1645 -0.1178
17363TIP3    H173580   0.018   3.427   1.558 -0.1043 -0.6228 -0.1431
17363TIP3    H273581   0.160   3.413   1.609 -0.2975  1.1238  0.9460
17364TIP3   OH273582   0.671   6.116   3.097 -0.0455  0.2426 -0.1938
17364TIP3    H173583   0.676   6.157   3.184  0.2701  0.4470 -0.3071
17364TIP3    H273584   0.701   6.026   3.111  0.0566  0.2915 -0.1005
17365TIP3   OH273585   5.811   6.005   6.141  0.1384  0.1537 -0.0236
17365TIP3    H173586   5.794   5.991   6.234 -0.5612 -1.6075 -0.3743
17365TIP3    H273587   5.870   6.080   6.138  0.4304  0.0356  1.8573
17366TIP3   OH273588   5.492   0.226  12.905 -0.0796  0.3631 -0.0506
17366TIP3    H173589   5.518   0.274  12.827  0.1727  0.2961 -0.0106
17366TIP3    H273590   5.556   0.252  12.972  0.0930 -0.0627 -0.0413
17367TIP3   OH273591   3.012   6.276  12.778 -0.4925 -0.2555  0.5276
17367TIP3    H173592   3.062   6.196  12.760  1.7731  0.9680  1.0875
17367TIP3    H273593   3.031   6.333  12.704 -0.4251  0.5284  1.1405
17368TIP3   OH273594   5.118   5.007   4.728 -0.0853  0.4446 -0.0603
17368TIP3    H173595   5.150   5.087   4.687  3.0755  0.0153  1.2705
17368TIP3    H273596   5.121   4.941   4.659  0.8802  0.6884 -0.2558
17369TIP3   OH273597   6.596   3.183  13.359 -0.3385 -0.0665 -0.4077
17369TIP3    H173598   6.683   3.221  13.346 -0.8043  0.8681 -0.9569
17369TIP3    H273599   6.543   3.221  13.289 -1.0347 -1.1399 -0.4821
17370TIP3   OH273600   0.266   6.446  16.228  0.6757  0.1565 -0.2279
17370TIP3    H173601   0.252   6.506  16.155  1.7036  1.5168  0.6459
17370TIP3    H273602   0.199   6.469  16.292 -0.7079 -1.5343 -0.9855
17371TIP3   OH273603   6.533   2.073  13.991 -0.3495 -0.5828  0.1876
17371TIP3    H173604   6.457   2.069  13.932 -0.4471 -0.7133  0.3241
17371TIP3    H273605   6.597   2.014  13.951 -0.0151  0.1282 -0.3606
17372TIP3   OH273606   3.175   3.107   2.814 -0.4770 -0.1403 -0.1086
17372TIP3    H173607   3.213   3.143   2.734  0.3118 -0.2051  0.2181
17372TIP3    H273608   3.246   3.114   2.878 -1.4640  1.0165  0.9068
17373TIP3   OH273609   0.361   5.229   0.120 -0.3030  0.3915 -0.5494
17373TIP3    H173610   0.326   5.292   0.056 -0.5205  0.9088  0.0716
17373TIP3    H273611   0.288   5.169   0.137 -0.1655  0.0968 -0.9709
17374TIP3   OH273612   1.547   2.296  15.980  0.4024  0.4087  0.3044
17374TIP3    H173613   1.587   2.361  16.038 -0.8769 -1.1289  3.0975
17374TIP3    H273614   1.467   2.338  15.948  0.8610  1.0799  0.0059
17375TIP3   OH273615   4.972   6.785  16.678  0.2486  0.3653 -0.1526
17375TIP3    H173616   4.996   6.708  16.729 -0.1985  0.7188  0.6066
17375TIP3    H273617   5.017   6.773  16.594 -0.8492 -1.3699 -0.5398
17376TIP3   OH273618   5.030   6.342  14.117 -0.7106  0.2087  0.5473
17376TIP3    H173619   5.067   6.412  14.171  0.2932  0.8260 -0.8809
17376TIP3    H273620   5.030   6.265  14.174 -1.2488  1.2078  1.9444
17377TIP3   OH273621   4.637   2.183   1.591  0.7283  0.6928  0.0381
17377TIP3    H173622   4.605   2.124   1.523  2.0180  0.6898 -0.6031
17377TIP3    H273623   4.676   2.256   1.543  0.5044  1.3252  0.8051
17378TIP3   OH273624   3.783   3.004   0.055  0.2934  0.7510  0.5581
17378TIP3    H173625   3.854   3.060   0.086  0.0881  0.6055  1.3113
17378TIP3    H273626   3.823   2.950  -0.013  0.2707  2.4482 -0.8755
17379TIP3   OH273627   2.432   5.115  11.059  0.4821 -0.1804  0.3519
17379TIP3    H173628   2.379   5.072  10.992  3.2394 -1.9580 -0.9019
17379TIP3    H273629   2.470   5.191  11.016  0.3858  0.0518  0.6694
17380TIP3   OH273630   3.691   2.825   6.405 -0.2161  0.0745  0.0492
17380TIP3    H173631   3.756   2.893   6.421 -0.1954  0.3131 -0.9534
17380TIP3    H273632   3.610   2.859   6.444  0.4958 -0.7827  2.4402
17381TIP3   OH273633   5.724   3.182   4.613 -0.2332  0.2878 -0.0259
17381TIP3    H173634   5.742   3.240   4.686  0.5338 -0.3592  0.3132
17381TIP3    H273635   5.791   3.202   4.548 -0.4719  0.3598 -0.2512
17382TIP3   OH273636   5.809   2.175   1.814 -0.1743  0.1863  0.2412
17382TIP3    H173637   5.751   2.234   1.863 -2.4199 -0.9191 -0.9118
17382TIP3    H273638   5.817   2.098   1.870  0.6917  0.5610  0.6485
17383TIP3   OH273639   6.118   1.173  17.106 -0.3378  0.1616  0.1198
17383TIP3    H173640   6.197   1.197  17.155 -0.0424 -0.5742  0.0126
17383TIP3    H273641   6.083   1.097  17.154 -0.3659 -0.2008 -0.4707
17384TIP3   OH273642   4.396   5.603  12.819  0.1300 -0.5417  0.0638
17384TIP3    H173643   4.452   5.592  12.896  0.1701  0.1188  0.1377
17384TIP3    H273644   4.325   5.660  12.851  1.4330  1.8322 -0.9973
17385TIP3   OH273645   1.470   1.214   2.218 -0.5295  0.3087  0.2829
17385TIP3    H173646   1.521   1.289   2.249 -0.9908  1.0648 -0.7092
17385TIP3    H273647   1.398   1.207   2.281  0.1330 -0.0251  1.0199
17386TIP3   OH273648   4.185   2.855  14.289  0.3186 -0.0583 -0.8268
17386TIP3    H173649   4.207   2.766  14.264 -1.4562 -0.2420 -1.9343
17386TIP3    H273650   4.244   2.876  14.361 -0.0437 -2.5474  0.2618
17387TIP3   OH273651   4.561   5.686  13.243  0.1004 -0.5555 -0.1344
17387TIP3    H173652   4.485   5.729  13.282  0.7321  1.4059 -0.9374
17387TIP3    H273653   4.635   5.741  13.269  1.0776 -1.6695 -0.4851
17388TIP3   OH273654   0.271   1.717   5.099 -0.3515 -0.1264  0.5312
17388TIP3    H173655   0.212   1.790   5.115 -1.6065 -1.3121  1.5625
17388TIP3    H273656   0.334   1.721   5.171  0.0550  0.3807  0.1534
17389TIP3   OH273657   0.853   2.109   2.937 -0.1058 -0.0411 -0.0789
17389TIP3    H173658   0.846   2.183   2.877  1.2582 -0.2278 -0.5018
17389TIP3    H273659   0.912   2.140   3.006  0.0355 -0.5441  0.0326
17390TIP3   OH273660   6.751   4.651  13.661  0.2574  0.2485 -0.0721
17390TIP3    H173661   6.692   4.690  13.597 -1.1426 -2.1286 -0.3802
17390TIP3    H273662   6.831   4.634  13.613  0.6464  2.0401 -0.0954
17391TIP3   OH273663   6.338   6.273   2.703 -0.1727 -0.6284 -0.3478
17391TIP3    H173664   6.419   6.256   2.655 -0.2630  1.0820 -1.1714
17391TIP3    H273665   6.278   6.205   2.674  0.8240 -1.6676 -0.0390
17392TIP3   OH273666   4.696   3.528  12.164  0.1898 -0.3445 -0.0255
17392TIP3    H173667   4.677   3.448  12.115  2.0259 -0.5796 -0.4375
17392TIP3    H273668   4.625   3.535  12.227 -0.9438 -1.3457 -1.1341
17393TIP3   OH273669   4.290   0.209   4.359  0.0834 -0.2052 -0.3788
17393TIP3    H173670   4.291   0.217   4.263  0.7257  3.7034 -0.2140
17393TIP3    H273671   4.364   0.152   4.379 -0.2939 -1.4186 -2.1757
17394TIP3   OH273672   3.535   4.478  14.099 -0.2667 -0.1485 -0.1376
17394TIP3    H173673   3.481   4.411  14.058 -2.3071 -0.5461  2.9302
17394TIP3    H273674   3.617   4.433  14.120 -0.4122 -0.7730 -0.8568
17395TIP3   OH273675   3.728   1.673   1.238  0.3276  0.0273  0.1340
17395TIP3    H173676   3.786   1.718   1.299 -0.8138  3.0579 -0.8435
17395TIP3    H273677   3.642   1.676   1.280 -0.0918  0.3568 -0.7201
17396TIP3   OH273678   5.354   2.319   5.474 -0.0705  0.3795 -0.1200
17396TIP3    H173679   5.362   2.349   5.565 -0.7457  0.3276 -0.0447
17396TIP3    H273680   5.385   2.228   5.476  0.7254  0.6370 -0.1071
17397TIP3   OH273681   4.932   1.602   0.028  0.0823 -0.3344  0.1087
17397TIP3    H173682   4.857   1.549   0.001  0.3056 -0.2439 -0.6990
17397TIP3    H273683   4.910   1.629   0.118 -1.6732  1.1558 -0.7015
17398TIP3   OH273684   5.640   1.242  16.118  0.3925  0.4684  0.1530
17398TIP3    H173685   5.646   1.223  16.211 -0.6940 -2.0617 -0.2075
17398TIP3    H273686   5.724   1.213  16.082 -0.2736 -1.4185 -0.0065
17399TIP3   OH273687   0.667   2.048  13.520  0.0918 -0.7503 -0.5891
17399TIP3    H173688   0.731   2.115  13.499 -0.4250  0.5182  1.5467
17399TIP3    H273689   0.674   2.036  13.615 -1.5553 -1.9032 -0.5506
17400TIP3   OH273690   1.675   6.596   5.543  0.3541  0.3340  0.3114
17400TIP3    H173691   1.734   6.671   5.539  0.6567  0.2834  2.5670
17400TIP3    H273692   1.602   6.619   5.486  1.9657  0.8864 -1.6512
17401TIP3   OH273693   4.174   2.992  14.670  0.2518  0.4863  0.4146
17401TIP3    H173694   4.157   3.049  14.595  1.0815 -0.0910 -0.2351
17401TIP3    H273695   4.087   2.969  14.703 -0.1343  0.6128 -0.4764
17402TIP3   OH273696   6.497   2.573   6.256 -0.1223 -0.2409  0.8477
17402TIP3    H173697   6.420   2.516   6.262  0.1962 -0.8362 -0.3258
17402TIP3    H273698   6.471   2.653   6.301 -2.5414  0.7011 -1.8555
17403TIP3   OH273699   2.341   0.356   5.127  0.2269  0.2273 -0.2696
17403TIP3    H173700   2.258   0.340   5.172 -1.0032 -0.2466 -2.5525
17403TIP3    H273701   2.316   0.384   5.039  2.4538 -1.8134 -1.6834
17404TIP3   OH273702   2.866   2.287  15.391 -0.0341  0.3772  0.0200
17404TIP3    H173703   2.811   2.239  15.453 -0.3319  1.0034  0.2599
17404TIP3    H273704   2.834   2.377  15.396  0.6062  0.6329 -0.3005
17405TIP3   OH273705   2.769   4.472  12.965  0.6480 -0.4765  0.0447
17405TIP3    H173706   2.710   4.532  13.011  0.3519 -0.6209 -0.1463
17405TIP3    H273707   2.823   4.529  12.910 -0.4582 -0.4629 -1.0775
17406TIP3   OH273708   6.066   1.294   1.338  0.0210  0.0785 -0.3159
17406TIP3    H173709   6.150   1.258   1.366  0.0857 -0.0655 -0.6828
17406TIP3    H273710   6.087   1.344   1.259 -0.3744 -0.6848 -0.9134
17407TIP3   OH273711   2.082   2.054  15.589  0.2621 -0.4559 -0.0175
17407TIP3    H173712   2.011   2.051  15.525  1.6108 -1.7068 -1.5375
17407TIP3    H273713   2.041   2.026  15.671 -0.8573 -1.9558 -1.0355
17408TIP3   OH273714   1.707   3.757  16.815  0.3264  0.4302 -0.1174
17408TIP3    H173715   1.684   3.669  16.786  0.3847 -0.0592  1.2483
17408TIP3    H273716   1.733   3.746  16.906  2.4611  1.5259 -0.5288
17409TIP3   OH273717   1.515   1.164  11.133 -0.2063  0.1417 -0.1750
17409TIP3    H173718   1.502   1.141  11.041 -2.2198  0.8252 -0.1199
17409TIP3    H273719   1.445   1.119  11.180  0.9063 -0.3653  1.0829
17410TIP3   OH273720   3.134   5.457  13.870  0.1386  0.1133  0.1814
17410TIP3    H173721   3.225   5.431  13.885  0.1397  0.5591  1.0162
17410TIP3    H273722   3.138   5.552  13.861 -0.3095  0.1929  0.7907
17411TIP3   OH273723   6.738   5.305   4.427 -0.3568 -0.2647  0.0654
17411TIP3    H173724   6.777   5.255   4.499  0.1415 -1.6516 -1.1185
17411TIP3    H273725   6.656   5.259   4.408 -0.4624  0.0627 -0.2719
17412TIP3   OH273726   3.986   3.444  15.026 -0.3009  0.5391  0.5863
17412TIP3    H173727   3.893   3.442  15.003  0.2232  1.8783 -2.0851
17412TIP3    H273728   4.031   3.412  14.948  1.5331  1.2648  1.2859
17413TIP3   OH273729   3.872   4.677  15.774 -0.3572 -0.6326 -0.1852
17413TIP3    H173730   3.897   4.712  15.689  0.3618 -1.4515 -0.3299
17413TIP3    H273731   3.830   4.593  15.755  0.9091 -1.4104  0.3008
17414TIP3   OH273732   6.130   5.127   5.809 -0.0994 -0.1134 -0.5421
17414TIP3    H173733   6.185   5.049   5.801  0.1479 -0.1053  0.7993
17414TIP3    H273734   6.190   5.200   5.791 -0.6163 -0.2316 -3.0892
17415TIP3   OH273735   4.224   6.479   1.510  0.4035  0.3528 -0.3246
17415TIP3    H173736   4.230   6.568   1.476 -1.0637  0.7281  0.3180
17415TIP3    H273737   4.130   6.462   1.517  0.6596 -0.9076  0.4319
17416TIP3   OH273738   5.690   4.595  16.965  0.2038 -0.0332 -0.7216
17416TIP3    H173739   5.688   4.548  17.049 -0.0076 -0.5587 -1.0187
17416TIP3    H273740   5.749   4.669  16.981 -2.2956  1.7520  0.8699
17417TIP3   OH273741   1.389   3.452  14.710  0.4947 -0.1361 -0.3778
17417TIP3    H173742   1.302   3.463  14.749  0.3086 -1.9542 -0.2125
17417TIP3    H273743   1.449   3.475  14.781  0.2065  1.5548 -0.6200
17418TIP3   OH273744   5.474   0.494  10.807  0.5541  0.2863 -0.0065
17418TIP3    H173745   5.496   0.579  10.768 -0.2315  0.5594  0.1189
17418TIP3    H273746   5.534   0.432  10.765  0.2692  0.7031 -1.0585
17419TIP3   OH273747   1.991   2.253  11.445 -0.0884 -0.3134  0.5140
17419TIP3    H173748   1.929   2.315  11.408  0.9190  0.9321  0.8589
17419TIP3    H273749   1.937   2.182  11.480 -1.3748  1.2189  1.7206
17420TIP3   OH273750   4.569   6.239  15.707  0.8161  0.2917 -0.0499
17420TIP3    H173751   4.538   6.264  15.795  2.0044  0.0336  0.4625
17420TIP3    H273752   4.551   6.316  15.653  0.3285  0.5652  0.4856
17421TIP3   OH273753   2.901   2.258   2.482 -0.5292 -0.8752 -0.0028
17421TIP3    H173754   2.824   2.309   2.509  0.6718  1.7332 -1.1382
17421TIP3    H273755   2.962   2.267   2.555  0.3896  1.0057 -0.9376
17422TIP3   OH273756   0.144   3.893   3.997 -0.1842 -0.5848 -0.1613
17422TIP3    H173757   0.235   3.863   3.994 -0.6752 -2.0163 -1.4722
17422TIP3    H273758   0.107   3.848   4.073 -0.2912 -1.4622 -0.7310
17423TIP3   OH273759   3.188   5.380   2.872 -0.4165 -0.0803 -0.3164
17423TIP3    H173760   3.275   5.397   2.907 -0.6322  1.4332 -0.4337
17423TIP3    H273761   3.170   5.456   2.816 -0.7365 -1.6129 -2.4301
17424TIP3   OH273762   0.519   1.172   2.940 -0.6496 -0.6730 -0.4577
17424TIP3    H173763   0.532   1.133   2.853 -1.2329 -0.0072 -0.8544
17424TIP3    H273764   0.470   1.106   2.989  0.5570 -1.4806 -0.2820
17425TIP3   OH273765   5.364   2.855   5.683  0.7095 -0.3307 -0.0505
17425TIP3    H173766   5.397   2.843   5.594 -0.8357 -2.0638 -0.4438
17425TIP3    H273767   5.274   2.821   5.681 -0.3014  1.9636  1.5488
17426TIP3   OH273768   4.189   5.137  12.285  0.2175 -0.1930 -0.2488
17426TIP3    H173769   4.275   5.100  12.266  1.2746  0.8653  2.0733
17426TIP3    H273770   4.128   5.084  12.233  1.9535 -2.9766  0.3631
17427TIP3   OH273771   5.425   2.829   6.410  0.1127 -0.0113  0.1974
17427TIP3    H173772   5.331   2.839   6.395  0.1205  0.3098  0.3415
17427TIP3    H273773   5.452   2.914   6.445  0.6769  0.3226 -0.9658
17428TIP3   OH273774   4.873   2.271  14.375  0.4422  0.3663 -0.1560
17428TIP3    H173775   4.925   2.201  14.335 -0.5294 -1.2593  1.2556
17428TIP3    H273776   4.783   2.238  14.372  0.1470  0.8640  1.8958
17429TIP3   OH273777   1.110   6.637   6.696  0.7179 -0.3577 -0.2733
17429TIP3    H173778   1.102   6.708   6.633  2.2444 -0.0794 -0.2111
17429TIP3    H273779   1.040   6.576   6.673  0.1111  0.6047 -1.0634
17430TIP3   OH273780   2.046   3.886  16.945 -0.0758 -0.2314  0.3465
17430TIP3    H173781   2.079   3.943  17.015  2.9614 -4.1814  2.5171
17430TIP3    H273782   1.981   3.831  16.987 -1.9482  0.5746 -1.3493
17431TIP3   OH273783   4.051   6.416  16.342  0.0284  0.1385 -0.7189
17431TIP3    H173784   4.087   6.495  16.383 -1.3260  1.3635 -1.7955
17431TIP3    H273785   3.959   6.436  16.328  0.0234 -0.9558 -2.5934
17432TIP3   OH273786   5.677   3.392  15.745 -0.2342  0.2787 -0.0205
17432TIP3    H173787   5.593   3.432  15.767 -0.7711 -0.9012  0.1522
17432TIP3    H273788   5.683   3.402  15.650  0.0110  1.4320  0.0973
17433TIP3   OH273789   1.683   6.142   1.428  0.3838 -0.1439  0.1840
17433TIP3    H173790   1.701   6.233   1.452  0.3829  0.6479 -2.5556
17433TIP3    H273791   1.658   6.100   1.511 -1.4266  2.7563  1.2291
17434TIP3   OH273792   1.458   5.521  15.593  0.0980  0.7732  0.0066
17434TIP3    H173793   1.517   5.446  15.585 -0.2432  0.4853  0.1276
17434TIP3    H273794   1.377   5.483  15.628  0.5996  1.5075  2.1315
17435TIP3   OH273795   3.445   5.158   4.566  0.3772  0.1637 -0.2878
17435TIP3    H173796   3.472   5.199   4.648 -1.1179 -0.9525  0.8397
17435TIP3    H273797   3.522   5.111   4.536  0.7571  0.0167  0.8587
17436TIP3   OH273798   4.696   5.811   6.266 -0.4762  0.1673  0.3638
17436TIP3    H173799   4.637   5.752   6.313 -2.7389  2.7481  1.0873
17436TIP3    H273800   4.770   5.757   6.241 -1.5115 -2.4983  2.5463
17437TIP3   OH273801   3.120   5.627  17.116 -0.0014  0.0360  0.3787
17437TIP3    H173802   3.099   5.700  17.175  1.4124  0.9990 -0.2521
17437TIP3    H273803   3.051   5.563  17.132 -1.9004  1.9025  0.2848
17438TIP3   OH273804   4.467   6.325  14.859 -0.5464 -0.3126 -0.6174
17438TIP3    H173805   4.511   6.245  14.830 -1.9034 -0.9745 -0.9216
17438TIP3    H273806   4.447   6.373  14.778 -0.8528 -0.2771 -0.5242
17439TIP3   OH273807   3.408   0.839   1.120  0.1469 -0.1962  0.1172
17439TIP3    H173808   3.455   0.913   1.080 -0.1020  0.4160  0.9256
17439TIP3    H273809   3.476   0.774   1.137  0.4956  0.1535  0.0872
17440TIP3   OH273810   5.167   1.414   0.096  0.1452 -0.5333  0.4900
17440TIP3    H173811   5.224   1.397   0.021 -0.1403 -1.9853  0.5831
17440TIP3    H273812   5.081   1.384   0.068 -0.4837  1.0997  0.5659
17441TIP3   OH273813   2.431   5.576  15.264  0.6679  0.2010 -0.4114
17441TIP3    H173814   2.456   5.667  15.275  1.9865 -0.1207 -0.6361
17441TIP3    H273815   2.514   5.528  15.261  0.1306 -0.7182 -3.0010
17442TIP3   OH273816   0.701   4.372   4.205  0.2889 -0.1220 -0.6035
17442TIP3    H173817   0.784   4.337   4.172  0.3786 -0.9782  0.4760
17442TIP3    H273818   0.713   4.467   4.203  1.6761 -0.2402  0.4214
17443TIP3   OH273819   0.625   0.825  12.637 -0.1491  0.2338  0.0342
17443TIP3    H173820   0.697   0.874  12.676 -0.3139  1.3377 -0.9928
17443TIP3    H273821   0.550   0.842  12.694  0.3572 -0.8872  1.0815
17444TIP3   OH273822   1.845   3.279   3.304 -0.2114  0.1622 -0.2422
17444TIP3    H173823   1.781   3.307   3.238  0.3880  0.8244 -0.5558
17444TIP3    H273824   1.859   3.186   3.286 -4.2068 -1.2424  2.4401
17445TIP3   OH273825   2.422   0.006   3.019 -0.3565  0.6116  0.1010
17445TIP3    H173826   2.339   0.030   3.060 -0.4465 -0.3123  0.4893
17445TIP3    H273827   2.396  -0.048   2.945 -0.1031  0.3413  0.2108
17446TIP3   OH273828   2.565   5.250   1.948  0.1341 -0.6506 -0.3584
17446TIP3    H173829   2.512   5.309   2.002 -0.7268 -0.1356 -1.7184
17446TIP3    H273830   2.503   5.215   1.884  1.3833 -0.1872 -1.8757
17447TIP3   OH273831   5.282   2.320  16.211  0.3345 -0.1683 -0.0989
17447TIP3    H173832   5.258   2.412  16.222  2.0788  0.4030 -0.7030
17447TIP3    H273833   5.241   2.294  16.128  0.6587  0.3677 -0.4293
17448TIP3   OH273834   2.921   3.251   0.905 -0.2175  0.3250  0.5145
17448TIP3    H173835   2.915   3.242   0.810 -0.0281 -1.1429  0.6188
17448TIP3    H273836   2.921   3.161   0.938 -1.5779  0.8211  1.9936
17449TIP3   OH273837   4.304   1.201   2.990  0.3690  0.6351  0.0178
17449TIP3    H173838   4.268   1.163   3.071 -1.4040 -0.1358 -1.0675
17449TIP3    H273839   4.399   1.200   3.003  0.1270  0.4258  2.0351
17450TIP3   OH273840   6.030   4.192  11.209 -0.1373  0.1370 -0.3851
17450TIP3    H173841   6.004   4.107  11.245  1.5908 -0.4836 -0.5413
17450TIP3    H273842   5.978   4.201  11.129  1.7482 -2.1929 -2.0205
17451TIP3   OH273843   0.819   6.329   3.640  0.2323  0.3630 -0.3551
17451TIP3    H173844   0.889   6.330   3.704 -1.0356 -1.9478  1.1713
17451TIP3    H273845   0.839   6.255   3.583  0.5316  1.4814 -1.7880
17452TIP3   OH273846   1.911   3.401  12.326 -0.2778 -0.3607  0.1562
17452TIP3    H173847   1.936   3.402  12.233  1.8891  0.6391  0.6730
17452TIP3    H273848   1.818   3.424  12.326 -1.1414 -3.2414 -1.9071
17453TIP3   OH273849   1.025   0.474  13.810 -0.0175 -0.0207  0.2902
17453TIP3    H173850   1.030   0.520  13.726 -0.1606 -0.9852 -0.2582
17453TIP3    H273851   1.113   0.482  13.847 -0.2115  1.2438  0.5059
17454TIP3   OH273852   5.340   3.777   3.199 -0.0493  0.8460  0.2529
17454TIP3    H173853   5.286   3.736   3.131  0.0771  2.0985 -0.6458
17454TIP3    H273854   5.316   3.870   3.195  1.7269  1.3378  0.2335
17455TIP3   OH273855   4.664   3.591   3.677  0.1628  0.0097 -0.7594
17455TIP3    H173856   4.719   3.542   3.616  0.2990 -0.2274 -0.4529
17455TIP3    H273857   4.580   3.598   3.634  0.1119 -0.5896 -0.7669
17456TIP3   OH273858   0.496   5.677  12.214  0.6921 -0.3479  0.0620
17456TIP3    H173859   0.527   5.664  12.304 -0.9109 -0.2009  0.6669
17456TIP3    H273860   0.543   5.755  12.184 -0.3915  0.9707  1.5969
17457TIP3   OH273861   2.534   5.003  12.221  0.0649 -0.0201  0.2576
17457TIP3    H173862   2.491   5.076  12.176 -0.7886  0.1065  1.2214
17457TIP3    H273863   2.627   5.026  12.221 -0.0220  0.3787 -0.6824
17458TIP3   OH273864   2.811   0.831   5.035 -0.0228 -0.0580  0.2274
17458TIP3    H173865   2.827   0.875   5.118 -0.3151  1.6892 -0.5917
17458TIP3    H273866   2.718   0.807   5.037 -0.2517  0.8028  0.0421
17459TIP3   OH273867   4.905   0.773  15.922 -0.1795 -0.1518  0.1746
17459TIP3    H173868   4.986   0.747  15.966  0.0345  2.2897  1.3750
17459TIP3    H273869   4.934   0.828  15.849 -0.7454  0.6554  0.5504
17460TIP3   OH273870   1.962   6.159  12.825 -0.3122  0.1762  0.0790
17460TIP3    H173871   1.975   6.115  12.741  0.1623  1.9698 -0.8256
17460TIP3    H273872   1.904   6.232  12.806  0.8807  1.4219  1.0161
17461TIP3   OH273873   4.786   0.862  15.548 -0.3903  0.4072 -0.5925
17461TIP3    H173874   4.811   0.953  15.557 -0.3026  0.2664  0.7668
17461TIP3    H273875   4.725   0.846  15.620  0.3804 -0.8637 -0.1842
17462TIP3   OH273876   0.652   2.826   2.420 -0.0532 -0.5548  0.4670
17462TIP3    H173877   0.600   2.783   2.352  1.2025  0.4074 -1.2154
17462TIP3    H273878   0.614   2.914   2.428 -0.2264 -0.6809  1.0506
17463TIP3   OH273879   5.849   1.338  15.443 -0.5332  0.4305  0.0398
17463TIP3    H173880   5.836   1.348  15.537 -0.2341 -0.5425  0.1910
17463TIP3    H273881   5.839   1.427  15.408  0.0818  0.9194  1.0694
17464TIP3   OH273882   3.230   2.165  13.974 -0.1505  0.3208  0.0608
17464TIP3    H173883   3.272   2.154  14.059  0.2128 -0.7248 -0.2372
17464TIP3    H273884   3.230   2.259  13.960  3.5662  0.3933 -0.6127
17465TIP3   OH273885   2.911   1.190  11.004  0.0317  0.3804 -0.0036
17465TIP3    H173886   2.877   1.221  10.920 -0.5925  0.2356  0.1906
17465TIP3    H273887   2.843   1.213  11.067 -0.5352 -1.5363  0.1253
17466TIP3   OH273888   0.915   0.408  11.845  0.2075 -0.0355  0.0907
17466TIP3    H173889   0.893   0.492  11.807 -0.6301 -0.6248 -0.7704
17466TIP3    H273890   1.005   0.391  11.817  0.9745  1.2783  1.6043
17467TIP3   OH273891   2.579   3.563   5.248  0.0619 -0.2964 -0.1941
17467TIP3    H173892   2.522   3.554   5.324  0.3302  0.0714  0.0493
17467TIP3    H273893   2.653   3.614   5.279 -0.0844  0.3129 -0.8411
17468TIP3   OH273894   3.097   1.595   6.479  0.2128 -0.3737  0.1173
17468TIP3    H173895   3.109   1.523   6.417  0.3830 -0.4573  0.2471
17468TIP3    H273896   3.036   1.561   6.544  0.4813 -0.4878  0.3130
17469TIP3   OH273897   2.427   2.372   4.120  0.1624  0.2123  0.9297
17469TIP3    H173898   2.458   2.455   4.156  1.5172  0.5176 -0.8079
17469TIP3    H273899   2.332   2.378   4.126  0.2255  1.9292  0.7543
17470TIP3   OH273900   4.615   3.656  10.849  0.3443 -0.1150 -0.1615
17470TIP3    H173901   4.705   3.688  10.862  0.1611  0.1943  0.3976
17470TIP3    H273902   4.604   3.653  10.754  1.2903 -1.1359 -0.2579
17471TIP3   OH273903   3.984   1.390   5.446 -0.4774  0.2204  0.6143
17471TIP3    H173904   3.971   1.305   5.488  1.3021 -0.6066 -0.3955
17471TIP3    H273905   3.982   1.453   5.518 -0.2853 -0.8409  1.5767
17472TIP3   OH273906   0.983   5.500   2.584 -0.7638  0.2149 -0.7018
17472TIP3    H173907   0.889   5.483   2.592 -0.6471 -0.5428 -0.7846
17472TIP3    H273908   1.000   5.496   2.489 -0.3444 -1.5873 -0.5996
17473TIP3   OH273909   3.328   4.444   2.770 -0.2962  0.0016 -0.0469
17473TIP3    H173910   3.358   4.367   2.819  3.8043  0.0732 -2.0337
17473TIP3    H273911   3.329   4.515   2.834  3.8017 -0.1322  0.3220
17474TIP3   OH273912   3.059   2.344  16.457 -0.6981 -0.0954  0.2561
17474TIP3    H173913   3.065   2.404  16.382  0.1322  0.1281  0.4859
17474TIP3    H273914   3.002   2.274  16.428 -2.0212  0.9935  0.1028
17475TIP3   OH273915   5.163   4.050  11.906  0.0046 -0.4221  0.4258
17475TIP3    H173916   5.168   4.028  11.813 -1.5578 -0.9378  0.4402
17475TIP3    H273917   5.181   3.967  11.951  2.3810  0.1557  0.6495
17476TIP3   OH273918   4.068   6.627  16.708  0.4197  0.0621  0.6554
17476TIP3    H173919   4.051   6.649  16.800  0.2750 -3.5016  1.6396
17476TIP3    H273920   3.987   6.649  16.663 -1.2375 -2.0602  2.3214
17477TIP3   OH273921   2.335   1.039   2.424  0.1747 -0.0260  0.5834
17477TIP3    H173922   2.250   1.000   2.441 -0.3499  0.6746 -0.3515
17477TIP3    H273923   2.336   1.056   2.330  0.7468  1.3399  0.8107
17478TIP3   OH273924   2.672   4.306  12.675 -0.2269 -0.1981  0.1802
17478TIP3    H173925   2.764   4.299  12.701 -0.4290  0.0271  1.0037
17478TIP3    H273926   2.626   4.249  12.736 -0.7678  0.6709  0.6023
17479TIP3   OH273927   5.928   2.769   1.447 -0.1975  0.2575  0.1803
17479TIP3    H173928   5.853   2.717   1.473 -0.2477  0.2731  0.0673
17479TIP3    H273929   6.004   2.724   1.484 -0.3468  0.8237  1.2181
17480TIP3   OH273930   0.205   5.190   4.578  0.4591  0.1682 -0.2499
17480TIP3    H173931   0.247   5.243   4.511  1.4831  0.0846  0.3200
17480TIP3    H273932   0.170   5.253   4.641  0.5979  0.2023 -0.2076
17481TIP3   OH273933   0.029   4.681   4.357 -0.1634  0.0833  0.2423
17481TIP3    H173934   0.106   4.674   4.302 -1.4571 -1.9684 -1.4728
17481TIP3    H273935   0.013   4.775   4.366  1.1895  0.4972 -1.3124
17482TIP3   OH273936   1.204   4.485  13.731  0.0912  0.0968  0.2860
17482TIP3    H173937   1.206   4.546  13.657  1.5705 -0.2029  0.0501
17482TIP3    H273938   1.192   4.399  13.691  1.6265 -0.1519  0.2940
17483TIP3   OH273939   2.027   3.898  15.343  0.6775 -0.3606  0.8495
17483TIP3    H173940   2.042   3.899  15.249 -0.6859 -2.1747  0.5497
17483TIP3    H273941   1.952   3.956  15.356  0.5285 -0.5281  0.7392
17484TIP3   OH273942   4.408   4.476  13.644  0.3267 -0.0107 -0.4634
17484TIP3    H173943   4.332   4.527  13.618  0.8363  0.8440 -0.2921
17484TIP3    H273944   4.426   4.502  13.734 -0.1592 -1.4278  0.0825
17485TIP3   OH273945   4.081   2.922   3.049 -0.0366 -0.1113  0.0163
17485TIP3    H173946   4.126   2.870   3.116 -0.4001 -1.9164 -1.0745
17485TIP3    H273947   4.141   2.994   3.031  0.7338 -0.4217  1.2182
17486TIP3   OH273948   2.223   2.557   5.957 -1.0808  0.3689  0.0073
17486TIP3    H173949   2.165   2.489   5.992 -1.6702  1.7567  1.8865
17486TIP3    H273950   2.307   2.513   5.944 -1.5125 -0.7811  0.9600
17487TIP3   OH273951   6.624   4.423  11.723 -0.2778 -0.4217  0.6350
17487TIP3    H173952   6.644   4.459  11.637 -0.2492 -0.4603  0.6254
17487TIP3    H273953   6.628   4.328  11.711 -0.7700 -0.4358  0.5565
17488TIP3   OH273954   2.456   5.297  14.816  0.2098  0.0603 -0.1177
17488TIP3    H173955   2.474   5.354  14.742 -1.7816  0.8430 -0.0678
17488TIP3    H273956   2.412   5.221  14.778  0.2175 -0.0658  0.1226
17489TIP3   OH273957   2.721   5.591  11.489  0.0741  0.2930 -0.2023
17489TIP3    H173958   2.748   5.582  11.398 -0.6928  1.2945 -0.5596
17489TIP3    H273959   2.678   5.508  11.510  1.6979 -0.5890 -0.1978
17490TIP3   OH273960   0.056   1.830  10.550 -0.7191 -0.6369  0.7252
17490TIP3    H173961   0.089   1.847  10.639 -0.8264 -1.9352  1.0449
17490TIP3    H273962   0.045   1.916  10.511 -1.4177 -0.0020  2.2488
17491TIP3   OH273963   5.940   1.481   4.540 -0.4905  0.4992 -0.3898
17491TIP3    H173964   5.949   1.551   4.605 -1.8519  1.8533 -1.5663
17491TIP3    H273965   5.926   1.402   4.592  1.1354  1.0558  0.9846
17492TIP3   OH273966   2.236   3.375   1.537  0.1591  0.0094  0.0318
17492TIP3    H173967   2.321   3.416   1.552  0.0324  0.5499 -0.7223
17492TIP3    H273968   2.178   3.446   1.511 -0.6644 -0.2692  0.9889
17493TIP3   OH273969   5.953   2.463  12.601 -0.1216  0.0711  0.2783
17493TIP3    H173970   5.869   2.496  12.568  0.3539  0.5790 -0.4608
17493TIP3    H273971   5.994   2.538  12.643 -0.5593 -0.4805  1.7680
17494TIP3   OH273972   4.820   4.984   4.002  0.0210  0.1739  0.0205
17494TIP3    H173973   4.859   5.032   4.074  2.2946 -1.0965 -0.2892
17494TIP3    H273974   4.775   4.910   4.043 -1.3770  1.1377  0.3054
17495TIP3   OH273975   0.452   0.229   0.822 -0.5198 -0.0113 -0.4204
17495TIP3    H173976   0.420   0.165   0.885  0.2732  0.3216  0.3567
17495TIP3    H273977   0.453   0.183   0.738 -1.7096 -0.4290 -0.2263
17496TIP3   OH273978   3.821   4.439  14.479 -0.3154 -0.1494  0.1128
17496TIP3    H173979   3.848   4.475  14.563 -0.5071  0.7945 -0.2157
17496TIP3    H273980   3.727   4.423  14.489 -0.4626  0.5368 -0.1088
17497TIP3   OH273981   4.615   2.515   5.924  1.1933 -0.4485  0.1384
17497TIP3    H173982   4.521   2.523   5.907  1.1315  2.7914  1.4044
17497TIP3    H273983   4.622   2.438   5.981 -0.9173  0.1468  1.3139
17498TIP3   OH273984   6.604   3.343  16.128  0.6981 -0.4907  0.3750
17498TIP3    H173985   6.641   3.263  16.092 -1.9363 -1.4186 -0.4776
17498TIP3    H273986   6.613   3.334  16.222  1.8737 -1.0022  0.2339
17499TIP3   OH273987   5.590   6.049   0.951  0.1525 -0.5632  0.1776
17499TIP3    H173988   5.651   5.975   0.947 -0.9413 -1.5239  0.6192
17499TIP3    H273989   5.503   6.008   0.945 -0.4671  0.7235  0.1247
17500TIP3   OH273990   4.139   1.103  16.231  0.2385 -0.5326  0.0492
17500TIP3    H173991   4.232   1.083  16.243  0.2946 -0.4080 -0.1837
17500TIP3    H273992   4.094   1.025  16.264  0.4674 -1.2233 -1.1924
17501TIP3   OH273993   2.185   6.783  11.881 -0.0823  0.0419  0.0720
17501TIP3    H173994   2.117   6.760  11.818  0.9103 -1.5942 -0.4793
17501TIP3    H273995   2.166   6.874  11.905 -1.8503 -0.0493 -0.8021
17502TIP3   OH273996   2.712   3.132  16.486  0.0639 -0.0113  0.3916
17502TIP3    H173997   2.715   3.054  16.430  1.7105  0.1906  0.1471
17502TIP3    H273998   2.620   3.156  16.488 -0.0365  0.4043 -2.8745
17503TIP3   OH273999   0.239   0.796  11.574  0.2537  0.5091  0.2873
17503TIP3    H174000   0.297   0.817  11.648 -1.4607  0.7298  1.6449
17503TIP3    H274001   0.297   0.789  11.499  1.9884  1.0506  1.5163
17504TIP3   OH274002   5.907   6.713   0.647  0.0093  0.0844 -0.6223
17504TIP3    H174003   5.863   6.638   0.688  0.7509  0.2487  0.5320
17504TIP3    H274004   5.837   6.760   0.602 -0.6052 -0.8547 -0.6799
17505TIP3   OH274005   1.430   0.039   4.491  0.2283  0.4492  0.3214
17505TIP3    H174006   1.390   0.021   4.577  0.2284  0.6634  0.3654
17505TIP3    H274007   1.439  -0.048   4.451  0.7183  0.2964  0.7517
17506TIP3   OH274008   4.865   0.735   6.845  0.1766  0.6815 -0.1499
17506TIP3    H174009   4.884   0.813   6.895  3.6107  0.1031 -0.3128
17506TIP3    H274010   4.901   0.753   6.758  0.0737 -0.6707 -0.4948
17507TIP3   OH274011   0.960   4.316  10.548  0.6093  0.4654  0.2854
17507TIP3    H174012   0.929   4.256  10.482  3.5563 -0.2228 -0.6437
17507TIP3    H274013   1.014   4.262  10.607 -0.5974  1.3546  2.3314
17508TIP3   OH274014   4.775   1.708  13.463  0.0176 -0.1788  0.2007
17508TIP3    H174015   4.734   1.794  13.470 -0.5870 -0.5410  1.5774
17508TIP3    H274016   4.851   1.714  13.521  0.5662 -0.2595 -0.5002
17509TIP3   OH274017   1.978   0.122  15.757 -0.1615 -0.0801 -0.0152
17509TIP3    H174018   1.941   0.123  15.845  0.2460  1.2514  0.1661
17509TIP3    H274019   2.070   0.098  15.769 -0.1845 -0.2258 -0.1196
17510TIP3   OH274020   5.078   3.430  16.802 -0.2512 -0.0058 -0.5674
17510TIP3    H174021   5.142   3.428  16.873 -0.7899  0.8053 -0.0479
17510TIP3    H274022   5.012   3.365  16.828 -0.3931  0.2134 -0.3762
17511TIP3   OH274023   6.560   3.061   1.478  0.3467  0.3879  0.1415
17511TIP3    H174024   6.476   3.021   1.460  0.0590  1.4059 -0.9164
17511TIP3    H274025   6.625   2.998   1.446  0.0274 -0.6262  1.4341
17512TIP3   OH274026   4.644   0.452   6.008 -0.0785 -0.8155 -0.2443
17512TIP3    H174027   4.675   0.435   5.919 -2.1166  0.2033 -1.2297
17512TIP3    H274028   4.641   0.547   6.015  0.5369 -0.8715  1.1232
17513TIP3   OH274029   5.253   4.340   3.271 -0.4636 -0.1135 -0.1826
17513TIP3    H174030   5.233   4.424   3.230  0.4956  0.3575  0.2778
17513TIP3    H274031   5.181   4.327   3.333  0.3789  1.3536  1.1739
17514TIP3   OH274032   6.371   5.450   3.392 -0.1338 -0.0326 -0.4835
17514TIP3    H174033   6.304   5.417   3.452  0.1232 -0.0944 -0.2262
17514TIP3    H274034   6.417   5.517   3.443  0.3547 -0.3780 -0.4644
17515TIP3   OH274035   0.008   3.501   3.404 -0.1157  0.1529 -0.1984
17515TIP3    H174036   0.093   3.544   3.406  0.1178 -0.3171  0.2480
17515TIP3    H274037   0.026   3.415   3.367  0.6466 -2.0587  4.4910
17516TIP3   OH274038   4.049   5.862   3.939 -0.5534  0.2722  0.2791
17516TIP3    H174039   4.068   5.844   4.031 -0.0771 -0.6081  0.0131
17516TIP3    H274040   4.038   5.776   3.899 -3.9951  0.6613  0.1376
17517TIP3   OH274041   2.278   3.584  10.652  0.1805 -0.0571 -0.3581
17517TIP3    H174042   2.293   3.675  10.629  2.5072 -0.1943  0.3835
17517TIP3    H274043   2.306   3.535  10.574  0.5845 -0.2080 -0.1180
17518TIP3   OH274044   2.700   3.286   5.209 -0.1846  0.1575  0.2856
17518TIP3    H174045   2.745   3.212   5.167  0.3811  0.9424 -0.5396
17518TIP3    H274046   2.608   3.260   5.211 -0.1790 -0.0801 -1.1108
17519TIP3   OH274047   1.650   2.594   5.753 -0.2500 -0.0956 -0.2416
17519TIP3    H174048   1.585   2.664   5.744 -0.3975 -0.3565 -1.2675
17519TIP3    H274049   1.637   2.538   5.676  0.8569 -0.4268 -0.2076
17520TIP3   OH274050   4.858   1.732   6.058  0.3244  0.5036  0.0944
17520TIP3    H174051   4.919   1.788   6.105  2.3095 -0.1742 -1.5341
17520TIP3    H274052   4.809   1.686   6.127  2.0378  0.6581  1.4817
17521TIP3   OH274053   0.212   3.833   3.089  0.3328 -0.7999 -0.1886
17521TIP3    H174054   0.280   3.887   3.129  1.1692 -1.2944 -0.9258
17521TIP3    H274055   0.130   3.868   3.125  1.0260 -1.1220  1.8320
17522TIP3   OH274056   3.428   5.905  15.448 -0.4737 -0.1907  0.2941
17522TIP3    H174057   3.346   5.862  15.421 -1.2027  0.3589  1.5442
17522TIP3    H274058   3.408   5.943  15.533  1.2199 -0.3747  0.8151
17523TIP3   OH274059   3.025   2.649  17.186  0.2189  0.3596  0.0530
17523TIP3    H174060   3.046   2.610  17.101 -0.9415 -0.0821 -0.0507
17523TIP3    H274061   3.050   2.583  17.250  1.6785  0.9420  0.1117
17524TIP3   OH274062   4.058   0.786  12.529  0.0785  0.0575 -0.3731
17524TIP3    H174063   4.138   0.789  12.582  0.8617  0.8488 -1.5717
17524TIP3    H274064   4.019   0.701  12.550  0.5541  0.1899  1.1855
17525TIP3   OH274065   4.715   6.311  14.553 -0.2491 -0.3294 -0.5779
17525TIP3    H174066   4.717   6.309  14.649 -0.0383 -0.7421 -0.5891
17525TIP3    H274067   4.797   6.270  14.527 -0.2510 -0.1092 -0.9361
17526TIP3   OH274068   6.131   1.813   1.530 -0.1484  0.1529  0.4028
17526TIP3    H174069   6.084   1.867   1.594  0.0672 -2.2713  2.7929
17526TIP3    H274070   6.113   1.723   1.557  2.9372 -0.9472 -0.7858
17527TIP3   OH274071   0.811   6.362   5.920  0.4970  0.1824 -0.4237
17527TIP3    H174072   0.820   6.287   5.861  0.7936 -0.2397  0.1444
17527TIP3    H274073   0.737   6.411   5.884 -0.3664 -0.9276 -0.2372
17528TIP3   OH274074   4.914   0.537  15.759  0.1336 -0.0885 -0.5504
17528TIP3    H174075   4.883   0.618  15.800  2.7210  1.6295 -1.7524
17528TIP3    H274076   4.903   0.552  15.665  1.4394 -0.7685 -0.8399
17529TIP3   OH274077   5.713   0.718  14.311  0.0455 -0.5805  0.3553
17529TIP3    H174078   5.680   0.807  14.295 -1.0277 -0.7098  1.6977
17529TIP3    H274079   5.694   0.702  14.404  0.1812 -2.2340  0.1216
17530TIP3   OH274080   1.917   3.281   1.773  0.1773  0.2384 -0.1978
17530TIP3    H174081   1.894   3.223   1.700  1.1206  0.2693 -0.5364
17530TIP3    H274082   1.894   3.369   1.742 -1.9281  0.0109  0.5928
17531TIP3   OH274083   2.746   1.293   1.506 -0.5322  0.4428  0.2237
17531TIP3    H174084   2.720   1.322   1.593  1.3423  1.2626  0.5706
17531TIP3    H274085   2.744   1.373   1.453 -2.0127 -0.1154 -0.6057
17532TIP3   OH274086   4.352   1.730   2.743  0.1036 -0.1653  0.7146
17532TIP3    H174087   4.288   1.691   2.802 -0.8098  1.5865  0.9544
17532TIP3    H274088   4.309   1.809   2.709  2.4196  1.6436  1.6561
17533TIP3   OH274089   6.054   0.716  16.458  0.0108 -0.0380  0.5359
17533TIP3    H174090   6.013   0.705  16.544 -0.6710  0.3392  0.2615
17533TIP3    H274091   6.125   0.651  16.458  0.8116  0.7652  1.8425
17534TIP3   OH274092   4.897   0.396  16.042 -0.1650  0.5102 -0.6633
17534TIP3    H174093   4.956   0.330  16.006  0.5727  0.4522  0.6009
17534TIP3    H274094   4.954   0.458  16.086 -0.9963  0.8187  0.0180
17535TIP3   OH274095   2.977   0.804  15.151 -0.2610  0.5066 -0.3274
17535TIP3    H174096   2.960   0.763  15.236  0.3583  0.1640 -0.3574
17535TIP3    H274097   2.918   0.760  15.090  0.3384 -0.3044 -0.3437
17536TIP3   OH274098   3.240   1.950  15.900  0.1937  0.1356  0.3695
17536TIP3    H174099   3.209   1.922  15.986 -0.3901  1.5387  0.6403
17536TIP3    H274100   3.180   1.908  15.838  0.0691 -0.1756  0.6973
17537TIP3   OH274101   0.416   6.382   1.280 -0.3506  0.4591  0.0600
17537TIP3    H174102   0.498   6.381   1.328 -0.3810  1.8217  0.1724
17537TIP3    H274103   0.348   6.387   1.348 -0.5933 -1.4126  0.0034
17538TIP3   OH274104   2.395   4.898  11.689  0.4226  0.6868  0.4521
17538TIP3    H174105   2.425   4.989  11.688  1.4862  0.4225  2.5548
17538TIP3    H274106   2.305   4.902  11.722  0.0530  1.0315 -0.5491
17539TIP3   OH274107   2.303   1.794  15.364  0.2948  0.1283  0.0764
17539TIP3    H174108   2.396   1.772  15.371 -0.1219 -1.2210  4.0337
17539TIP3    H274109   2.296   1.880  15.406 -0.5665 -1.4992  3.6240
17540TIP3   OH274110   1.118   5.444  13.885 -0.1643 -0.2234  0.4604
17540TIP3    H174111   1.069   5.506  13.939  1.3137  1.9565 -0.5767
17540TIP3    H274112   1.057   5.421  13.814 -0.6675  0.2011  0.7438
17541TIP3   OH274113   2.924   4.630  11.551  0.6951  0.2912 -0.5394
17541TIP3    H174114   2.868   4.631  11.474  1.4814 -0.8228 -1.1446
17541TIP3    H274115   3.009   4.600  11.520  1.2915  0.7135  0.5954
17542TIP3   OH274116   5.729   3.701  15.123  0.2552  0.4896  0.4794
17542TIP3    H174117   5.636   3.722  15.133  0.0130 -0.5759  0.5698
17542TIP3    H274118   5.749   3.641  15.194  1.2637  1.4192  1.0156
17543TIP3   OH274119   2.626   3.130  12.989 -0.3167  0.3261  0.4456
17543TIP3    H174120   2.556   3.135  12.925 -0.8854 -1.8746  0.7925
17543TIP3    H274121   2.594   3.180  13.064  0.3117  2.8369 -0.8374
17544TIP3   OH274122   6.775   2.703  13.321 -0.2412  0.3558 -0.1970
17544TIP3    H174123   6.713   2.757  13.369 -0.8992  0.5804 -1.2547
17544TIP3    H274124   6.796   2.755  13.243  0.3790 -0.2226 -0.4282
17545TIP3   OH274125   0.304   0.191  12.053 -0.1039 -0.1882 -0.0843
17545TIP3    H174126   0.342   0.277  12.033 -0.9425  0.7106  1.9641
17545TIP3    H274127   0.290   0.151  11.967 -1.3170  2.4307 -1.2180
17546TIP3   OH274128   2.209   5.808  16.318 -0.0598 -0.6912  0.0194
17546TIP3    H174129   2.136   5.861  16.351  0.1689 -1.2415  1.4978
17546TIP3    H274130   2.286   5.862  16.333  0.1101 -1.1747  1.0124
17547TIP3   OH274131   3.015   5.741  14.027 -0.0339 -0.2288 -0.3106
17547TIP3    H174132   3.084   5.754  13.963  0.3368 -0.7909 -0.0346
17547TIP3    H274133   2.947   5.804  14.003  0.7974  0.7058 -0.2541
17548TIP3   OH274134   1.348   2.400  12.411 -0.0501 -0.5341 -0.0483
17548TIP3    H174135   1.333   2.342  12.337 -1.0896  0.1496 -0.3975
17548TIP3    H274136   1.281   2.375  12.475  0.2941 -0.5460  0.3172
17549TIP3   OH274137   3.536   0.040  13.962  0.3412  0.5218  0.1578
17549TIP3    H174138   3.487   0.051  14.044 -2.5222  1.2716 -1.5016
17549TIP3    H274139   3.536  -0.055  13.948  0.0217  0.4548  0.5736
17550TIP3   OH274140   3.749   3.046   5.128 -0.0309 -0.0922  0.0836
17550TIP3    H174141   3.760   3.120   5.188  0.1107  0.2852 -0.3963
17550TIP3    H274142   3.680   2.993   5.168  0.5251 -0.2027  0.9135
17551TIP3   OH274143   4.765   4.027  15.569  0.3756 -0.0006  0.1587
17551TIP3    H174144   4.739   4.112  15.533  0.5310 -0.2246 -0.4918
17551TIP3    H274145   4.839   4.000  15.515 -0.0581 -0.8355 -0.0293
17552TIP3   OH274146   0.034   3.486   4.330 -0.0188 -0.0910 -0.3274
17552TIP3    H174147  -0.029   3.496   4.401  0.6420 -1.7825  0.5536
17552TIP3    H274148  -0.003   3.537   4.258 -1.0136  1.1786  1.0146
17553TIP3   OH274149   5.230   5.114  14.510 -0.5857 -0.2904  0.1039
17553TIP3    H174150   5.243   5.148  14.422 -1.6418 -0.1692 -0.0175
17553TIP3    H274151   5.215   5.021  14.498  2.5097 -0.9437  0.4533
17554TIP3   OH274152   3.129   6.068   5.684 -0.2434  0.2848 -0.0512
17554TIP3    H174153   3.177   5.988   5.660 -0.9884  0.3068 -1.7091
17554TIP3    H274154   3.198   6.133   5.698  0.3165 -0.3297  0.1450
17555TIP3   OH274155   2.339   5.863   2.659 -0.6361  0.2205 -0.1648
17555TIP3    H174156   2.322   5.818   2.741  0.1889 -0.5809 -0.4173
17555TIP3    H274157   2.275   5.934   2.657  0.3273  1.2188  1.8820
17556TIP3   OH274158   0.269   6.827  13.800 -0.7406  0.3006 -0.4429
17556TIP3    H174159   0.257   6.792  13.888 -3.6049  0.3581 -0.7252
17556TIP3    H274160   0.194   6.885  13.787 -0.2575  0.4839 -2.8487
17557TIP3   OH274161   0.175   1.418   3.577 -0.7038 -0.2778  0.1379
17557TIP3    H174162   0.178   1.508   3.545 -0.3873  0.1359  1.2941
17557TIP3    H274163   0.093   1.383   3.542 -1.7652  1.0485  1.1759
17558TIP3   OH274164   1.446   3.009  15.054  0.8440  0.2101  0.4458
17558TIP3    H174165   1.425   3.057  14.974  1.2308 -0.0924  0.1527
17558TIP3    H274166   1.373   2.948  15.065  1.5230 -0.8281 -0.5590
17559TIP3   OH274167   1.499   3.613   1.198  0.1984 -0.0095 -0.0231
17559TIP3    H174168   1.493   3.677   1.270 -1.1488  0.9427 -0.9366
17559TIP3    H274169   1.497   3.528   1.242  1.7791  0.5297  1.2096
17560TIP3   OH274170   3.421   6.119   0.389 -0.3463  0.4266  0.2847
17560TIP3    H174171   3.333   6.142   0.419 -0.3131  0.8935  0.0197
17560TIP3    H274172   3.425   6.150   0.299 -0.7642 -1.7439 -0.5572
17561TIP3   OH274173   2.518   0.856  11.734 -0.4774 -0.1987  0.4222
17561TIP3    H174174   2.532   0.819  11.647 -1.0845 -1.3744  0.8052
17561TIP3    H274175   2.425   0.844  11.750 -0.7039  1.4767  0.6034
17562TIP3   OH274176   5.827   4.781   3.281 -0.0363  0.2083 -0.2328
17562TIP3    H174177   5.732   4.787   3.269 -0.2215 -1.3172  0.3419
17562TIP3    H274178   5.847   4.688   3.270  1.5183  0.6199 -1.1746
17563TIP3   OH274179   4.147   6.374   3.443  0.0110 -0.4431  0.0499
17563TIP3    H174180   4.219   6.333   3.395 -0.5367  0.3656 -1.5367
17563TIP3    H274181   4.131   6.456   3.395 -1.6281 -0.3726  0.6827
17564TIP3   OH274182   5.982   2.569  16.694  0.5302  0.5495 -0.0596
17564TIP3    H174183   6.025   2.650  16.724  1.9027 -0.2355  0.1897
17564TIP3    H274184   5.933   2.538  16.770 -0.9771  1.7427 -0.5049
17565TIP3   OH274185   4.612   5.036   5.726 -0.2597 -0.1586  0.0654
17565TIP3    H174186   4.616   4.961   5.667 -1.2672  0.0725 -0.3137
17565TIP3    H274187   4.644   5.003   5.810  0.8101 -0.5945 -0.5004
17566TIP3   OH274188   5.632   4.709   3.503 -0.1246 -0.8764  0.2198
17566TIP3    H174189   5.613   4.802   3.517  0.8611 -0.5839 -0.2665
17566TIP3    H274190   5.549   4.672   3.472 -0.7778 -0.3626  1.2849
17567TIP3   OH274191   4.356   5.200   0.610 -0.2969 -0.0255  0.3095
17567TIP3    H174192   4.334   5.217   0.702  0.7575 -0.6167  0.6885
17567TIP3    H274193   4.443   5.160   0.613 -0.0966  0.2721 -0.9792
17568TIP3   OH274194   0.960   5.021  11.586  0.2588  0.7871 -0.2089
17568TIP3    H174195   0.920   5.082  11.649  2.0677 -0.2345  2.0525
17568TIP3    H274196   0.957   4.936  11.629  0.4881 -0.2002 -2.0500
17569TIP3   OH274197   2.428   5.064   2.973  0.6009 -0.2457  0.4460
17569TIP3    H174198   2.364   5.135   2.986 -0.1936 -0.2803 -2.5163
17569TIP3    H274199   2.479   5.063   3.053  0.0083  3.0546  1.0223
17570TIP3   OH274200   4.572   4.856   0.711 -0.3336 -0.0638 -0.5269
17570TIP3    H174201   4.491   4.843   0.661 -0.7451 -0.0082  0.1161
17570TIP3    H274202   4.546   4.908   0.787  0.2279 -0.3864 -0.0998
17571TIP3   OH274203   6.215   6.193   1.931  0.0386  0.4827 -0.3265
17571TIP3    H174204   6.291   6.180   1.988  0.6209  0.7556 -1.0231
17571TIP3    H274205   6.242   6.157   1.847 -0.9464 -0.2495 -0.3360
17572TIP3   OH274206   2.542   5.699   0.027 -0.3393 -0.3700 -0.1728
17572TIP3    H174207   2.632   5.673   0.046 -0.5212 -0.3761  0.7296
17572TIP3    H274208   2.520   5.652  -0.053  0.3839 -0.5373 -0.2803
17573TIP3   OH274209   3.956   2.878   2.426  0.3656  0.6129 -0.0628
17573TIP3    H174210   4.040   2.843   2.397 -0.4023 -1.7158  0.3215
17573TIP3    H274211   3.913   2.907   2.345  1.8483  2.7268 -0.1644
17574TIP3   OH274212   0.967   0.376   4.282  0.5892  0.0187  0.9328
17574TIP3    H174213   0.964   0.304   4.220 -1.0533 -1.8038  2.9665
17574TIP3    H274214   0.954   0.455   4.229 -1.1307 -1.4772 -1.0233
17575TIP3   OH274215   2.293   2.314   0.551 -0.4841 -0.2461 -0.9031
17575TIP3    H174216   2.301   2.303   0.456  1.0249 -0.9304 -0.7151
17575TIP3    H274217   2.216   2.261   0.574  1.3695 -3.3256 -1.2601
17576TIP3   OH274218   2.244   2.232   1.366  0.1585 -0.0125  0.1673
17576TIP3    H174219   2.213   2.260   1.452  0.8001 -0.8159  0.6776
17576TIP3    H274220   2.240   2.311   1.312 -0.9294  0.3360  0.7337
17577TIP3   OH274221   6.736   4.413   4.100  0.4126 -0.2434  0.0250
17577TIP3    H174222   6.699   4.490   4.058 -2.3833 -2.0496 -1.1183
17577TIP3    H274223   6.709   4.420   4.192  0.4715  0.2969 -0.0002
17578TIP3   OH274224   4.629   1.547   3.466 -0.4300  0.1690 -0.3186
17578TIP3    H174225   4.554   1.525   3.520 -1.4097  1.6480 -1.0222
17578TIP3    H274226   4.647   1.639   3.484  0.3974  0.1912 -1.1252
17579TIP3   OH274227   0.504   0.260  13.229 -0.0514  0.0229  0.1624
17579TIP3    H174228   0.411   0.269  13.208 -0.6553 -0.4545  2.4147
17579TIP3    H274229   0.530   0.176  13.189 -1.1145 -0.8188  1.1976
17580TIP3   OH274230   6.563   4.050  16.986 -0.8476  0.6060  0.8218
17580TIP3    H174231   6.657   4.059  17.001 -0.0387 -1.5196 -1.8923
17580TIP3    H274232   6.538   4.129  16.938  0.2652  0.0547 -0.7763
17581TIP3   OH274233   0.258   3.795  12.198  0.3159  0.2025  0.5402
17581TIP3    H174234   0.211   3.845  12.265  1.0236  2.3079 -0.4408
17581TIP3    H274235   0.205   3.805  12.119  0.7567 -0.1341  0.1993
17582TIP3   OH274236   0.476   0.035  15.358  0.0343 -0.0278 -0.3347
17582TIP3    H174237   0.473   0.058  15.451  0.0681  0.3998 -0.4379
17582TIP3    H274238   0.407  -0.031  15.348 -1.6434  1.6763 -0.4883
17583TIP3   OH274239   1.522   3.057  15.459 -0.5520  0.0303 -0.7476
17583TIP3    H174240   1.503   3.151  15.469 -0.0487 -0.0476  1.2945
17583TIP3    H274241   1.556   3.050  15.370  0.3082  1.9648 -0.6430
17584TIP3   OH274242   2.508   5.064   3.983  0.5783  0.5913 -0.4502
17584TIP3    H174243   2.599   5.091   3.978  1.1941 -1.3379 -0.5529
17584TIP3    H274244   2.504   5.006   4.060 -0.3542  0.0115 -0.9156
17585TIP3   OH274245   4.272   1.025   1.182 -0.2821 -0.2430  0.5274
17585TIP3    H174246   4.358   0.985   1.175 -0.7722 -1.1408 -0.7282
17585TIP3    H274247   4.289   1.115   1.210  1.2936  0.4204 -2.2130
17586TIP3   OH274248   6.196   6.691  12.903 -0.2057  0.2831  0.2071
17586TIP3    H174249   6.219   6.610  12.858 -2.0117 -0.5503  0.6789
17586TIP3    H274250   6.100   6.696  12.896 -0.3499  1.1781  2.1413
17587TIP3   OH274251   4.208   6.368  14.320 -0.3027  0.5143  0.3470
17587TIP3    H174252   4.201   6.289  14.267  0.4737  2.6945 -3.3133
17587TIP3    H274253   4.296   6.401  14.304 -0.8692  2.5699  1.0888
17588TIP3   OH274254   4.169   0.413  12.314 -0.1226  0.3314  0.0004
17588TIP3    H174255   4.222   0.490  12.334  0.6111 -0.2738  0.4337
17588TIP3    H274256   4.172   0.406  12.219 -0.9952  1.3787 -0.1315
17589TIP3   OH274257   0.060   1.148   4.350 -0.0111 -0.5884  0.3098
17589TIP3    H174258   0.152   1.173   4.339 -0.1239 -0.1662  0.3264
17589TIP3    H274259   0.044   1.154   4.444  0.6397 -3.1207  0.6562
17590TIP3   OH274260   1.938   6.227   1.055 -0.2049  0.1256  0.2270
17590TIP3    H174261   1.955   6.314   1.019 -2.7052  0.2080 -1.0262
17590TIP3    H274262   1.943   6.169   0.979 -1.7659 -0.2911  0.4056
17591TIP3   OH274263   4.570   2.560   0.200 -0.0070 -0.4468  0.3162
17591TIP3    H174264   4.603   2.521   0.119  0.2104  0.3624  0.0059
17591TIP3    H274265   4.636   2.539   0.266  2.0498  2.4862 -0.6112
17592TIP3   OH274266   6.567   2.414  16.386 -0.3429 -0.4026  0.3906
17592TIP3    H174267   6.492   2.444  16.336 -0.6545 -1.1914  0.3784
17592TIP3    H274268   6.530   2.360  16.456  0.2613 -1.8076 -0.3212
17593TIP3   OH274269   2.316   3.996  15.339  0.5983 -0.3073 -0.4065
17593TIP3    H174270   2.248   3.929  15.333  1.0053 -0.7555 -0.1032
17593TIP3    H274271   2.269   4.079  15.329  0.0292 -0.6162 -0.3386
17594TIP3   OH274272   0.612   1.874  14.102  0.3208  0.1136 -0.2868
17594TIP3    H174273   0.568   1.794  14.129  0.2389  0.0765 -0.5336
17594TIP3    H274274   0.596   1.881  14.008  0.6911  0.1928 -0.3485
17595TIP3   OH274275   2.071   2.378   5.770 -0.3578 -0.5108 -0.1847
17595TIP3    H174276   2.161   2.392   5.742 -0.7874  1.4888 -0.7394
17595TIP3    H274277   2.078   2.352   5.861  0.8397 -2.2798 -0.7309
17596TIP3   OH274278   0.357   3.874  14.855  0.2681 -0.7051 -0.7591
17596TIP3    H174279   0.446   3.850  14.828  0.2886 -0.2526 -1.0986
17596TIP3    H274280   0.306   3.794  14.842  0.7248 -1.1303 -0.0601
17597TIP3   OH274281   0.167   0.678  12.831 -0.3510 -0.2902  0.0813
17597TIP3    H174282   0.077   0.695  12.857 -0.6486 -2.7900  0.9283
17597TIP3    H274283   0.167   0.588  12.797  1.9682 -0.7145  0.9762
17598TIP3   OH274284   1.808   6.516   0.162  0.2961  0.3831  0.1879
17598TIP3    H174285   1.853   6.498   0.080  2.5749  0.6554  1.2981
17598TIP3    H274286   1.871   6.566   0.213 -1.2738  0.7194  1.9120
17599TIP3   OH274287   5.571   4.787  13.752  0.6508 -0.6215 -0.6469
17599TIP3    H174288   5.543   4.767  13.841  1.0172 -1.4595 -0.7095
17599TIP3    H274289   5.536   4.716  13.698  0.1303  0.0633 -1.2353
17600TIP3   OH274290   4.794   4.664   0.249 -0.0508  0.1588 -0.0357
17600TIP3    H174291   4.841   4.664   0.332 -0.3911  0.1984  0.1572
17600TIP3    H274292   4.710   4.623   0.268 -0.4617  0.9075 -0.1696
17601TIP3   OH274293   0.187   2.499   4.958  0.4708  0.0730  0.3284
17601TIP3    H174294   0.271   2.503   5.005  1.1125  2.5557 -0.8773
17601TIP3    H274295   0.211   2.478   4.868 -0.7626 -4.8953  0.8386
17602TIP3   OH274296   6.322   0.139  11.717 -0.3057  0.1212  0.5095
17602TIP3    H174297   6.257   0.134  11.648 -2.2330 -0.2847  2.2637
17602TIP3    H274298   6.277   0.181  11.790  1.2102 -0.6720  1.9753
17603TIP3   OH274299   1.408   2.041   0.141 -0.4783  0.1052 -0.5507
17603TIP3    H174300   1.323   2.084   0.145 -0.3019  0.5904 -1.5175
17603TIP3    H274301   1.453   2.068   0.221 -1.9665 -1.8601  1.0739
17604TIP3   OH274302   1.418   4.014  15.488  0.3456  0.3331 -0.3229
17604TIP3    H174303   1.387   4.000  15.577 -0.1551  0.5679 -0.4557
17604TIP3    H274304   1.506   4.049  15.499  0.0428  0.9962  0.1047
17605TIP3   OH274305   1.318   5.595   2.111  0.2777 -0.0032  0.1535
17605TIP3    H174306   1.399   5.609   2.062 -0.4213 -2.6414 -2.0403
17605TIP3    H274307   1.258   5.663   2.080  0.1160 -1.1214 -2.2447
17606TIP3   OH274308   0.919   6.059   1.433  0.1436  0.7307 -0.1144
17606TIP3    H174309   0.953   6.106   1.357  0.9285 -0.7272 -0.7111
17606TIP3    H274310   0.841   6.108   1.459 -0.1294  1.2825 -1.8467
17607TIP3   OH274311   3.001   2.701  16.502  1.0100 -0.3122  0.2696
17607TIP3    H174312   3.035   2.673  16.417 -1.5769  0.3739 -1.0966
17607TIP3    H274313   3.076   2.695  16.561  2.9163 -0.7848 -2.0428
17608TIP3   OH274314   6.695   1.851  11.046  0.3114  0.0543 -0.3161
17608TIP3    H174315   6.757   1.923  11.059  1.3374 -0.0941 -3.3683
17608TIP3    H274316   6.614   1.893  11.018  0.5220  0.1159 -0.8586
17609TIP3   OH274317   0.826   3.885   1.870  0.0401 -0.0783  0.8697
17609TIP3    H174318   0.834   3.956   1.933  2.4375 -0.7175  1.3538
17609TIP3    H274319   0.912   3.843   1.868  0.0576 -0.2507 -2.6597
17610TIP3   OH274320   5.643   4.184   4.526 -0.0793 -0.0800 -0.1688
17610TIP3    H174321   5.660   4.222   4.440  0.1610  3.4580  1.2709
17610TIP3    H274322   5.549   4.164   4.525 -0.6120  2.1555 -0.5554
17611TIP3   OH274323   5.972   3.799   0.764 -0.4777 -0.0190  0.2243
17611TIP3    H174324   5.897   3.833   0.715  0.2172  0.9625 -0.1977
17611TIP3    H274325   5.973   3.705   0.746 -1.1421  0.0864 -0.3926
17612TIP3   OH274326   0.659   5.719   5.384 -0.0500  0.6855  0.0659
17612TIP3    H174327   0.744   5.694   5.418 -1.1194 -1.5000  1.3482
17612TIP3    H274328   0.656   5.681   5.296 -0.2788 -0.7010  0.6441
17613TIP3   OH274329   0.777   3.359  16.579 -0.4549  0.4794  0.5222
17613TIP3    H174330   0.685   3.384  16.576 -0.5063  0.2338 -0.1238
17613TIP3    H274331   0.813   3.408  16.654 -0.5636  2.4485 -0.6335
17614TIP3   OH274332   6.685   2.512  14.549  0.5754  0.0801  0.3413
17614TIP3    H174333   6.735   2.440  14.509 -2.5418 -1.1341 -1.7748
17614TIP3    H274334   6.720   2.591  14.507 -0.6586 -0.9344 -2.9247
17615TIP3   OH274335   4.888   2.975   0.027 -0.1272  0.4361 -0.7975
17615TIP3    H174336   4.796   2.999   0.015 -0.4380 -0.3685 -0.1581
17615TIP3    H274337   4.887   2.879   0.032  0.5927  0.4688  0.3791
17616TIP3   OH274338   3.278   2.165   2.374 -0.0072 -0.2657 -0.2411
17616TIP3    H174339   3.243   2.142   2.460 -2.5918 -0.6833 -1.3021
17616TIP3    H274340   3.372   2.174   2.388 -0.1270 -1.8853  2.2866
17617TIP3   OH274341   6.776   6.499  12.965 -0.0125  0.2231  0.0854
17617TIP3    H174342   6.796   6.498  13.059 -0.8977 -0.2581  0.2754
17617TIP3    H274343   6.697   6.447  12.956 -0.3374  0.8407 -0.8441
17618TIP3   OH274344   5.330   1.459   5.753  0.2306  0.4843  0.1515
17618TIP3    H174345   5.278   1.390   5.712 -1.9396  1.4417  1.1692
17618TIP3    H274346   5.393   1.412   5.808 -0.4664 -0.7088 -0.0446
17619TIP3   OH274347   5.334   6.409   4.032  0.6769 -0.0523  0.5184
17619TIP3    H174348   5.269   6.459   3.982  0.8915  1.7634  1.9445
17619TIP3    H274349   5.379   6.356   3.966  1.0998  2.3837 -1.3186
17620TIP3   OH274350   0.506   6.611   0.040 -0.5828 -0.2764  0.7648
17620TIP3    H174351   0.498   6.520   0.012 -3.0957  0.5520 -1.7960
17620TIP3    H274352   0.420   6.632   0.079 -0.9988  1.5795 -0.9619
17621TIP3   OH274353   2.258   0.713  13.360 -0.1580  0.3026 -0.1502
17621TIP3    H174354   2.262   0.714  13.456  0.6162 -1.4682 -0.1136
17621TIP3    H274355   2.348   0.697  13.332 -0.6750 -1.3758 -1.0462
17622TIP3   OH274356   4.033   1.528   0.723 -0.4549  0.2066  0.3196
17622TIP3    H174357   3.943   1.557   0.711 -0.5711  0.1281  0.9862
17622TIP3    H274358   4.044   1.455   0.662 -0.5995  0.7198 -0.3269
17623TIP3   OH274359   6.386   1.796   0.609 -0.3259 -0.4441  0.3279
17623TIP3    H174360   6.335   1.819   0.686  2.0347 -1.0460  2.2041
17623TIP3    H274361   6.424   1.878   0.579 -0.0691 -0.4135  0.7311
17624TIP3   OH274362   3.543   3.344  16.140  0.0659  0.0873  0.1180
17624TIP3    H174363   3.493   3.322  16.219 -1.4161 -0.6627 -0.9691
17624TIP3    H274364   3.543   3.263  16.089 -0.7787  1.0707 -1.5340
17625TIP3   OH274365   4.922   1.142   4.098  0.2058 -0.2143 -0.2327
17625TIP3    H174366   4.916   1.181   4.185  2.0611 -2.4835  1.0286
17625TIP3    H274367   5.015   1.127   4.084 -0.1143 -0.6646 -2.2933
17626TIP3   OH274368   1.383   5.491  14.322 -0.0821 -0.5550 -0.4043
17626TIP3    H174369   1.333   5.417  14.286  1.0697 -2.0484  0.9213
17626TIP3    H274370   1.454   5.504  14.259 -0.8837  0.1525 -1.1847
17627TIP3   OH274371   0.256   4.273   4.503  0.1073  0.2369 -0.1788
17627TIP3    H174372   0.202   4.300   4.429  0.5590 -4.2865 -2.5482
17627TIP3    H274373   0.343   4.307   4.482  0.0649 -0.3461 -1.4103
17628TIP3   OH274374   4.178   0.421   1.583  0.0195 -0.0033 -0.6471
17628TIP3    H174375   4.143   0.342   1.624  0.5226 -0.1406 -0.4771
17628TIP3    H274376   4.102   0.464   1.544 -0.8068  1.0988  1.9784
17629TIP3   OH274377   0.873   3.081   6.426  0.0651  0.6660 -0.4060
17629TIP3    H174378   0.828   3.003   6.462  0.0056  0.8628 -0.0451
17629TIP3    H274379   0.842   3.153   6.481  0.3977  0.8905 -0.5123
17630TIP3   OH274380   4.780   0.576   4.951  0.1442 -0.4566 -0.0491
17630TIP3    H174381   4.853   0.637   4.945  0.5608 -0.9175  0.2400
17630TIP3    H274382   4.776   0.533   4.866 -1.6199  1.5883 -1.0986
17631TIP3   OH274383   4.896   1.309   2.023 -0.4631  0.1092 -0.1965
17631TIP3    H174384   4.809   1.272   2.033 -0.8781  1.2014  0.4132
17631TIP3    H274385   4.891   1.395   2.065  0.2697  1.1415 -2.0574
17632TIP3   OH274386   1.919   3.364   0.694  0.6037 -0.2490  0.0924
17632TIP3    H174387   1.989   3.381   0.756 -0.0018  2.3335  0.1566
17632TIP3    H274388   1.838   3.377   0.744  0.0797 -1.1757 -0.4807
17633TIP3   OH274389   3.727   2.797  11.773 -0.6476 -0.0342 -0.1397
17633TIP3    H174390   3.776   2.783  11.692  0.7148 -0.4419  0.7201
17633TIP3    H274391   3.685   2.712  11.791 -1.5723  0.2700 -0.7922
17634TIP3   OH274392   1.881   6.477   6.162  0.4216  0.2447  0.6130
17634TIP3    H174393   1.788   6.458   6.157  0.8800 -2.1483  0.1028
17634TIP3    H274394   1.891   6.559   6.112 -0.9855 -1.1616 -2.2412
17635TIP3   OH274395   0.646   3.138  12.576 -0.4482 -0.2023  0.1256
17635TIP3    H174396   0.604   3.052  12.582 -0.6293 -0.2209 -1.2530
17635TIP3    H274397   0.576   3.197  12.548  0.1764 -0.0246 -1.1093
17636TIP3   OH274398   2.099   2.227   1.752  0.1602  0.0035  0.2452
17636TIP3    H174399   2.092   2.285   1.829  0.8020  1.0023 -0.4293
17636TIP3    H274400   2.124   2.142   1.789  1.0059  0.6005  1.1067
17637TIP3   OH274401   5.068   4.261   5.865  0.3422  0.2041 -0.0982
17637TIP3    H174402   5.124   4.339   5.862 -0.1112  0.5094 -1.0932
17637TIP3    H274403   5.017   4.271   5.945  1.2058  0.2656  0.4647
17638TIP3   OH274404   0.745   2.924   6.601 -0.0916  0.1123 -0.1894
17638TIP3    H174405   0.727   2.983   6.674 -1.4010 -0.5320  0.0395
17638TIP3    H274406   0.740   2.836   6.640  1.0737 -0.1862 -0.6738
17639TIP3   OH274407   3.442   1.321   5.189  0.3078 -0.1957  0.3588
17639TIP3    H174408   3.519   1.339   5.243 -0.1076  1.8779  0.3386
17639TIP3    H274409   3.368   1.350   5.242 -0.3255 -0.6953 -0.2425
17640TIP3   OH274410   6.748   2.589   6.134  0.1266 -0.0252 -0.0666
17640TIP3    H174411   6.677   2.608   6.196  0.7147  0.6723  0.4035
17640TIP3    H274412   6.779   2.502   6.159 -1.2534 -0.8128 -0.9578
17641TIP3   OH274413   6.816   1.760   1.552 -0.2636 -0.0537  0.5920
17641TIP3    H174414   6.725   1.761   1.523  0.3643 -0.3878 -1.5063
17641TIP3    H274415   6.842   1.668   1.550  0.4759  0.1577 -0.0354
17642TIP3   OH274416   6.664   5.107  10.816 -0.0674 -0.1671 -0.1420
17642TIP3    H174417   6.686   5.200  10.820 -3.3846  0.9791 -2.9829
17642TIP3    H274418   6.682   5.082  10.726  0.7450 -2.3402  0.5783
17643TIP3   OH274419   1.041   4.753  16.104 -0.5456  0.6542 -0.2146
17643TIP3    H174420   0.966   4.812  16.094  0.4801  2.3037  1.2695
17643TIP3    H274421   1.054   4.747  16.198 -0.7416 -2.2301 -0.2747
17644TIP3   OH274422   5.116   3.686   1.142 -0.3408 -0.6849  0.2308
17644TIP3    H174423   5.136   3.748   1.213 -0.5898 -0.3477  0.0101
17644TIP3    H274424   5.094   3.605   1.187 -1.5023 -0.1971  0.5961
17645TIP3   OH274425   2.940   3.483   5.868 -0.5252 -0.3473 -0.3903
17645TIP3    H174426   2.913   3.395   5.895  0.0473  0.1289  2.0035
17645TIP3    H274427   2.922   3.538   5.944  1.4519  1.1267 -0.9019
17646TIP3   OH274428   5.591   2.652   4.280  0.2496  0.2925  0.0475
17646TIP3    H174429   5.591   2.574   4.225 -0.4092 -0.0176  0.4764
17646TIP3    H274430   5.561   2.722   4.222  1.3334  0.3498 -0.4792
17647TIP3   OH274431   6.370   0.766  13.066 -0.2914  0.0400 -0.5649
17647TIP3    H174432   6.406   0.839  13.117 -0.8353 -0.0940  0.0296
17647TIP3    H274433   6.427   0.760  12.989  1.8186 -1.0411  0.9754
17648TIP3   OH274434   1.249   6.530   5.296 -0.0911 -0.1491 -0.5632
17648TIP3    H174435   1.241   6.475   5.217 -0.5743  0.6170 -1.0614
17648TIP3    H274436   1.339   6.560   5.295  0.2128 -1.0191 -0.2223
17649TIP3   OH274437   1.375   0.697   1.511  0.5531 -0.1996 -0.0633
17649TIP3    H174438   1.464   0.734   1.505  0.0733  1.3163  1.4125
17649TIP3    H274439   1.352   0.705   1.603 -1.1212 -0.6132 -0.4120
17650TIP3   OH274440   2.490   0.860   1.296  0.5689 -0.2258 -0.1516
17650TIP3    H174441   2.401   0.824   1.288  0.3884 -0.1878  1.3528
17650TIP3    H274442   2.533   0.836   1.214 -0.7779 -0.3929 -0.8392
17651TIP3   OH274443   1.004   3.118  17.031 -0.0815 -0.0435  0.0556
17651TIP3    H174444   0.983   3.037  16.986 -1.1124 -0.0354  0.4900
17651TIP3    H274445   1.066   3.163  16.973 -2.7004  0.8226 -2.3188
17652TIP3   OH274446   3.990   2.155   3.839  0.0247  0.0666 -0.0126
17652TIP3    H174447   3.964   2.216   3.769  2.6408  2.3771  0.8608
17652TIP3    H274448   3.915   2.153   3.898 -0.6145  1.4923 -0.7228
17653TIP3   OH274449   6.349   3.632  13.835 -0.1129  0.0835  0.7231
17653TIP3    H174450   6.260   3.649  13.806 -0.6994 -0.1977  2.2676
17653TIP3    H274451   6.341   3.617  13.930  1.3741 -1.3253  0.6714
17654TIP3   OH274452   3.392   1.251  11.275  0.0747  0.1931 -0.5167
17654TIP3    H174453   3.372   1.162  11.246 -0.8522  0.0947  0.3737
17654TIP3    H274454   3.313   1.301  11.257  0.2578  0.6232 -0.1621
17655TIP3   OH274455   1.354   4.608   1.864 -0.4137 -0.4255 -0.3448
17655TIP3    H174456   1.344   4.629   1.771 -1.1007  1.5561  0.1207
17655TIP3    H274457   1.442   4.573   1.872  0.6837  1.8933 -1.3677
17656TIP3   OH274458   4.793   3.713   1.217 -0.2082  0.1589 -0.3051
17656TIP3    H174459   4.830   3.631   1.250  0.8840  0.5811 -0.4212
17656TIP3    H274460   4.755   3.689   1.132  0.1279 -0.2332 -0.3518
17657TIP3   OH274461   1.191   3.655   2.846  0.3516  0.1417  0.0799
17657TIP3    H174462   1.098   3.650   2.825  0.3464  1.9578 -0.5587
17657TIP3    H274463   1.234   3.601   2.779 -0.0841  1.4059 -1.2864
17658TIP3   OH274464   2.760   0.802  12.973  0.0148 -0.7810  0.1440
17658TIP3    H174465   2.769   0.802  13.068 -1.7929 -0.3422  0.3475
17658TIP3    H274466   2.843   0.838  12.941  0.1009  0.4341  1.6303
17659TIP3   OH274467   3.966   0.476  16.555  0.2284  1.2857  0.1553
17659TIP3    H174468   4.058   0.500  16.544  0.9825 -1.4882 -0.2800
17659TIP3    H274469   3.930   0.545  16.611  2.6708  2.2096  0.7241
17660TIP3   OH274470   2.601   5.267  12.371  0.1134 -0.4358  0.1747
17660TIP3    H174471   2.648   5.328  12.427 -0.2813 -0.3454  0.4108
17660TIP3    H274472   2.666   5.202  12.345 -0.1011 -1.6006  2.2898
17661TIP3   OH274473   1.436   3.961  13.449 -0.8411  0.5557 -0.0244
17661TIP3    H174474   1.518   3.916  13.469 -1.7153 -0.1577  2.2313
17661TIP3    H274475   1.458   4.054  13.450 -0.3700  0.4704  2.4224
17662TIP3   OH274476   4.144   5.571   2.761  0.2220  0.3306  0.2467
17662TIP3    H174477   4.153   5.553   2.667 -1.2734 -0.0447  0.1553
17662TIP3    H274478   4.179   5.660   2.771 -2.0761  1.4907 -1.1708
17663TIP3   OH274479   4.046   5.412   3.961 -0.2136 -0.0420 -0.0489
17663TIP3    H174480   4.017   5.325   3.935 -3.2955  1.1827 -1.2172
17663TIP3    H274481   4.004   5.428   4.046 -0.0690  0.4484 -0.0625
17664TIP3   OH274482   6.732   4.886  14.003 -0.8523  0.6174 -0.0732
17664TIP3    H174483   6.754   4.974  14.034 -0.0641  0.1150  0.8591
17664TIP3    H274484   6.811   4.834  14.019 -1.2963 -0.2632 -0.6228
17665TIP3   OH274485   5.110   4.473   0.134  0.1673  0.2472  0.1042
17665TIP3    H174486   5.041   4.441   0.193 -1.6159  1.0437 -1.4576
17665TIP3    H274487   5.156   4.395   0.106 -0.5202 -0.3815  0.6887
17666TIP3   OH274488   2.331   4.225   0.261  0.1562 -0.2336  0.0340
17666TIP3    H174489   2.256   4.166   0.271  0.9174 -1.3574 -0.6480
17666TIP3    H274490   2.365   4.204   0.174  0.2761  1.4375 -0.3471
17667TIP3   OH274491   1.945   4.898   2.064  0.0688 -0.1760 -0.5574
17667TIP3    H174492   2.035   4.920   2.091  0.0977 -0.7086 -0.1977
17667TIP3    H274493   1.890   4.945   2.127  0.1059 -0.2155 -0.4950
17668TIP3   OH274494   0.769   3.389   3.572 -0.2881 -0.2705 -0.5095
17668TIP3    H174495   0.778   3.339   3.491 -0.0590 -1.7951  0.4338
17668TIP3    H274496   0.792   3.328   3.641  0.6883  1.3296  0.6641
17669TIP3   OH274497   2.999   3.254   2.998 -0.1039 -0.3503 -0.3690
17669TIP3    H174498   3.058   3.215   2.935  0.8759  0.1635  0.2063
17669TIP3    H274499   2.973   3.337   2.959  2.2908  1.0684  0.7858
17670TIP3   OH274500   4.841   5.374  10.613  0.2816  0.1356  0.3069
17670TIP3    H174501   4.909   5.308  10.604  1.3496  0.9213  2.0913
17670TIP3    H274502   4.759   5.326  10.597  1.2042 -0.6489 -2.7032
17671TIP3   OH274503   4.648   6.678  14.697  0.2992  0.5535  0.6578
17671TIP3    H174504   4.623   6.606  14.755 -0.1223 -1.1303 -1.4941
17671TIP3    H274505   4.679   6.747  14.756  0.9827 -1.4715  2.8017
17672TIP3   OH274506   2.399   6.418   4.753  0.0974  0.3598 -0.1846
17672TIP3    H174507   2.343   6.492   4.778  1.2897  1.4554 -0.6656
17672TIP3    H274508   2.406   6.424   4.658  1.6064  0.6933 -0.0718
17673TIP3   OH274509   4.395   3.390   4.950  0.1566  0.1844  0.0724
17673TIP3    H174510   4.316   3.394   5.003 -0.1949 -0.3787 -0.3988
17673TIP3    H274511   4.364   3.388   4.859  0.7196  0.3125 -0.1314
17674TIP3   OH274512   1.980   5.855   0.900  0.9477  0.1822 -0.4668
17674TIP3    H174513   1.964   5.827   0.990  1.2857  0.5978 -0.2713
17674TIP3    H274514   2.061   5.906   0.905 -0.9637  3.5250 -0.2815
17675TIP3   OH274515   0.525   1.573   3.687  0.1288  0.6072  0.1619
17675TIP3    H174516   0.448   1.524   3.717 -1.0620  2.0535 -0.4118
17675TIP3    H274517   0.528   1.558   3.593  0.0974  1.1692  0.0699
17676TIP3   OH274518   2.268   3.700   3.057  0.2246 -0.1820  0.2905
17676TIP3    H174519   2.327   3.630   3.029  1.3969  0.7949  0.1881
17676TIP3    H274520   2.256   3.753   2.978  0.6543  0.6026  0.7413
17677TIP3   OH274521   0.869   0.310  17.113  0.4746  0.1004 -0.0841
17677TIP3    H174522   0.950   0.295  17.066  0.6603 -0.3970  0.3830
17677TIP3    H274523   0.838   0.396  17.082  1.5170  0.6033  0.2312
17678TIP3   OH274524   0.841   4.325  10.893  0.0319 -0.8717  0.2274
17678TIP3    H174525   0.775   4.324  10.824  0.3385 -0.2688 -0.0772
17678TIP3    H274526   0.897   4.250  10.874  1.3295  0.4177 -1.3859
17679TIP3   OH274527   2.167   6.426   3.132  0.3425  0.0587  0.1202
17679TIP3    H174528   2.187   6.402   3.042  1.8636 -0.0306  0.4659
17679TIP3    H274529   2.215   6.363   3.185 -0.6311  0.0451  1.0040
17680TIP3   OH274530   5.148   1.744   4.759 -0.2417 -0.1544  0.1958
17680TIP3    H174531   5.079   1.794   4.802 -1.1391 -0.4493 -0.8678
17680TIP3    H274532   5.103   1.690   4.694  0.9425 -0.6651 -0.2409
17681TIP3   OH274533   2.956   0.764   4.766 -0.3493  0.6547 -0.1967
17681TIP3    H174534   2.922   0.734   4.850 -2.9752  0.7023 -1.1304
17681TIP3    H274535   2.908   0.845   4.749 -0.9280 -0.0765 -2.3327
17682TIP3   OH274536   4.980   1.569  15.812 -0.0501 -0.2904  0.1317
17682TIP3    H174537   5.001   1.604  15.899 -1.2440 -1.3053  0.8710
17682TIP3    H274538   4.892   1.532  15.822 -0.2377 -0.3744 -1.5359
17683TIP3   OH274539   2.167   2.168   2.311  0.1984 -0.0408 -0.1131
17683TIP3    H174540   2.091   2.118   2.279  0.0593 -0.0527  0.2362
17683TIP3    H274541   2.166   2.248   2.258 -0.8315  0.5581  0.7574
17684TIP3   OH274542   1.679   0.050  11.177 -0.1034 -0.7531  0.7231
17684TIP3    H174543   1.737   0.126  11.184 -0.8720  0.0554 -0.9720
17684TIP3    H274544   1.718  -0.004  11.108 -0.5124 -0.9777  0.6610
17685TIP3   OH274545   1.700   1.581  15.257 -0.0378  0.1424 -0.4981
17685TIP3    H174546   1.774   1.629  15.294 -0.4441  0.6840 -0.3571
17685TIP3    H274547   1.739   1.518  15.197  0.7951 -1.8636  1.9541
17686TIP3   OH274548   0.455   3.468  13.729 -0.1140 -0.5949 -0.1528
17686TIP3    H174549   0.414   3.515  13.801 -1.1683 -0.0608 -1.0626
17686TIP3    H274550   0.509   3.534  13.685 -1.5558 -0.1781 -1.4027
17687TIP3   OH274551   0.506   6.583  16.085  0.6979 -0.3681  0.1093
17687TIP3    H174552   0.434   6.529  16.054 -0.4554  0.4290  1.2813
17687TIP3    H274553   0.518   6.649  16.017 -1.0541  0.6879  0.7307
17688TIP3   OH274554   4.897   1.694   3.640 -0.3622  0.3029  0.1755
17688TIP3    H174555   4.968   1.671   3.700  0.2840 -0.9974 -1.0428
17688TIP3    H274556   4.824   1.638   3.666  0.0009 -0.4493 -0.3890
17689TIP3   OH274557   5.526   4.386  17.168 -0.0763 -0.2481  0.9232
17689TIP3    H174558   5.576   4.321  17.217  1.3930  1.2363  1.4908
17689TIP3    H274559   5.544   4.366  17.076  0.4378 -0.5935  1.0934
17690TIP3   OH274560   2.487   3.647   4.850 -0.1543 -0.7501  0.7216
17690TIP3    H174561   2.537   3.586   4.904 -0.5359  0.0339  2.0006
17690TIP3    H274562   2.417   3.679   4.907  0.4630  1.4523  0.3618
17691TIP3   OH274563   5.917   5.678  14.348 -0.5217 -0.5780 -0.2907
17691TIP3    H174564   5.954   5.623  14.417  0.8261  0.9459  0.2661
17691TIP3    H274565   5.917   5.623  14.270  1.5582 -1.1502  0.0525
17692TIP3   OH274566   4.936   3.069  12.823  0.4182 -0.4206 -0.2512
17692TIP3    H174567   4.858   3.043  12.774  0.4413  1.0467 -1.1164
17692TIP3    H274568   4.937   3.010  12.899 -2.3550  0.4503  0.5959
17693TIP3   OH274569   0.262   0.869   3.185  0.0675  0.1054 -0.0772
17693TIP3    H174570   0.240   0.883   3.277  0.2430  0.2249 -0.0535
17693TIP3    H274571   0.178   0.876   3.139 -0.2875 -1.5158  0.2495
17694TIP3   OH274572   0.615   5.712  14.771 -0.2510  0.8029 -0.7620
17694TIP3    H174573   0.578   5.800  14.759  1.0902  1.3213 -1.3188
17694TIP3    H274574   0.660   5.716  14.855 -3.6160 -0.6633  1.3149
17695TIP3   OH274575   2.236   4.663  13.240 -0.3166  0.4634 -0.8411
17695TIP3    H174576   2.299   4.681  13.170  0.5876  0.0029 -0.1665
17695TIP3    H274577   2.261   4.722  13.311 -1.0185  0.6949 -0.7765
17696TIP3   OH274578   5.238   2.967   5.949 -0.1115 -0.0779  0.6158
17696TIP3    H174579   5.274   2.939   5.865 -0.5997  0.7349  0.1155
17696TIP3    H274580   5.168   2.904   5.968 -1.2595  0.7965 -0.5375
17697TIP3   OH274581   3.030   1.783   2.637 -0.2812 -0.4732  0.6819
17697TIP3    H174582   2.940   1.781   2.605  0.4733 -2.9843 -1.6195
17697TIP3    H274583   3.029   1.849   2.706 -3.4198  0.9950 -0.5685
17698TIP3   OH274584   2.791   0.326  11.978 -0.4361 -0.2067 -0.0868
17698TIP3    H174585   2.755   0.332  11.890 -0.0574  0.8499 -0.1834
17698TIP3    H274586   2.850   0.251  11.975 -0.2560 -0.0415 -0.7984
17699TIP3   OH274587   4.232   1.062   0.166  0.4275 -0.3058 -0.1607
17699TIP3    H174588   4.182   1.141   0.147  1.9801  0.6648 -0.4168
17699TIP3    H274589   4.183   1.018   0.235 -0.9586  0.3892 -0.6815
17700TIP3   OH274590   6.173   1.987   2.669 -0.2621  0.3169 -0.1901
17700TIP3    H174591   6.186   1.893   2.661 -0.4837  0.3300 -0.7010
17700TIP3    H274592   6.089   2.004   2.627  0.8966  1.0721 -2.3687
17701TIP3   OH274593   1.482   6.579   2.535 -0.4299 -0.3569 -0.5080
17701TIP3    H174594   1.551   6.513   2.537 -0.4821 -0.3866  0.3323
17701TIP3    H274595   1.419   6.546   2.471  0.1638 -0.4894 -1.0392
17702TIP3   OH274596   0.112   5.449   2.225  0.1903 -0.2316  0.2735
17702TIP3    H174597   0.170   5.521   2.202  1.2075 -1.0532  0.2027
17702TIP3    H274598   0.053   5.486   2.290 -0.4356  1.1350 -0.9980
17703TIP3   OH274599   1.901   2.952  15.327  0.3681 -0.2708 -0.8184
17703TIP3    H174600   1.929   3.007  15.400  0.0419 -0.5439 -0.4846
17703TIP3    H274601   1.824   2.997  15.292  0.5101 -0.1531 -0.9839
17704TIP3   OH274602   2.370   2.616  16.873 -0.3378  0.5291 -0.4374
17704TIP3    H174603   2.320   2.566  16.808  0.6719 -0.7956 -0.2358
17704TIP3    H274604   2.335   2.586  16.957  0.7039 -0.3631 -0.2973
17705TIP3   OH274605   3.010   3.949   2.534  0.5100 -0.0939 -0.1850
17705TIP3    H174606   2.999   3.906   2.619 -0.8503 -1.7824 -1.1438
17705TIP3    H274607   3.091   4.000   2.543  1.0804 -1.2382  1.7035
17706TIP3   OH274608   5.855   2.336  13.906 -0.3606  0.3958 -0.1557
17706TIP3    H174609   5.908   2.336  13.826  0.7813  1.1884  0.5633
17706TIP3    H274610   5.815   2.423  13.908 -0.3325  0.4014  0.1671
17707TIP3   OH274611   5.152   0.046  15.208 -0.1209 -0.5526  0.5833
17707TIP3    H174612   5.106  -0.037  15.216  1.0710 -1.6039 -2.1324
17707TIP3    H274613   5.114   0.087  15.130  1.1430  0.1592  0.3087
17708TIP3   OH274614   2.000   2.918   5.231 -0.1311 -0.2460  0.8123
17708TIP3    H174615   2.073   2.866   5.195 -0.7034 -1.7159  1.6605
17708TIP3    H274616   2.006   2.905   5.326 -1.7689 -0.8068  0.8738
17709TIP3   OH274617   3.334   4.104   0.748 -0.0240 -0.0553  0.1352
17709TIP3    H174618   3.371   4.192   0.754  0.6184 -0.1626 -1.7685
17709TIP3    H274619   3.255   4.115   0.695  0.5010 -0.7470 -0.8048
17710TIP3   OH274620   6.480   1.635  12.683 -0.6557 -0.0259 -0.8089
17710TIP3    H174621   6.567   1.599  12.667 -0.4175 -0.8225  1.8294
17710TIP3    H274622   6.420   1.567  12.650 -0.2246 -0.8038 -0.0437
17711TIP3   OH274623   5.393   5.517  16.438  0.2709 -0.5278  0.5867
17711TIP3    H174624   5.444   5.438  16.458  0.1331 -0.5987  0.6636
17711TIP3    H274625   5.303   5.492  16.459  0.0965 -0.6589 -0.2686
17712TIP3   OH274626   5.772   2.769  16.292 -0.2698  0.2255  0.0324
17712TIP3    H174627   5.772   2.674  16.300 -1.2949  0.2888  1.1758
17712TIP3    H274628   5.782   2.800  16.382 -0.3348  1.1932 -0.2839
17713TIP3   OH274629   5.376   6.817  11.343 -0.3681 -0.1977 -0.6033
17713TIP3    H174630   5.460   6.783  11.375 -0.0705  1.1607  0.1471
17713TIP3    H274631   5.385   6.816  11.248  0.6417  0.2388 -0.5266
17714TIP3   OH274632   1.970   2.729   4.711 -0.1662  0.3134 -0.4057
17714TIP3    H174633   1.907   2.710   4.641 -1.8259  0.0283  1.0985
17714TIP3    H274634   1.916   2.749   4.787  1.5887  1.3402  0.6356
17715TIP3   OH274635   4.379   6.815   5.122 -0.3249 -0.0126  0.2446
17715TIP3    H174636   4.288   6.834   5.144 -1.4947 -1.1614 -2.9729
17715TIP3    H274637   4.375   6.734   5.071  2.3754  0.3327 -0.6715
17716TIP3   OH274638   0.851   3.099  11.637  0.2998 -0.6784  0.0497
17716TIP3    H174639   0.901   3.033  11.588  0.7174  0.6261 -1.3327
17716TIP3    H274640   0.911   3.172  11.648 -0.4412 -0.1554  0.7628
17717TIP3   OH274641   2.951   0.664   5.362 -0.5176  0.0501  0.7441
17717TIP3    H174642   3.026   0.718   5.338 -2.0530  1.7562 -0.5384
17717TIP3    H274643   2.988   0.580   5.387  1.7829  0.7747 -0.0217
17718TIP3   OH274644   2.914   3.916  14.613 -0.4194 -0.3679  0.1868
17718TIP3    H174645   2.920   3.947  14.523 -0.9795 -3.1557 -0.9084
17718TIP3    H274646   2.822   3.930  14.636  0.1104  2.1681  1.1532
17719TIP3   OH274647   2.240   3.877   0.144 -0.1147 -0.0731  0.3634
17719TIP3    H174648   2.308   3.878   0.077 -0.3644  1.2360  0.0991
17719TIP3    H274649   2.209   3.967   0.148 -1.5917 -0.5677  0.7379
17720TIP3   OH274650   1.270   3.781  16.070  0.3822  0.1756 -0.0792
17720TIP3    H174651   1.339   3.770  16.004 -0.4669  0.6904 -1.0840
17720TIP3    H274652   1.209   3.843  16.031  0.1713  1.0025  1.4730
17721TIP3   OH274653   6.137   4.268  14.466  0.1776 -0.0149  0.1906
17721TIP3    H174654   6.191   4.297  14.392 -0.1448  1.0317  0.3377
17721TIP3    H274655   6.174   4.316  14.541 -0.3691  0.0002  0.4505
17722TIP3   OH274656   6.381   3.089   1.941  0.2065  0.2030 -0.1706
17722TIP3    H174657   6.429   3.009   1.919 -0.2556 -0.1233  0.0047
17722TIP3    H274658   6.441   3.159   1.916  0.5424 -0.1902 -0.5059
17723TIP3   OH274659   5.676   4.384   1.032 -0.1382 -0.6745  0.0827
17723TIP3    H174660   5.749   4.431   1.074  0.8608 -2.6130  0.6248
17723TIP3    H274661   5.693   4.393   0.938  0.3708 -0.4721  0.1914
17724TIP3   OH274662   4.011   3.904  15.723 -0.5260 -0.2575 -0.0302
17724TIP3    H174663   4.021   3.845  15.798  0.8751  1.4711  1.2310
17724TIP3    H274664   3.919   3.896  15.698 -1.7407  0.8781  3.4696
17725TIP3   OH274665   0.803   0.248   0.173  0.2673  0.2441 -0.8797
17725TIP3    H174666   0.834   0.261   0.083  0.1804 -2.0004 -1.2719
17725TIP3    H274667   0.879   0.267   0.228  1.3561 -1.6800 -1.6478
17726TIP3   OH274668   0.992   5.990   5.556  0.1150 -0.2728 -0.3044
17726TIP3    H174669   1.014   5.897   5.556 -0.7330 -0.4796 -0.9422
17726TIP3    H274670   0.960   6.008   5.467 -1.6215  0.1647  0.3735
17727TIP3   OH274671   2.738   5.859  13.810 -0.2543  0.8212  0.6649
17727TIP3    H174672   2.774   5.894  13.891  0.0211 -0.4949  1.1440
17727TIP3    H274673   2.763   5.766  13.810 -0.7833  0.6442 -0.6209
17728TIP3   OH274674   2.416   2.378   1.613  0.0673  0.5349 -0.4353
17728TIP3    H174675   2.358   2.390   1.688 -0.1170 -0.6889 -0.3659
17728TIP3    H274676   2.373   2.425   1.542 -0.7071  0.1547 -0.2321
17729TIP3   OH274677   1.503   5.027  16.742 -0.3170 -0.1351 -0.0093
17729TIP3    H174678   1.556   5.004  16.817  1.3932  0.1145 -1.0866
17729TIP3    H274679   1.448   5.100  16.772  0.9747  0.5514  0.7525
17730TIP3   OH274680   1.170   5.443  11.401 -0.2790  0.3579  0.3669
17730TIP3    H174681   1.242   5.492  11.362  0.3695 -1.1194 -0.3713
17730TIP3    H274682   1.211   5.363  11.435 -1.4213 -0.0553  0.8235
17731TIP3   OH274683   3.483   1.685  14.557 -0.6375  0.0930 -0.1274
17731TIP3    H174684   3.486   1.667  14.463 -1.0845 -0.0480 -0.1162
17731TIP3    H274685   3.448   1.774  14.564  0.5098  0.5731 -0.1349
17732TIP3   OH274686   3.332   1.203   1.057  0.1713  0.2994  0.3710
17732TIP3    H174687   3.255   1.147   1.054  0.0713  0.3964  1.0237
17732TIP3    H274688   3.399   1.154   1.008 -0.1684  0.0042  0.2003
17733TIP3   OH274689   5.594   6.359  11.841  0.1759  0.3345 -0.1190
17733TIP3    H174690   5.678   6.395  11.871  0.8284 -1.0510 -0.2008
17733TIP3    H274691   5.618   6.278  11.796 -1.1385  0.3990 -0.9755
17734TIP3   OH274692   5.455   3.748  15.093 -0.4317  0.4495 -0.3246
17734TIP3    H174693   5.438   3.843  15.086  1.6242  0.8946  0.1888
17734TIP3    H274694   5.464   3.718  15.003 -0.1782  0.9153 -0.4567
17735TIP3   OH274695   1.600   5.370  12.298 -0.1696 -0.4650  0.5944
17735TIP3    H174696   1.506   5.356  12.305 -0.8242  1.5914 -2.4650
17735TIP3    H274697   1.632   5.297  12.245 -0.4540  0.0297 -0.2683
17736TIP3   OH274698   6.740   1.928  11.900 -0.0386  0.7019  0.3759
17736TIP3    H174699   6.663   1.904  11.950 -0.2175 -0.1550 -0.3029
17736TIP3    H274700   6.725   2.020  11.876  0.2445  1.2622  2.2198
17737TIP3   OH274701   1.432   3.416  13.312 -0.2227 -0.3244  0.2586
17737TIP3    H174702   1.361   3.426  13.375  0.6658 -1.6048  1.5439
17737TIP3    H274703   1.463   3.326  13.326  2.3836  0.5232  0.5876
17738TIP3   OH274704   3.701   6.296  11.588 -0.1088 -0.1968  0.0166
17738TIP3    H174705   3.786   6.316  11.549 -0.6402  0.9793 -0.5844
17738TIP3    H274706   3.694   6.201  11.583  0.5357 -0.1899 -1.3254
17739TIP3   OH274707   4.210   3.897   5.265  0.4923 -0.0880 -0.2473
17739TIP3    H174708   4.175   3.945   5.190  0.7970 -0.0534 -0.3678
17739TIP3    H274709   4.281   3.845   5.229 -0.6986 -1.6943 -0.3912
17740TIP3   OH274710   3.797   4.057  13.616  0.3865  0.5948  0.4059
17740TIP3    H174711   3.853   3.983  13.640 -0.4693  0.0934  0.9449
17740TIP3    H274712   3.814   4.072  13.523  1.4807  0.5313  0.5897
17741TIP3   OH274713   3.917   6.079  10.856 -0.0961 -0.1289 -0.2799
17741TIP3    H174714   4.007   6.086  10.887 -0.0904 -0.3220 -0.2517
17741TIP3    H274715   3.898   6.164  10.816 -0.1777  0.2156  0.4658
17742TIP3   OH274716   0.773   0.043  15.843  0.0976 -0.1180  0.3206
17742TIP3    H174717   0.733  -0.022  15.784  2.5356 -0.9422 -0.5426
17742TIP3    H274718   0.764   0.004  15.930 -1.1690 -0.1383  0.2057
17743TIP3   OH274719   5.184   5.978  11.153 -0.4982 -0.3855 -0.0363
17743TIP3    H174720   5.218   5.892  11.129  1.1335  0.2403 -0.0766
17743TIP3    H274721   5.098   5.982  11.110 -0.6429 -1.9992  0.0289
17744TIP3   OH274722   6.320   3.671  15.973 -0.2294 -0.1314  0.0947
17744TIP3    H174723   6.306   3.582  15.941 -0.7351 -1.3295  3.2281
17744TIP3    H274724   6.234   3.701  16.001 -0.0201  1.2624 -0.6840
17745TIP3   OH274725   1.393   5.060  11.944 -0.7772  0.3575 -0.0632
17745TIP3    H174726   1.369   5.015  12.025  0.0045 -0.3240 -0.1931
17745TIP3    H274727   1.433   5.142  11.972  0.0706 -0.1572  0.2813
17746TIP3   OH274728   4.658   3.281   3.586 -0.7175  0.0778 -0.2749
17746TIP3    H174729   4.625   3.196   3.557 -0.5389 -0.2044  0.3394
17746TIP3    H274730   4.652   3.277   3.681  1.1951 -0.0262 -0.1345
17747TIP3   OH274731   2.436   5.894   3.565 -0.3647  0.1746 -0.1717
17747TIP3    H174732   2.498   5.834   3.608  0.1742  3.0965  3.7099
17747TIP3    H274733   2.471   5.906   3.477  2.0429 -1.6584  0.4306
17748TIP3   OH274734   1.317   4.840  15.304 -0.0224 -0.1807  0.1901
17748TIP3    H174735   1.359   4.845  15.390 -0.1663  0.3585  0.2356
17748TIP3    H274736   1.328   4.928  15.267  1.8480 -0.9438 -1.2295
17749TIP3   OH274737   1.074   0.301   5.909  0.0258  0.1337 -0.3036
17749TIP3    H174738   1.110   0.379   5.866 -2.0087  1.4610  0.2267
17749TIP3    H274739   1.100   0.311   6.001 -0.3367  0.2521 -0.2135
17750TIP3   OH274740   6.506   0.941  13.213  0.5364 -0.2696 -0.1134
17750TIP3    H174741   6.501   1.025  13.260 -0.9164  0.2199 -1.0654
17750TIP3    H274742   6.525   0.877  13.281  2.0247  0.8574  0.5968
17751TIP3   OH274743   1.536   3.394   5.485  0.1796  0.2402 -0.1142
17751TIP3    H174744   1.565   3.337   5.414  0.6369  0.9112 -0.4750
17751TIP3    H274745   1.497   3.469   5.442 -0.7169  0.0589  0.3671
17752TIP3   OH274746   0.214   6.284   0.651  0.1333  0.3419 -0.7598
17752TIP3    H174747   0.223   6.190   0.662 -0.2999  0.3660 -0.1226
17752TIP3    H274748   0.301   6.319   0.670  0.1702  0.1097 -0.4983
17753TIP3   OH274749   4.051   3.201   0.729 -0.3428  0.5920  0.4107
17753TIP3    H174750   4.068   3.107   0.728 -0.9974  0.4368  1.9301
17753TIP3    H274751   4.120   3.236   0.786  0.8427  1.2706 -1.3472
17754TIP3   OH274752   1.834   2.693  12.419 -0.1924  0.8780  0.2572
17754TIP3    H174753   1.838   2.780  12.458  0.0942  0.3363  1.4940
17754TIP3    H274754   1.894   2.641  12.473 -0.0039  0.0308 -0.7529
17755TIP3   OH274755   3.750   1.365   1.312 -0.4112  0.0458  0.4507
17755TIP3    H174756   3.769   1.361   1.406 -0.6305 -0.7889  0.4687
17755TIP3    H274757   3.753   1.459   1.291  4.7217  0.1025  0.2421
17756TIP3   OH274758   2.613   3.303   5.544  0.1163 -0.0934  0.2278
17756TIP3    H174759   2.655   3.320   5.628 -1.6405  3.1469  0.6171
17756TIP3    H274760   2.685   3.288   5.483  1.4812 -0.9768  1.9804
17757TIP3   OH274761   5.444   5.300  12.524 -0.4981 -0.4776  0.4555
17757TIP3    H174762   5.418   5.377  12.473 -0.1705 -0.2281  0.6589
17757TIP3    H274763   5.498   5.335  12.595  1.9106 -1.1001 -0.9345
17758TIP3   OH274764   6.784   1.226   2.754  0.1503  0.1391 -0.0539
17758TIP3    H174765   6.735   1.302   2.725  1.4763  1.3729  0.8385
17758TIP3    H274766   6.737   1.195   2.831 -1.2837 -0.9437 -1.2989
17759TIP3   OH274767   2.488   2.318   3.431  0.6263  0.1588  0.4558
17759TIP3    H174768   2.530   2.264   3.363  2.7563  1.3079  0.7570
17759TIP3    H274769   2.525   2.284   3.513 -0.8003 -0.2515  0.9509
17760TIP3   OH274770   6.430   1.369   3.532 -0.3506  0.0692  0.5129
17760TIP3    H174771   6.359   1.432   3.534  0.2237  0.7180  0.9845
17760TIP3    H274772   6.500   1.410   3.583  0.9314  0.1214 -1.1835
17761TIP3   OH274773   5.357   0.617  12.987 -0.1402 -0.4384 -0.7323
17761TIP3    H174774   5.357   0.556  13.061  1.2865  3.0406  2.4676
17761TIP3    H274775   5.416   0.576  12.922 -1.0322 -3.3866  0.1692
17762TIP3   OH274776   2.574   3.485  13.402 -0.0946 -0.8007  0.0269
17762TIP3    H174777   2.588   3.500  13.309  2.1388 -2.3691  0.0318
17762TIP3    H274778   2.661   3.493  13.442 -1.1729  1.1560  2.2286
17763TIP3   OH274779   6.643   6.300  14.015  0.1186  0.1960  0.2392
17763TIP3    H174780   6.578   6.241  13.978  0.7266  0.3404 -1.1389
17763TIP3    H274781   6.653   6.271  14.106 -0.2420 -1.2481 -0.1508
17764TIP3   OH274782   6.257   0.151  13.557 -0.2661  0.0251  0.4152
17764TIP3    H174783   6.247   0.066  13.514  0.6523  0.4163 -0.5930
17764TIP3    H274784   6.351   0.157  13.578 -0.3958  0.6059  0.8782
17765TIP3   OH274785   6.700   5.272   0.913  0.6647  0.6446  0.2153
17765TIP3    H174786   6.638   5.341   0.889 -0.1225  0.2258  0.9627
17765TIP3    H274787   6.701   5.214   0.837 -0.6280  0.1447  0.5402
17766TIP3   OH274788   5.451   2.406   3.490 -0.3276 -0.2515  0.3883
17766TIP3    H174789   5.537   2.364   3.496 -0.2917 -0.4568 -1.1471
17766TIP3    H274790   5.395   2.353   3.546  0.2378 -0.9827  0.2847
17767TIP3   OH274791   3.609   0.437  15.135 -0.0887  0.0027 -0.1136
17767TIP3    H174792   3.578   0.466  15.220  1.3706 -1.5115  1.0074
17767TIP3    H274793   3.691   0.485  15.121 -0.8983  1.0952 -1.2208
17768TIP3   OH274794   1.602   6.386   1.039 -0.5203 -0.2039 -0.0191
17768TIP3    H174795   1.653   6.440   1.100 -1.4811  1.5726 -0.6868
17768TIP3    H274796   1.622   6.296   1.064 -1.6388  0.3821  3.6551
17769TIP3   OH274797   4.315   6.144   1.401 -0.5396  0.2077 -0.2740
17769TIP3    H174798   4.268   6.140   1.484 -0.7010 -0.5959 -0.3945
17769TIP3    H274799   4.287   6.226   1.361 -0.7971  0.3854  0.2683
17770TIP3   OH274800   3.311   3.126   1.821 -0.2539 -0.0271  0.4123
17770TIP3    H174801   3.263   3.139   1.903 -0.2893 -1.3540  0.6280
17770TIP3    H274802   3.368   3.051   1.838  1.6728  1.2750  0.0440
17771TIP3   OH274803   5.620   6.832   4.889  0.1093  0.2763  0.1600
17771TIP3    H174804   5.624   6.740   4.913  1.6136  0.6401  1.5049
17771TIP3    H274805   5.626   6.879   4.972 -1.2076  1.5963 -0.4556
17772TIP3   OH274806   5.458   0.319  15.948 -0.2236 -0.1492  0.1530
17772TIP3    H174807   5.436   0.383  15.880 -1.3249  0.5891  1.1642
17772TIP3    H274808   5.493   0.371  16.020 -0.9002 -0.6988  0.9006
17773TIP3   OH274809   5.360   3.049   0.887  0.1981 -0.2905  0.3445
17773TIP3    H174810   5.342   3.142   0.893  1.2933 -0.0448 -0.0285
17773TIP3    H274811   5.408   3.028   0.967  0.5285 -0.3896  0.1258
17774TIP3   OH274812   2.487   4.897  13.852  0.0159  0.3796 -0.0223
17774TIP3    H174813   2.570   4.940  13.872  0.6766 -1.2552  0.8820
17774TIP3    H274814   2.429   4.919  13.925 -0.0035  0.5915 -0.0994
17775TIP3   OH274815   0.943   0.345   2.221 -0.3318  0.0866 -0.2518
17775TIP3    H174816   1.001   0.276   2.254 -1.1244 -0.6902 -0.4505
17775TIP3    H274817   0.872   0.350   2.286 -0.6879  0.1749 -0.6408
17776TIP3   OH274818   0.909   0.729   4.675  0.2991  0.1329 -0.0426
17776TIP3    H174819   0.952   0.647   4.698  0.0958 -0.1113 -0.5042
17776TIP3    H274820   0.901   0.725   4.579 -1.6826 -0.3382  0.0826
17777TIP3   OH274821   1.411   3.743   3.950 -0.1357  0.1586 -0.5545
17777TIP3    H174822   1.373   3.727   3.864  3.1602  0.8365 -2.2884
17777TIP3    H274823   1.399   3.837   3.964 -0.0556  0.1723 -0.5795
17778TIP3   OH274824   1.822   3.643  10.986 -0.1509  0.1372  0.2626
17778TIP3    H174825   1.830   3.628  10.892 -1.1531 -0.6828  0.2930
17778TIP3    H274826   1.848   3.561  11.026  0.4582  0.5459  0.7184
17779TIP3   OH274827   2.670   2.445  12.309  0.0669 -0.4462  0.1705
17779TIP3    H174828   2.574   2.445  12.312  0.0422  1.0894  0.1437
17779TIP3    H274829   2.697   2.496  12.385  0.8640 -0.7501  0.1008
17780TIP3   OH274830   3.662   2.809  14.922  0.7296  0.2682 -0.3024
17780TIP3    H174831   3.689   2.886  14.972  1.6479  1.3837 -2.3765
17780TIP3    H274832   3.681   2.735  14.980  0.3352  1.5370  1.5325
17781TIP3   OH274833   6.693   6.734  13.700 -0.0107 -0.5405 -0.2862
17781TIP3    H174834   6.753   6.703  13.769 -2.3990  0.7790  2.6176
17781TIP3    H274835   6.725   6.821  13.678  0.6668 -0.9050 -0.8163
17782TIP3   OH274836   5.439   3.671   5.050 -0.1951 -0.2244 -0.0329
17782TIP3    H174837   5.425   3.609   4.979 -0.7440 -0.2947  0.1346
17782TIP3    H274838   5.477   3.618   5.121 -0.8865 -0.4223  0.1954
17783TIP3   OH274839   2.227   4.643   5.515 -0.3319 -0.8792  0.4166
17783TIP3    H174840   2.302   4.698   5.537  0.0085 -1.2148  0.1131
17783TIP3    H274841   2.247   4.610   5.427 -1.2232 -0.3121 -0.0077
17784TIP3   OH274842   0.675   0.662  16.114  0.6289  0.4807  0.1505
17784TIP3    H174843   0.705   0.729  16.175  1.3864 -1.0102  1.5011
17784TIP3    H274844   0.612   0.707  16.059  1.0671  2.2852  1.0203
17785TIP3   OH274845   2.073   6.636  12.902 -0.0005 -0.4384  0.4044
17785TIP3    H174846   2.118   6.688  12.835 -0.2770  0.5817  0.9836
17785TIP3    H274847   2.084   6.545  12.874 -1.3040  0.0057 -1.7981
17786TIP3   OH274848   6.832   2.194   1.857  0.5371  0.1189 -0.2471
17786TIP3    H174849   6.915   2.147   1.867  0.1489 -0.8071 -1.2230
17786TIP3    H274850   6.799   2.166   1.772 -0.5965  0.7715 -0.0349
17787TIP3   OH274851   5.424   5.300  15.484 -0.1425 -0.0447  0.0355
17787TIP3    H174852   5.350   5.317  15.425 -0.6510  0.1771  0.7221
17787TIP3    H274853   5.383   5.283  15.569  0.6301  0.9076  0.6155
17788TIP3   OH274854   6.635   3.441  13.500 -1.0558 -0.0733 -0.0313
17788TIP3    H174855   6.702   3.396  13.448 -1.7406 -0.3783 -0.6681
17788TIP3    H274856   6.599   3.373  13.556 -0.9288  0.0615  0.2153
17789TIP3   OH274857   4.012   3.535  16.134  0.6296  0.1548  0.4707
17789TIP3    H174858   4.008   3.451  16.089  1.8046  0.3067  0.0591
17789TIP3    H274859   4.099   3.538  16.174  0.7689  1.3321  0.1425
17790TIP3   OH274860   6.686   5.333  12.535 -0.0008  0.1891 -0.0414
17790TIP3    H174861   6.751   5.340  12.465  1.3386 -1.6235  0.9331
17790TIP3    H274862   6.718   5.261  12.590 -0.8367  1.6834  2.5847
17791TIP3   OH274863   2.650   4.867  15.652  0.1577  0.2902  0.1058
17791TIP3    H174864   2.706   4.897  15.724  1.1992 -0.5125 -0.3382
17791TIP3    H274865   2.564   4.854  15.692  0.9403 -1.0569  1.4409
17792TIP3   OH274866   6.171   0.151  16.943  0.3655  0.8546 -0.1807
17792TIP3    H174867   6.231   0.194  17.005  0.5467 -0.2403  0.4287
17792TIP3    H274868   6.227   0.127  16.869  0.2946  1.4867 -0.4514
17793TIP3   OH274869   6.680   1.738   0.741 -0.1396  0.1435 -0.4694
17793TIP3    H174870   6.592   1.747   0.706 -0.1608  1.7133 -0.1146
17793TIP3    H274871   6.667   1.723   0.835 -0.0323 -0.1997 -0.5079
17794TIP3   OH274872   1.431   3.980  11.573  0.4205 -0.0930  0.2790
17794TIP3    H174873   1.484   3.923  11.517 -2.0920 -0.0616 -2.4149
17794TIP3    H274874   1.364   3.923  11.610 -0.1824  0.5238  0.1772
17795TIP3   OH274875   0.349   0.541  12.196  0.4310  0.6262 -0.5435
17795TIP3    H174876   0.387   0.478  12.135  1.0206 -1.6549  2.0353
17795TIP3    H274877   0.263   0.505  12.218  0.5279  1.0305  0.5353
17796TIP3   OH274878   3.223   1.748  11.283  0.4522  0.1530 -0.2229
17796TIP3    H174879   3.281   1.697  11.227  0.1241  1.0716 -1.4538
17796TIP3    H274880   3.171   1.683  11.331  0.9487 -0.6503 -0.7629
17797TIP3   OH274881   6.584   5.292  16.960 -0.6660 -0.6112  0.8336
17797TIP3    H174882   6.502   5.312  17.004 -1.0956  0.3890 -0.3640
17797TIP3    H274883   6.593   5.360  16.893  1.0450 -0.8125  0.8095
17798TIP3   OH274884   3.778   1.217  16.233 -0.6845  0.0589  0.0343
17798TIP3    H174885   3.710   1.282  16.219 -1.0870 -0.5429 -0.9174
17798TIP3    H274886   3.842   1.234  16.163  0.8896  1.5200  1.7340
17799TIP3   OH274887   2.974   1.063  10.320 -0.7756 -0.5936  0.9138
17799TIP3    H174888   2.960   1.118  10.243  0.0977 -0.7347  0.6435
17799TIP3    H274889   2.985   0.975  10.285 -0.8631 -0.7338  1.2396
17800TIP3   OH274890   0.848   5.888  12.704  0.0219  0.2998 -0.0655
17800TIP3    H174891   0.866   5.982  12.705 -1.1788  0.5550  1.8434
17800TIP3    H274892   0.755   5.882  12.681 -1.0026 -0.0928  3.5529
17801TIP3   OH274893   2.670   4.635  10.428  0.3825  0.4225  0.2333
17801TIP3    H174894   2.704   4.569  10.489 -0.3847  0.1435  0.3719
17801TIP3    H274895   2.576   4.617  10.424  0.3177  0.9027 -0.4783
17802TIP3   OH274896   4.237   2.823  15.135  0.2769 -0.0686  0.0535
17802TIP3    H174897   4.165   2.876  15.171 -1.3039 -2.1000  0.0462
17802TIP3    H274898   4.286   2.795  15.212  0.9938  1.1539  0.0728
17803TIP3   OH274899   0.754   4.740   4.868  0.0842  0.0234 -0.9284
17803TIP3    H174900   0.718   4.746   4.779  0.9113 -0.1264 -1.2828
17803TIP3    H274901   0.820   4.670   4.863  1.2745  1.0755 -0.6208
17804TIP3   OH274902   4.999   0.724   4.399 -0.3333 -1.1108  0.0852
17804TIP3    H174903   5.012   0.816   4.420 -1.0713 -1.2934  1.4611
17804TIP3    H274904   4.918   0.722   4.349 -1.3927 -1.1852  1.7425
17805TIP3   OH274905   4.877   6.603   1.656 -0.5721 -0.4537  0.2135
17805TIP3    H174906   4.842   6.639   1.737 -2.7364 -0.8294 -0.4960
17805TIP3    H274907   4.884   6.679   1.597 -1.1536 -0.5193  0.0521
17806TIP3   OH274908   3.138   2.078   0.493 -0.1023  0.1778  0.3338
17806TIP3    H174909   3.119   2.115   0.407 -0.1053 -1.6255 -0.4789
17806TIP3    H274910   3.060   2.029   0.516  0.9121 -1.6355  0.0737
17807TIP3   OH274911   6.686   6.354   0.344 -0.2288 -0.0937 -0.3227
17807TIP3    H174912   6.610   6.392   0.388 -0.1840  0.2440 -0.5361
17807TIP3    H274913   6.739   6.318   0.415 -1.2282 -1.5107 -0.2692
17808TIP3   OH274914   5.726   5.165  13.027 -0.3429 -0.2675  0.1311
17808TIP3    H174915   5.782   5.189  12.953 -2.4498  0.2070 -1.4222
17808TIP3    H274916   5.717   5.070  13.020 -2.0151 -0.0422 -1.4359
17809TIP3   OH274917   0.762   0.791   5.524  0.3515 -0.2901  0.1519
17809TIP3    H174918   0.774   0.732   5.451  2.0812  1.0424 -0.7227
17809TIP3    H274919   0.754   0.734   5.601  0.4861 -1.6579 -0.8265
17810TIP3   OH274920   6.225   1.681  12.340  0.6264 -0.4778 -0.1979
17810TIP3    H174921   6.265   1.597  12.365 -1.5785 -1.1481  1.3725
17810TIP3    H274922   6.234   1.736  12.417  2.7514  1.1407 -1.4621
17811TIP3   OH274923   0.671   3.057   0.551  0.4634  0.0936  0.0596
17811TIP3    H174924   0.615   3.076   0.627 -1.4107 -2.3068 -0.6113
17811TIP3    H274925   0.746   3.011   0.588  0.7476  1.0031  0.6690
17812TIP3   OH274926   3.225   5.853  13.214 -0.2720 -0.4578 -0.2666
17812TIP3    H174927   3.223   5.761  13.239 -0.1833 -0.2962  0.3617
17812TIP3    H274928   3.301   5.889  13.261 -2.1250  0.6390  2.0762
17813TIP3   OH274929   1.729   1.559   6.109 -0.4910 -0.1440 -0.2073
17813TIP3    H174930   1.677   1.517   6.177  0.6702 -0.4842  0.5021
17813TIP3    H274931   1.766   1.637   6.152  0.9004 -0.7938 -0.1768
17814TIP3   OH274932   3.501   6.115  11.207  0.4001  0.2324  0.4292
17814TIP3    H174933   3.423   6.097  11.155 -1.3010  1.2378  2.4943
17814TIP3    H274934   3.561   6.158  11.145 -0.5752 -0.6680 -1.2343
17815TIP3   OH274935   4.239   4.418  16.548  0.4348  0.1672 -0.6338
17815TIP3    H174936   4.266   4.327  16.536  0.3212 -0.3321  2.2352
17815TIP3    H274937   4.221   4.426  16.642 -2.2345  2.4492 -1.2035
17816TIP3   OH274938   1.630   3.495   4.379  0.0338 -0.0403 -0.1935
17816TIP3    H174939   1.571   3.558   4.338  1.4496  1.5312  0.0600
17816TIP3    H274940   1.616   3.506   4.473 -0.0621 -0.4722 -0.1549
17817TIP3   OH274941   6.344   0.317   5.509  0.5497 -0.3458 -0.7601
17817TIP3    H174942   6.258   0.352   5.486  0.4110 -2.1397 -3.5246
17817TIP3    H274943   6.329   0.223   5.519  1.6162 -0.2738  2.3300
17818TIP3   OH274944   3.984   6.674  12.316  0.1523 -0.0929  0.1329
17818TIP3    H174945   4.053   6.695  12.253  0.1606 -1.1973 -0.2449
17818TIP3    H274946   3.994   6.739  12.385  0.2552  1.0475 -0.9112
17819TIP3   OH274947   5.880   1.090  14.661 -0.6087  0.3937 -0.1197
17819TIP3    H174948   5.924   1.032  14.723 -0.2870 -0.5916 -1.2299
17819TIP3    H274949   5.801   1.042  14.635 -1.3799  1.3312  0.4369
17820TIP3   OH274950   4.620   6.343  12.795  0.0630  0.3064 -0.3474
17820TIP3    H174951   4.659   6.282  12.858  0.1930  1.1813  0.4465
17820TIP3    H274952   4.665   6.426  12.810 -1.2866  1.0522 -0.2014
17821TIP3   OH274953   1.658   3.390  13.749 -0.2842  0.5307 -0.6053
17821TIP3    H174954   1.641   3.379  13.842 -1.9362  0.7725 -0.8382
17821TIP3    H274955   1.616   3.314  13.708  1.1742 -0.0354 -1.0981
17822TIP3   OH274956   2.725   1.231  11.214  0.3214 -0.1263  0.3431
17822TIP3    H174957   2.771   1.159  11.258  1.2933  0.4819  0.3524
17822TIP3    H274958   2.695   1.287  11.286 -0.4637 -0.5351  0.3374
17823TIP3   OH274959   1.730   1.947   1.159  0.1965  0.5431  0.7690
17823TIP3    H174960   1.814   1.987   1.183  0.8361 -0.8386  0.9965
17823TIP3    H274961   1.664   2.006   1.194  0.9727  3.1889 -1.8834
17824TIP3   OH274962   5.039   5.519  16.162 -0.3237  0.3366 -0.2650
17824TIP3    H174963   5.028   5.451  16.228  1.3598 -0.0295 -0.3395
17824TIP3    H274964   4.980   5.589  16.191  1.3370  0.7702  2.4238
17825TIP3   OH274965   2.932   3.252  13.113 -0.0879  0.6736 -0.2412
17825TIP3    H174966   2.906   3.254  13.205  0.3694  2.0086 -0.1271
17825TIP3    H274967   2.883   3.324  13.072 -0.5217 -0.0960 -1.1214
17826TIP3   OH274968   0.380   4.454  16.000  0.1500 -0.4245 -0.1229
17826TIP3    H174969   0.475   4.449  16.009  0.1883 -0.4641 -0.5100
17826TIP3    H274970   0.365   4.540  15.961  0.3561 -1.8552 -3.8108
17827TIP3   OH274971   3.024   2.418  14.960  0.1424  0.3691  0.3373
17827TIP3    H174972   3.115   2.391  14.955  0.5116  1.4653  0.6851
17827TIP3    H274973   3.026   2.499  15.011 -1.1918 -0.3312  1.5768
17828TIP3   OH274974   3.087   2.976   1.735  0.0950 -0.1014  0.9066
17828TIP3    H174975   3.048   2.976   1.823 -0.0529  2.8151  0.9291
17828TIP3    H274976   3.168   3.026   1.745  0.0430  0.3180 -0.6306
17829TIP3   OH274977   3.897   4.167  11.656  0.4551 -0.2340  0.2494
17829TIP3    H174978   3.892   4.183  11.562  0.1159  1.1197  0.4718
17829TIP3    H274979   3.807   4.144  11.682  0.1642  1.0930  0.4972
17830TIP3   OH274980   4.359   5.708   4.102 -0.0304  0.5456 -1.0217
17830TIP3    H174981   4.349   5.619   4.070 -1.3225 -0.9764  2.9912
17830TIP3    H274982   4.433   5.705   4.162 -2.1621  1.1122  1.8663
17831TIP3   OH274983   5.068   4.140   4.466  0.1171 -0.0626 -0.2742
17831TIP3    H174984   5.070   4.225   4.509 -0.9608  1.1599 -2.4332
17831TIP3    H274985   4.975   4.115   4.466  0.3527 -0.9780 -0.1574
17832TIP3   OH274986   1.625   6.130  11.549  0.0824  0.3456  0.2556
17832TIP3    H174987   1.573   6.172  11.617  0.1126  0.7429  0.0328
17832TIP3    H274988   1.563   6.073  11.503 -0.3777  1.5004 -0.5971
17833TIP3   OH274989   4.133   1.490   4.059  0.3054 -0.6732 -0.1298
17833TIP3    H174990   4.112   1.402   4.090 -0.2322 -0.3815  0.3564
17833TIP3    H274991   4.057   1.543   4.082  0.8196  0.0209  0.0370
17834TIP3   OH274992   2.793   4.767   1.072  0.1003 -0.0034 -0.1264
17834TIP3    H174993   2.707   4.738   1.042  0.2360 -1.6978  0.9782
17834TIP3    H274994   2.777   4.853   1.111 -0.8325  0.2732 -1.0851
17835TIP3   OH274995   0.357   0.049   3.106 -0.2402  0.0230  0.1189
17835TIP3    H174996   0.381  -0.040   3.081 -0.0556  0.0077  0.3380
17835TIP3    H274997   0.293   0.077   3.041 -1.4691 -0.8227  0.9193
17836TIP3   OH274998   0.111   3.602   2.866  0.7695 -0.0418  0.3759
17836TIP3    H174999   0.153   3.526   2.906 -2.3254 -2.7968 -1.0331
17836TIP3    H275000   0.042   3.626   2.928 -1.2810 -1.5757 -1.1598
17837TIP3   OH275001   2.241   2.028  12.616 -0.4456  0.1688  0.3275
17837TIP3    H175002   2.194   2.107  12.590  0.2152  0.1799 -0.9183
17837TIP3    H275003   2.177   1.975  12.663 -1.2319  0.9089  0.1030
17838TIP3   OH275004   3.476   0.786  16.535 -0.0528 -0.1476  0.3429
17838TIP3    H175005   3.454   0.869  16.577  1.7237  0.1143  0.8160
17838TIP3    H275006   3.511   0.811  16.449 -0.9881 -0.5253 -0.1679
17839TIP3   OH275007   1.065   2.352   5.130 -0.9372 -0.6290 -0.3559
17839TIP3    H175008   1.007   2.397   5.191 -0.6414  0.6864 -1.0068
17839TIP3    H275009   1.151   2.356   5.171 -1.1470 -1.8826  0.2424
17840TIP3   OH275010   2.229   2.458   1.195  0.7024  0.0196 -0.7912
17840TIP3    H175011   2.143   2.448   1.153  0.5425 -3.3833  0.0517
17840TIP3    H275012   2.213   2.523   1.264 -0.7089  0.7585 -1.7424
17841TIP3   OH275013   0.094   3.039   3.964  0.4475 -0.1074  0.1255
17841TIP3    H175014   0.180   3.023   3.925  0.8965 -0.1025  1.0679
17841TIP3    H275015   0.085   3.134   3.967  1.0605 -0.0611  1.3307
17842TIP3   OH275016   5.779   4.701  13.152 -0.2633  0.4757 -0.6459
17842TIP3    H175017   5.814   4.613  13.141  0.2874  0.6556 -0.3875
17842TIP3    H275018   5.857   4.757  13.161 -0.4840  1.3959 -3.4723
17843TIP3   OH275019   0.610   5.175  13.710  0.0458 -0.3059  0.4639
17843TIP3    H175020   0.639   5.084  13.719  1.7933  0.1392 -0.1418
17843TIP3    H275021   0.589   5.185  13.618  1.5270  0.3050  0.1508
17844TIP3   OH275022   0.713   6.352   4.049  0.3478  0.0654  0.1363
17844TIP3    H175023   0.793   6.376   4.095  1.2314 -0.7326 -0.9356
17844TIP3    H275024   0.704   6.418   3.981  0.4251 -0.1839 -0.1168
17845TIP3   OH275025   6.780   0.148   2.055 -0.2743  0.2295  0.1096
17845TIP3    H175026   6.703   0.204   2.063 -0.0653  0.4577  0.6251
17845TIP3    H275027   6.838   0.178   2.125  0.1060 -0.2193 -0.0078
17846TIP3   OH275028   3.193   6.229  11.918  0.2784  0.5543 -0.5983
17846TIP3    H175029   3.210   6.183  11.836  1.7782 -2.6989  1.3422
17846TIP3    H275030   3.274   6.277  11.936  0.9389 -0.7720  0.1222
17847TIP3   OH275031   0.501   0.551  16.807  0.2759 -0.5547  0.7803
17847TIP3    H175032   0.412   0.585  16.812  0.5974  0.1797  1.7573
17847TIP3    H275033   0.536   0.560  16.895  1.5675 -0.1451  0.2568
17848TIP3   OH275034   1.802   1.952   4.566 -0.4965  0.7814 -0.2061
17848TIP3    H175035   1.846   1.928   4.484  0.0109 -2.0814  0.7751
17848TIP3    H275036   1.870   1.944   4.633 -1.0428  2.4973  0.5926
17849TIP3   OH275037   1.647   3.649  16.019  0.3223 -0.4098  0.1299
17849TIP3    H175038   1.700   3.725  16.042 -1.4658  0.5598  1.3259
17849TIP3    H275039   1.599   3.676  15.941  0.9120 -0.9653 -0.4423
17850TIP3   OH275040   3.778   6.362  15.848 -0.0876 -0.3888  0.2570
17850TIP3    H175041   3.743   6.423  15.913  1.4219 -0.7458  1.4818
17850TIP3    H275042   3.842   6.414  15.800 -1.0157 -0.1994 -0.8129
17851TIP3   OH275043   3.027   0.847   1.758  0.4213  0.3011  0.1018
17851TIP3    H175044   3.101   0.800   1.796 -0.0585  0.1728  0.8925
17851TIP3    H275045   3.061   0.882   1.675  1.5695  0.8624  0.7931
17852TIP3   OH275046   2.441   2.922  12.963 -0.3883  0.2743 -0.6206
17852TIP3    H175047   2.502   2.892  12.896 -0.3106  0.8540 -0.8122
17852TIP3    H275048   2.497   2.952  13.035 -0.4651  0.0995 -0.4855
17853TIP3   OH275049   2.712   2.002  11.777 -0.2332 -0.3063 -0.0215
17853TIP3    H175050   2.780   2.054  11.820 -0.9494  0.4362  0.2202
17853TIP3    H275051   2.704   1.923  11.831  0.3139 -0.3276  0.0363
17854TIP3   OH275052   6.416   6.728  15.253 -0.0835 -0.1391  0.3469
17854TIP3    H175053   6.429   6.635  15.272 -1.2565  0.0789  2.5433
17854TIP3    H275054   6.427   6.735  15.158 -1.1722 -2.7558 -0.0609
17855TIP3   OH275055   0.245   2.700   3.882 -0.0487  0.5875 -0.3958
17855TIP3    H175056   0.266   2.781   3.836 -2.3248  1.1590 -0.5611
17855TIP3    H275057   0.149   2.700   3.888  0.0349 -0.4188  2.6237
17856TIP3   OH275058   1.299   2.056  13.055 -0.0439  0.0408  0.5327
17856TIP3    H175059   1.361   2.077  13.125  0.5786  0.7642 -0.2156
17856TIP3    H275060   1.276   1.964  13.070  2.6335 -0.8305 -0.2178
17857TIP3   OH275061   6.254   3.026   1.508  0.2723 -0.5893  0.0602
17857TIP3    H175062   6.195   3.096   1.480  2.6779  1.5880  0.1252
17857TIP3    H275063   6.198   2.967   1.559 -1.8827  1.1894 -0.0816
17858TIP3   OH275064   0.733   5.709  10.460  0.2809 -0.1333  0.3329
17858TIP3    H175065   0.773   5.635  10.414 -1.0976 -2.2852  2.4327
17858TIP3    H275066   0.807   5.754  10.500  0.9699 -1.9889  1.2529
17859TIP3   OH275067   1.463   2.021  15.921  0.1231 -0.1178 -0.1601
17859TIP3    H175068   1.478   2.116  15.918 -3.3650  0.8310  3.6295
17859TIP3    H275069   1.426   2.000  15.835  3.1476  1.3089 -1.9703
17860TIP3   OH275070   2.454   5.016   5.035 -0.4814  0.2655  0.4900
17860TIP3    H175071   2.463   4.984   5.125 -1.5688 -0.9544  0.1939
17860TIP3    H275072   2.398   4.951   4.992 -0.0227  0.8502 -1.0589
17861TIP3   OH275073   4.228   5.227   4.275 -0.4854 -0.3149 -0.5023
17861TIP3    H175074   4.153   5.228   4.216 -0.4498  0.4931 -0.5471
17861TIP3    H275075   4.247   5.134   4.288 -1.0153 -0.5148 -1.0931
17862TIP3   OH275076   1.981   0.869  15.747 -0.1963 -0.1284 -0.3726
17862TIP3    H175077   1.893   0.862  15.711 -0.4816 -1.0786  0.4517
17862TIP3    H275078   1.982   0.805  15.818  1.6748 -1.3085 -1.3933
17863TIP3   OH275079   3.924   4.992  11.608  0.1650  0.4033 -0.2118
17863TIP3    H175080   3.969   4.914  11.576 -1.1420 -0.0875 -0.8756
17863TIP3    H275081   3.852   5.006  11.547 -0.4461  1.3370  0.6919
17864TIP3   OH275082   6.359   2.579   5.455  0.0637  0.1143 -0.1049
17864TIP3    H175083   6.387   2.561   5.365  3.3723  0.8310  0.6390
17864TIP3    H275084   6.366   2.674   5.463  2.1766 -0.0817  1.4660
17865TIP3   OH275085   5.948   4.944   4.784  0.2003  0.1866 -0.6361
17865TIP3    H175086   5.963   4.980   4.871  1.7759 -0.9746 -0.3704
17865TIP3    H275087   6.001   4.998   4.726  1.3215 -0.6730 -0.4547
17866TIP3   OH275088   2.739   4.016  12.178  0.6595  0.0871  0.1609
17866TIP3    H175089   2.735   4.111  12.190 -0.1153 -0.0194  0.8238
17866TIP3    H275090   2.714   4.002  12.087 -3.1075  0.2919  1.0298
17867TIP3   OH275091   0.547   5.536   3.526  0.2178  0.1109 -0.1159
17867TIP3    H175092   0.587   5.515   3.611  0.0383  0.3249  0.0232
17867TIP3    H275093   0.541   5.632   3.525 -1.3096  0.0569  0.3530
17868TIP3   OH275094   0.431   5.376  16.521 -0.2924 -0.2602  0.2735
17868TIP3    H175095   0.516   5.416  16.503 -0.1287 -1.1281 -0.9670
17868TIP3    H275096   0.440   5.285  16.495 -1.1974 -0.7154  1.4315
17869TIP3   OH275097   5.800   0.482   2.596  0.0583 -0.0107 -0.4957
17869TIP3    H175098   5.857   0.411   2.623 -0.3500 -1.2383 -2.5922
17869TIP3    H275099   5.832   0.558   2.643  2.3456 -1.0022 -0.3140
17870TIP3   OH275100   4.531   0.428  14.058  0.0655  0.4860 -0.1484
17870TIP3    H175101   4.546   0.343  14.016 -0.1887  0.4297 -0.1212
17870TIP3    H275102   4.438   0.444  14.047  0.3230  1.3615 -1.3044
17871TIP3   OH275103   1.732   5.580   2.735 -0.1278  0.1208  0.2386
17871TIP3    H175104   1.671   5.604   2.666  1.2306 -0.9786 -1.4040
17871TIP3    H275105   1.770   5.664   2.763 -0.3643  0.5438 -0.6736
17872TIP3   OH275106   5.347   0.740   3.584  0.3749 -0.4090 -0.2771
17872TIP3    H175107   5.414   0.690   3.631 -0.0124 -0.8864 -0.2225
17872TIP3    H275108   5.338   0.821   3.634  0.1310 -0.8115  0.3499
17873TIP3   OH275109   2.466   1.894  13.837  0.2292  0.5778  0.2248
17873TIP3    H175110   2.550   1.898  13.884 -1.5082 -0.3606  3.7714
17873TIP3    H275111   2.465   1.808  13.796  2.5649  2.0936 -3.5027
17874TIP3   OH275112   5.968   2.433  14.789  0.2296 -0.4431 -0.0469
17874TIP3    H175113   5.924   2.510  14.824 -1.2114 -1.0000 -0.5519
17874TIP3    H275114   6.058   2.462  14.772 -0.3411  1.1936 -0.4461
17875TIP3   OH275115   1.208   0.467   5.747  0.1558  0.2430  0.6246
17875TIP3    H175116   1.175   0.556   5.756  1.3093  0.6251  1.2079
17875TIP3    H275117   1.295   0.477   5.708  0.4233 -0.6065  0.9887
17876TIP3   OH275118   5.296   4.193   5.408 -0.1404 -0.2092 -0.0945
17876TIP3    H175119   5.314   4.164   5.497 -1.6672 -0.2370  0.2329
17876TIP3    H275120   5.270   4.114   5.361 -2.2490  0.2116  0.2531
17877TIP3   OH275121   6.402   5.346  12.858 -0.3869 -0.2634  0.1073
17877TIP3    H175122   6.340   5.382  12.795 -1.7662  0.1950  1.6505
17877TIP3    H275123   6.460   5.419  12.880 -2.6936  0.9989  2.6415
17878TIP3   OH275124   5.489   5.378  14.220 -0.2837 -0.1872 -0.3492
17878TIP3    H175125   5.438   5.451  14.256  0.8209 -0.0328  0.9639
17878TIP3    H275126   5.436   5.300  14.238  0.6315 -0.2353  2.5663
17879TIP3   OH275127   5.598   4.638   2.024  0.0691 -0.1628 -0.1833
17879TIP3    H175128   5.504   4.650   2.008 -0.1738 -0.9393  0.5707
17879TIP3    H275129   5.640   4.681   1.950 -0.8964 -0.2015 -0.7846
17880TIP3   OH275130   1.548   3.923   5.931 -0.0615 -0.1707  0.4979
17880TIP3    H175131   1.606   3.855   5.965 -0.5401 -0.8146  0.0566
17880TIP3    H275132   1.551   3.912   5.836 -1.5235 -0.7631  0.4928
17881TIP3   OH275133   3.418   2.684   2.854 -0.2824 -0.4861  0.1983
17881TIP3    H175134   3.400   2.590   2.855  0.9844 -0.7490  0.1455
17881TIP3    H275135   3.332   2.725   2.861 -0.9396 -1.6390 -0.8374
17882TIP3   OH275136   3.119   6.308   3.064  0.7326 -0.1873  0.3559
17882TIP3    H175137   3.040   6.360   3.053  1.0452 -0.2179 -3.6042
17882TIP3    H275138   3.175   6.333   2.990  2.8730 -2.7689  0.9214
17883TIP3   OH275139   3.083   1.642   4.347  0.4650 -0.4621  0.0400
17883TIP3    H175140   3.129   1.709   4.296 -2.1561  0.1935 -1.6416
17883TIP3    H275141   3.144   1.568   4.348  1.5825  0.3364 -2.0987
17884TIP3   OH275142   6.344   1.732  13.743 -0.2753 -0.6866  0.0442
17884TIP3    H175143   6.397   1.657  13.771 -0.0544  0.0247  1.6104
17884TIP3    H275144   6.256   1.696  13.731  0.3166 -1.6778 -1.6342
17885TIP3   OH275145   0.256   3.267  11.828  0.3034 -0.4845  0.7057
17885TIP3    H175146   0.282   3.282  11.919  1.2765  0.2915  0.3250
17885TIP3    H275147   0.248   3.354  11.790  0.3308 -0.8053 -0.0616
17886TIP3   OH275148   0.335   6.791  13.335  0.2392 -1.1061 -0.4511
17886TIP3    H175149   0.316   6.851  13.407  1.6105 -1.7379  0.4781
17886TIP3    H275150   0.402   6.836  13.284  0.1246 -1.1681 -0.6555
17887TIP3   OH275151   3.325   3.743   3.029  0.2258 -0.2075  0.0408
17887TIP3    H175152   3.356   3.787   2.949 -0.4816  0.7649  0.2902
17887TIP3    H275153   3.380   3.665   3.035 -0.0527 -0.5885 -1.6825
17888TIP3   OH275154   0.873   0.528   0.535  0.2489  0.1754 -0.0823
17888TIP3    H175155   0.950   0.476   0.560  1.8683  2.0462 -0.9129
17888TIP3    H275156   0.803   0.495   0.590  2.0415 -0.5072  1.9247
17889TIP3   OH275157   4.944   4.844   1.277  0.1573 -0.5315  0.1745
17889TIP3    H175158   4.932   4.768   1.219 -1.2744  0.5722 -1.0289
17889TIP3    H275159   5.034   4.873   1.259  0.5693 -1.6377  0.3285
17890TIP3   OH275160   2.290   6.809  13.137  0.2885  0.0839  0.1432
17890TIP3    H175161   2.223   6.765  13.189 -0.1498 -0.5915 -0.9626
17890TIP3    H275162   2.340   6.739  13.097  0.4471  0.5865 -0.5611
17891TIP3   OH275163   4.652   5.679  16.735 -0.3312 -0.1817  0.2287
17891TIP3    H175164   4.584   5.726  16.783  0.5319  0.7472  0.5727
17891TIP3    H275165   4.734   5.719  16.765  0.2828 -0.2846 -1.2651
17892TIP3   OH275166   2.894   6.510  10.286  0.5123  0.1046 -0.1756
17892TIP3    H175167   2.837   6.434  10.276  1.7049 -1.0925  1.5819
17892TIP3    H275168   2.857   6.559  10.359 -0.2378  1.2709 -1.2845
17893TIP3   OH275169   6.486   6.340  13.346 -0.5991 -0.0489  0.5199
17893TIP3    H175170   6.515   6.395  13.273 -0.5428 -2.3978 -1.3337
17893TIP3    H275171   6.506   6.392  13.424  0.4275  2.0827 -1.0519
17894TIP3   OH275172   4.950   2.034  11.443  0.4118 -0.2770  0.1040
17894TIP3    H175173   4.934   1.978  11.519 -1.3795 -0.1331 -0.1291
17894TIP3    H275174   4.955   2.122  11.478  0.8404 -0.3287  0.1837
17895TIP3   OH275175   0.785   4.717  16.678 -0.0839  0.0458  0.2404
17895TIP3    H175176   0.806   4.633  16.718  1.3063 -0.3789 -1.2721
17895TIP3    H275177   0.803   4.782  16.746  0.0716 -0.7865  1.0101
17896TIP3   OH275178   6.200   6.375  16.432 -0.3946  0.7365 -0.2577
17896TIP3    H175179   6.164   6.287  16.432 -1.8606  1.3013  0.7974
17896TIP3    H275180   6.279   6.369  16.379  0.2006 -1.4875  0.7699
17897TIP3   OH275181   2.682   4.045  14.942  0.2252  0.2917 -0.3338
17897TIP3    H175182   2.668   4.129  14.986 -0.2488 -1.1908  2.5633
17897TIP3    H275183   2.777   4.035  14.940  0.2567  0.4205  0.3072
17898TIP3   OH275184   3.835   0.192   3.166  0.2493 -0.2080 -0.6480
17898TIP3    H175185   3.793   0.258   3.221  0.0563  1.2835 -2.4838
17898TIP3    H275186   3.763   0.136   3.136  0.2939 -0.7296  0.1713
17899TIP3   OH275187   6.769   6.812  15.950 -0.1625 -0.4428  1.1195
17899TIP3    H175188   6.729   6.727  15.968  0.8030 -1.4770 -1.2037
17899TIP3    H275189   6.695   6.868  15.927 -0.7037 -0.9637  1.5204
17900TIP3   OH275190   3.580   0.228   4.169 -0.3031  0.1038 -0.1716
17900TIP3    H175191   3.496   0.191   4.142 -0.2197  1.2083 -2.1570
17900TIP3    H275192   3.624   0.250   4.087  2.1829 -0.9041  0.7908
17901TIP3   OH275193   1.928   1.729   4.320  0.0554 -0.6671  0.2382
17901TIP3    H175194   1.977   1.647   4.312  0.2427 -0.6562  1.1474
17901TIP3    H275195   1.995   1.794   4.343 -0.2412 -0.4660  0.5372
17902TIP3   OH275196   4.677   6.707   1.833 -0.0972  0.2173 -1.1046
17902TIP3    H175197   4.651   6.792   1.868 -1.9068 -0.1771 -1.3517
17902TIP3    H275198   4.702   6.656   1.910 -0.7222  0.4411 -0.7431
17903TIP3   OH275199   1.456   2.502   1.693  0.4351 -0.4650 -0.7838
17903TIP3    H175200   1.487   2.566   1.629  0.0087  1.0896  0.5068
17903TIP3    H275201   1.400   2.552   1.752 -0.6193 -2.2217 -0.2254
17904TIP3   OH275202   1.350   0.475  16.960 -0.6971 -0.0298 -0.2081
17904TIP3    H175203   1.345   0.400  17.020 -2.7617  0.4960  0.3715
17904TIP3    H275204   1.436   0.467  16.919  0.0642 -1.4312  1.4979
17905TIP3   OH275205   5.583   0.446  16.139  0.4303 -1.0320 -0.1229
17905TIP3    H175206   5.676   0.453  16.117  0.3462 -0.5205 -0.3411
17905TIP3    H275207   5.579   0.464  16.233  0.4287  0.1643 -0.3344
17906TIP3   OH275208   5.375   6.394  11.035 -0.0651  0.1785  0.1052
17906TIP3    H175209   5.383   6.408  11.129 -0.4141 -0.3232  0.2151
17906TIP3    H275210   5.465   6.401  11.002 -0.2169  2.9141  0.0779
17907TIP3   OH275211   2.670   2.787  11.838 -0.2932  0.5753  0.6418
17907TIP3    H175212   2.654   2.740  11.919 -0.2516  1.0920  0.9550
17907TIP3    H275213   2.623   2.737  11.771 -0.0342 -0.0474  0.9219
17908TIP3   OH275214   3.403   6.689   5.103 -0.1522 -0.0331  0.0808
17908TIP3    H175215   3.317   6.649   5.118 -0.4941 -1.0329 -3.4661
17908TIP3    H275216   3.386   6.783   5.104 -1.5097 -0.2142 -1.2140
17909TIP3   OH275217   3.573   4.259   0.920 -0.0013 -0.4129  0.2390
17909TIP3    H175218   3.539   4.300   0.840 -1.6905  0.4676  1.3412
17909TIP3    H275219   3.668   4.258   0.908 -0.2197 -0.6213 -1.9048
17910TIP3   OH275220   2.555   6.347   4.999 -0.7249 -0.0049 -0.5841
17910TIP3    H175221   2.643   6.355   4.962 -0.7726 -0.6704 -0.8502
17910TIP3    H275222   2.497   6.341   4.923 -0.9765  0.1678 -0.4071
17911TIP3   OH275223   0.924   0.818  11.326 -0.2070 -0.5450  0.3639
17911TIP3    H175224   1.007   0.824  11.373  0.2801 -1.6152 -0.3324
17911TIP3    H275225   0.915   0.903  11.283  0.3181 -0.2781  0.7679
17912TIP3   OH275226   1.875   4.647   1.009  0.0854  0.3667  0.3215
17912TIP3    H175227   1.784   4.676   1.006  0.1366  0.4561 -0.5362
17912TIP3    H275228   1.890   4.624   1.101 -1.1778 -0.8821  0.2355
17913TIP3   OH275229   2.957   4.967  16.066 -0.3334  0.1441  0.1851
17913TIP3    H175230   2.924   5.051  16.099  0.0782  0.1010  0.7106
17913TIP3    H275231   3.039   4.953  16.113 -0.6410 -0.7958  0.4639
17914TIP3   OH275232   0.428   2.371   5.284  1.0181  0.1136  0.1344
17914TIP3    H175233   0.440   2.406   5.196 -0.4421 -1.3727 -0.7213
17914TIP3    H275234   0.464   2.438   5.342 -2.1818  3.4350 -1.3041
17915TIP3   OH275235   5.301   3.122  16.102 -0.1000  0.0924  0.2168
17915TIP3    H175236   5.225   3.174  16.129 -1.3072 -1.2121 -0.5499
17915TIP3    H275237   5.339   3.091  16.183 -1.5014 -0.7538  0.5737
17916TIP3   OH275238   5.792   1.371  12.491 -0.2440 -0.6437  0.0023
17916TIP3    H175239   5.758   1.428  12.422 -0.9390 -0.6290  0.3452
17916TIP3    H275240   5.828   1.431  12.556  0.0008 -0.6383 -0.1395
17917TIP3   OH275241   4.105   3.400   5.756  0.2560 -0.0999  0.0862
17917TIP3    H175242   4.106   3.412   5.851 -2.7480 -0.4620  0.2547
17917TIP3    H275243   4.050   3.470   5.724  0.0098 -0.8643 -1.2269
17918TIP3   OH275244   3.935   5.953  15.114 -0.1456 -0.5242  0.3658
17918TIP3    H175245   3.996   5.995  15.053 -0.4679 -0.3287  0.1781
17918TIP3    H275246   3.883   6.025  15.149  0.0990 -0.6235  0.9446
17919TIP3   OH275247   0.165   4.920   0.511  0.0964 -0.6371 -0.0038
17919TIP3    H175248   0.181   4.940   0.604  1.2956 -0.1627 -0.3007
17919TIP3    H275249   0.236   4.861   0.487 -0.2404 -0.7947 -0.6184
17920TIP3   OH275250   1.373   0.355   3.032 -0.3855  0.0295  0.0942
17920TIP3    H175251   1.374   0.390   3.121  0.0310 -0.6661  0.3766
17920TIP3    H275252   1.303   0.290   3.032  1.1367 -1.6865  0.6301
17921TIP3   OH275253   2.519   1.093  11.439  0.0765 -0.4901  0.1674
17921TIP3    H175254   2.543   1.185  11.427 -0.8392 -0.1939  0.5291
17921TIP3    H275255   2.598   1.053  11.474 -0.0085  0.5277  1.6172
17922TIP3   OH275256   0.451   4.683  12.436  0.1757  0.2980  1.1262
17922TIP3    H175257   0.528   4.725  12.400 -0.3511 -0.6568 -1.2693
17922TIP3    H275258   0.389   4.755  12.451  0.4776  0.7400  0.2847
17923TIP3   OH275259   2.990   6.513   2.968 -0.0266  0.2103 -0.1786
17923TIP3    H175260   2.914   6.519   3.026 -0.6456 -1.3287 -0.7782
17923TIP3    H275261   2.965   6.563   2.890 -0.8374 -1.0216 -0.7519
17924TIP3   OH275262   2.307   4.732   1.120 -0.4673  0.0712 -0.2873
17924TIP3    H175263   2.311   4.812   1.173 -0.7863 -0.5176  0.6582
17924TIP3    H275264   2.267   4.759   1.038  1.7642  1.4040 -1.0220
17925TIP3   OH275265   0.525   2.700   1.599 -0.3623 -0.8251  0.3698
17925TIP3    H175266   0.518   2.629   1.663 -3.1983 -1.2525 -0.2786
17925TIP3    H275267   0.451   2.687   1.540 -0.5233  2.2257 -0.2745
17926TIP3   OH275268   1.937   1.786   1.306  0.0953  0.1050 -0.1130
17926TIP3    H175269   1.871   1.782   1.237 -0.5523  2.0614  0.3331
17926TIP3    H275270   1.887   1.795   1.387  0.8890 -0.3405  0.4447
17927TIP3   OH275271   1.682   1.240   5.839 -0.0339  0.0238  0.0902
17927TIP3    H175272   1.596   1.274   5.862  0.1333 -0.7215  2.0367
17927TIP3    H275273   1.743   1.294   5.889  0.4248 -1.0893  0.7864
17928TIP3   OH275274   1.524   3.763  12.425  0.2518  0.6465 -0.7009
17928TIP3    H175275   1.519   3.852  12.391  1.2937  1.1345  0.3506
17928TIP3    H275276   1.437   3.726  12.407 -0.0437  1.7038 -1.5775
17929TIP3   OH275277   0.613   5.084  15.040  0.4970  0.3957 -0.0388
17929TIP3    H175278   0.698   5.053  15.010 -0.9769 -2.9563 -1.2283
17929TIP3    H275279   0.615   5.072  15.135  0.8140 -1.2992 -0.2293
17930TIP3   OH275280   2.095   0.694   4.059  0.6730 -0.3812  0.1993
17930TIP3    H175281   2.111   0.669   3.968  1.2147  1.2314 -0.1699
17930TIP3    H275282   2.175   0.668   4.105  0.1116 -1.8897  0.4125
17931TIP3   OH275283   1.102   5.413  15.411 -0.0634  0.1648  0.6146
17931TIP3    H175284   1.027   5.449  15.458 -0.4499  0.4212 -0.1821
17931TIP3    H275285   1.160   5.488  15.397  1.1672 -0.3098  2.6728
17932TIP3   OH275286   0.965   5.668  13.685 -0.4535  0.1151  0.3278
17932TIP3    H175287   1.023   5.733  13.646 -2.2566  1.1663 -0.7424
17932TIP3    H275288   0.927   5.713  13.761 -2.1881  0.5986 -0.7816
17933TIP3   OH275289   5.275   4.419  14.454 -0.3593  0.0044 -0.5463
17933TIP3    H175290   5.242   4.333  14.427  0.2567 -0.0919 -1.0150
17933TIP3    H275291   5.342   4.440  14.389 -1.1070  1.2418 -0.9486
17934TIP3   OH275292   5.542   0.606  11.119  0.0110 -0.4048  0.8471
17934TIP3    H175293   5.536   0.539  11.187 -0.3180  0.1963  1.4195
17934TIP3    H275294   5.455   0.647  11.118  0.1145 -0.1990  0.2884
17935TIP3   OH275295   0.822   3.526  12.534 -0.0769  0.4615 -0.3766
17935TIP3    H175296   0.913   3.526  12.504  0.6056 -0.8320  1.4633
17935TIP3    H275297   0.770   3.515  12.455  1.5274 -1.5152 -1.2517
17936TIP3   OH275298   2.768   3.768   3.379 -0.4928  0.2281 -0.3432
17936TIP3    H175299   2.840   3.724   3.334  0.1057 -1.6246  2.1700
17936TIP3    H275300   2.694   3.760   3.319  0.4795 -1.1380 -1.4428
17937TIP3   OH275301   6.552   5.576  16.944  0.4232  0.2633 -0.4487
17937TIP3    H175302   6.487   5.565  16.874  0.6701  0.4613 -0.7095
17937TIP3    H275303   6.506   5.628  17.010  0.1935  0.0895 -0.4679
17938TIP3   OH275304   2.724   5.298  12.929  0.4079  0.0155  0.3271
17938TIP3    H175305   2.678   5.301  13.013 -1.3250 -0.3710 -0.5509
17938TIP3    H275306   2.764   5.384  12.920  1.6792 -0.3518  2.0848
17939TIP3   OH275307   4.190   5.496   1.693  0.1354  0.3701 -0.0472
17939TIP3    H175308   4.242   5.424   1.728 -1.8775 -0.7370  0.8927
17939TIP3    H275309   4.100   5.463   1.696 -0.8855  2.9895  0.5413
17940TIP3   OH275310   0.740   1.581  15.191 -0.2410 -0.1284  0.0109
17940TIP3    H175311   0.735   1.670  15.223  0.5804  0.0502 -0.3260
17940TIP3    H275312   0.822   1.578  15.142  0.4871 -1.4657  1.2358
17941TIP3   OH275313   1.885   5.351  17.192  0.4206  1.0616 -0.5509
17941TIP3    H175314   1.852   5.321  17.107 -0.1809 -0.4858  0.1905
17941TIP3    H275315   1.864   5.280  17.253 -0.4805  2.7211  1.2008
17942TIP3   OH275316   1.748   0.077   3.037 -0.0221  0.3182 -0.2902
17942TIP3    H175317   1.667   0.109   2.998  0.9623  0.7220 -2.0908
17942TIP3    H275318   1.816   0.101   2.975  1.6858  1.1679  1.7658
17943TIP3   OH275319   6.763   3.122   0.840 -0.1425 -0.9338  0.0501
17943TIP3    H175320   6.688   3.150   0.788 -0.6495  0.6584  1.5249
17943TIP3    H275321   6.725   3.073   0.913  0.2140  0.0093  0.8886
17944TIP3   OH275322   0.705   0.433  13.021  0.5094 -0.0513  0.0358
17944TIP3    H175323   0.785   0.403  13.065  1.8643  0.4321 -1.9441
17944TIP3    H275324   0.664   0.492  13.084  2.4104  0.6932  0.6633
17945TIP3   OH275325   4.858   4.691   4.772 -0.2761 -0.0149  0.5884
17945TIP3    H175326   4.775   4.652   4.743  0.1634 -2.1523  1.9628
17945TIP3    H275327   4.910   4.698   4.692 -1.7708  1.5113 -0.3262
17946TIP3   OH275328   1.197   1.341  15.655 -0.5696 -0.6484  0.0863
17946TIP3    H175329   1.122   1.293  15.690 -0.8306 -0.2817  0.0373
17946TIP3    H275330   1.174   1.433  15.668  0.0890 -0.5430  0.5131
17947TIP3   OH275331   1.525   5.231   4.645  0.0426  0.4090 -0.3815
17947TIP3    H175332   1.518   5.290   4.721  1.5197 -0.3815  0.4169
17947TIP3    H275333   1.458   5.165   4.660 -0.5943  1.0088 -0.4974
17948TIP3   OH275334   6.110   4.499  13.367  0.5512 -0.3336 -0.0180
17948TIP3    H175335   6.126   4.463  13.454 -1.3782 -0.7670  0.2059
17948TIP3    H275336   6.091   4.592  13.382  1.9008 -0.0054 -0.1960
17949TIP3   OH275337   2.540   5.059   0.073 -0.1163  0.0308  0.0656
17949TIP3    H175338   2.459   5.010   0.063 -0.7863  0.6675  1.9317
17949TIP3    H275339   2.608   4.992   0.084 -0.7057 -0.5002  0.5021
17950TIP3   OH275340   0.258   0.416  13.612 -0.1589  0.1973 -0.1263
17950TIP3    H175341   0.243   0.437  13.520  0.8389  2.4168  0.1490
17950TIP3    H275342   0.334   0.358  13.611  0.2067  0.6756 -0.6760
17951TIP3   OH275343   3.499   1.298  15.619  0.2378 -0.0468 -0.1133
17951TIP3    H175344   3.483   1.373  15.676  2.3422 -2.0732  3.5058
17951TIP3    H275345   3.414   1.253  15.615 -0.0003  0.2173  1.3790
17952TIP3   OH275346   6.593   0.443   1.628  0.1568 -0.3301  0.6282
17952TIP3    H175347   6.625   0.446   1.718 -0.9390 -0.3165  1.0364
17952TIP3    H275348   6.625   0.360   1.594  0.7914 -0.2251  0.9393
17953TIP3   OH275349   5.245   4.978   5.652  0.3312  0.1624  0.1591
17953TIP3    H175350   5.291   5.006   5.573  0.9002  0.5454  0.6193
17953TIP3    H275351   5.219   4.887   5.634 -1.2896  0.8544 -1.2405
17954TIP3   OH275352   1.128   3.273  15.123  0.3501 -0.5295 -0.1472
17954TIP3    H175353   1.090   3.341  15.067  1.6013 -0.0670 -0.4781
17954TIP3    H275354   1.076   3.194  15.104  0.8778 -0.4488 -2.1699
17955TIP3   OH275355   5.916   1.064  12.408  0.1503  0.1247 -0.5528
17955TIP3    H175356   5.944   1.030  12.323 -0.9160 -0.4045 -0.7213
17955TIP3    H275357   5.919   0.988  12.466 -0.6598  0.0971 -0.5266
17956TIP3   OH275358   3.634   1.950  13.039 -0.2228  0.0056  0.0914
17956TIP3    H175359   3.640   1.936  12.945  1.2985 -1.2926  0.3292
17956TIP3    H275360   3.599   1.867  13.073 -3.2790  1.3425  0.4929
17957TIP3   OH275361   1.307   0.610  15.897 -0.3004 -0.4677  0.5171
17957TIP3    H175362   1.264   0.692  15.925  0.0175 -0.0981 -0.0544
17957TIP3    H275363   1.239   0.563  15.849 -0.5919 -0.7087  1.1559
17958TIP3   OH275364   3.838   6.661   4.145  0.6652  0.1811 -0.2979
17958TIP3    H175365   3.815   6.665   4.052 -0.0694 -1.2196 -0.2099
17958TIP3    H275366   3.775   6.719   4.188  1.6744  1.6659 -0.7544
17959TIP3   OH275367   6.706   5.746   0.856 -0.1369 -0.7926 -0.2627
17959TIP3    H175368   6.741   5.789   0.779 -3.1325  2.4062 -0.0963
17959TIP3    H275369   6.767   5.768   0.926 -0.0933  0.8128 -0.7716
17960TIP3   OH275370   1.563   1.906  12.714  0.0920 -0.4421 -0.0054
17960TIP3    H175371   1.488   1.949  12.673 -0.0876  1.2610  1.9480
17960TIP3    H275372   1.530   1.875  12.799  0.6874 -2.9879 -0.6010
17961TIP3   OH275373   0.113   4.624   3.926  0.1816 -0.4601 -0.1023
17961TIP3    H175374   0.033   4.673   3.906 -1.3089 -2.3060  0.9952
17961TIP3    H275375   0.144   4.593   3.841 -0.1044  0.4868 -0.5693
17962TIP3   OH275376   3.629   0.378   0.484 -0.0919  0.5294  0.7826
17962TIP3    H175377   3.588   0.294   0.466  1.3421 -0.1841  0.7347
17962TIP3    H275378   3.665   0.405   0.400 -0.3330  1.0865  0.8527
17963TIP3   OH275379   3.961   6.217   6.050  0.2117 -0.1197  0.3073
17963TIP3    H175380   3.987   6.128   6.026 -0.5224 -0.8975  2.1544
17963TIP3    H275381   3.882   6.234   5.998  0.2645 -0.6337  0.0601
17964TIP3   OH275382   6.583   6.468  11.632  0.3933  0.6655 -0.2300
17964TIP3    H175383   6.672   6.459  11.600  0.4800  1.3320 -0.1868
17964TIP3    H275384   6.565   6.562  11.629 -0.2020  0.5690  0.0385
17965TIP3   OH275385   3.579   2.777   5.564  0.1613  0.3738  0.0269
17965TIP3    H175386   3.518   2.714   5.525  0.0026  0.6934 -0.2461
17965TIP3    H275387   3.546   2.791   5.653 -1.2483  1.9281 -0.6904
17966TIP3   OH275388   1.908   3.034   3.165  0.3672  0.7756  0.1100
17966TIP3    H175389   1.875   2.973   3.231 -1.3790  0.9963 -0.5277
17966TIP3    H275390   1.923   2.980   3.088 -2.1184  1.2500 -0.7672
17967TIP3   OH275391   6.069   0.594   3.789  0.5858  0.1618 -0.2958
17967TIP3    H175392   6.123   0.623   3.716  0.4468 -1.7962 -1.2390
17967TIP3    H275393   5.982   0.580   3.752  0.2753  0.0577  0.4500
17968TIP3   OH275394   0.241   6.424   0.401  0.6478  0.2824 -0.3094
17968TIP3    H175395   0.150   6.450   0.415  0.2101 -0.1495 -2.0992
17968TIP3    H275396   0.277   6.414   0.489 -1.4696 -1.0858  0.4701
17969TIP3   OH275397   1.938   3.921   0.059 -0.0617  0.1321  0.7594
17969TIP3    H175398   1.956   3.832   0.088  0.0417 -0.3301 -0.6464
17969TIP3    H275399   2.021   3.952   0.022 -0.0143  0.9296  1.4822
17970TIP3   OH275400   3.082   0.446  13.515  0.7201  0.5221 -0.1403
17970TIP3    H175401   3.164   0.477  13.475  1.3547  0.8652  1.3594
17970TIP3    H275402   3.040   0.526  13.547  0.6569  0.1771  0.6456
17971TIP3   OH275403   1.218   1.620   0.410  0.4647 -0.1366 -0.1359
17971TIP3    H175404   1.238   1.615   0.317  3.5080  0.6766  0.3682
17971TIP3    H275405   1.231   1.712   0.433  2.8756 -0.8342  1.6190
17972TIP3   OH275406   1.092   0.831  12.932 -0.0454 -0.1060 -0.3339
17972TIP3    H175407   1.140   0.776  12.994 -1.2010 -0.3121  0.4004
17972TIP3    H275408   1.073   0.773  12.859 -0.5669 -0.4735  0.0874
17973TIP3   OH275409   0.524   5.177   2.253  0.2265 -0.3908  0.3042
17973TIP3    H175410   0.583   5.246   2.285  0.6985 -0.4223 -0.4652
17973TIP3    H275411   0.438   5.203   2.285  0.5777 -0.0560  0.9985
17974TIP3   OH275412   0.425   6.088  16.569 -0.3792  0.7879 -0.0207
17974TIP3    H175413   0.372   6.032  16.513  0.7886  0.1530 -0.5358
17974TIP3    H275414   0.457   6.158  16.511  0.0361  0.6820  0.0759
17975TIP3   OH275415   2.478   4.983   3.706 -0.4411 -0.2791 -0.2604
17975TIP3    H175416   2.453   4.999   3.797 -3.0782 -0.6594 -0.8268
17975TIP3    H275417   2.525   5.063   3.679 -0.3122  0.1550  1.1883
17976TIP3   OH275418   5.355   5.668   6.255 -0.2356 -0.4888 -0.4453
17976TIP3    H175419   5.295   5.740   6.238 -1.5281 -1.1681  0.9598
17976TIP3    H275420   5.424   5.707   6.309  0.6638  0.3015 -2.0969
17977TIP3   OH275421   0.354   5.295  15.175 -0.5558 -0.0130 -0.1050
17977TIP3    H175422   0.413   5.231  15.215  1.9828  2.0671 -0.2482
17977TIP3    H275423   0.376   5.293  15.082 -1.5353  0.0376 -0.3484
17978TIP3   OH275424   0.136   5.286  13.891  0.0609  0.5434  0.6449
17978TIP3    H175425   0.195   5.254  13.959 -0.5004  1.0096  1.3727
17978TIP3    H275426   0.189   5.346  13.839  0.8595 -0.7856 -0.1562
17979TIP3   OH275427   0.310   1.355  16.386 -0.3497 -0.3101 -0.2717
17979TIP3    H175428   0.234   1.355  16.445 -0.5428  1.1988 -0.4755
17979TIP3    H275429   0.274   1.382  16.301  0.3996  0.4023 -0.3786
17980TIP3   OH275430   2.136   5.089  12.324  0.0575  0.2068 -0.4725
17980TIP3    H175431   2.069   5.158  12.331  0.3513  0.3912  0.8251
17980TIP3    H275432   2.100   5.027  12.260 -0.5856  1.1435 -1.0379
17981TIP3   OH275433   2.236   5.903   0.785  0.6410 -0.1647  0.2577
17981TIP3    H175434   2.218   5.817   0.746  0.0233 -0.3021  0.8205
17981TIP3    H275435   2.297   5.944   0.725  0.5722 -0.8112 -0.2717
17982TIP3   OH275436   2.159   0.738   0.867  0.0445 -0.1796  0.3477
17982TIP3    H175437   2.118   0.822   0.885 -0.4542 -0.0356 -1.2752
17982TIP3    H275438   2.087   0.682   0.837  0.5775 -0.7784  0.1504
17983TIP3   OH275439   2.640   3.898  14.288 -0.2234 -0.3795  0.5618
17983TIP3    H175440   2.604   3.965  14.345  2.3456  0.3435  1.4999
17983TIP3    H275441   2.609   3.815  14.324 -2.0365  0.1985  0.4131
17984TIP3   OH275442   3.564   4.520   1.857  0.5266 -0.5214 -0.1630
17984TIP3    H175443   3.474   4.509   1.887  1.1898 -1.2068  1.7299
17984TIP3    H275444   3.603   4.433   1.869  1.7260  0.0479  0.1532
17985TIP3   OH275445   0.722   0.780   3.100  0.2238  0.2736 -0.5673
17985TIP3    H175446   0.733   0.853   3.039  3.3246  1.5323  1.2514
17985TIP3    H275447   0.775   0.709   3.063 -1.5131 -0.5915 -1.5198
17986TIP3   OH275448   3.495   2.853  17.143  0.1867 -0.0788  0.0686
17986TIP3    H175449   3.580   2.895  17.129 -0.1847  0.4076 -0.8588
17986TIP3    H275450   3.516   2.771  17.188  0.9613  0.9096  1.5935
17987TIP3   OH275451   3.351   5.347  11.867 -0.2989  0.2078 -0.2788
17987TIP3    H175452   3.359   5.298  11.949  0.6565  0.0620 -0.4510
17987TIP3    H275453   3.297   5.290  11.811 -0.9482  0.3052  0.2395
17988TIP3   OH275454   3.491   5.436  11.378 -0.4032 -0.3735 -0.0601
17988TIP3    H175455   3.489   5.353  11.426  0.3836 -0.2889  0.1283
17988TIP3    H275456   3.571   5.432  11.326 -1.2798 -0.5062 -1.4750
17989TIP3   OH275457   1.551   6.568   3.772 -0.2938 -0.7881  0.1205
17989TIP3    H175458   1.587   6.583   3.684 -0.7156 -1.2910 -0.1478
17989TIP3    H275459   1.525   6.475   3.771 -2.3870 -0.2662 -0.0168
17990TIP3   OH275460   4.013   0.595   0.407 -0.2753  0.0031  0.5570
17990TIP3    H175461   4.011   0.678   0.359  1.2189 -0.0134  0.4215
17990TIP3    H275462   3.922   0.581   0.434 -0.2542  2.7375  2.4195
17991TIP3   OH275463   4.833   6.720  12.466  0.4836 -0.1395  0.0228
17991TIP3    H175464   4.747   6.761  12.475  1.3315  1.7073  0.1805
17991TIP3    H275465   4.814   6.626  12.457 -1.5744  0.3079 -0.8968
17992TIP3   OH275466   4.989   0.482  12.236  0.3271 -0.0202  0.9820
17992TIP3    H175467   4.984   0.389  12.258 -0.9337 -0.1545  0.2223
17992TIP3    H275468   5.057   0.487  12.169  1.3459 -0.1868  1.9831
17993TIP3   OH275469   2.581   5.158  15.798 -0.3036  0.2783  0.2714
17993TIP3    H175470   2.643   5.091  15.827 -0.5205 -0.7927 -1.6056
17993TIP3    H275471   2.509   5.152  15.862  0.6019  0.1577  1.3075
17994TIP3   OH275472   4.402   1.195   2.545 -0.0824  0.5610 -0.2765
17994TIP3    H175473   4.472   1.180   2.608 -0.8968  1.0013  0.7720
17994TIP3    H275474   4.352   1.268   2.582 -1.0433  0.3097 -1.0356
17995TIP3   OH275475   0.477   5.963  15.031  1.0484  0.8430 -0.5157
17995TIP3    H175476   0.508   6.037  14.979  1.1285  0.4581 -1.0192
17995TIP3    H275477   0.537   5.892  15.010  0.8837  0.5922 -0.1450
17996TIP3   OH275478   2.109   5.935   2.834  0.0854  0.0819  0.2727
17996TIP3    H175479   2.137   5.844   2.826 -1.2354 -0.1880 -2.1796
17996TIP3    H275480   2.017   5.929   2.861 -0.0058  0.6823  0.1108
17997TIP3   OH275481   6.316   1.267   2.661  0.1673 -0.1886  0.2124
17997TIP3    H175482   6.336   1.239   2.572  2.7289  0.8639  0.3563
17997TIP3    H275483   6.360   1.203   2.718  2.5343  1.5645  0.5642
17998TIP3   OH275484   5.319   4.973   1.472  0.5661  0.4454 -0.1695
17998TIP3    H175485   5.281   4.887   1.485 -0.7006  0.9855 -0.0942
17998TIP3    H275486   5.372   4.965   1.393  0.3898 -0.3722 -0.2072
17999TIP3   OH275487   1.475   6.007   0.451  0.1676  0.1005 -0.6416
17999TIP3    H175488   1.478   5.912   0.461 -1.3836  0.0203 -0.6158
17999TIP3    H275489   1.545   6.027   0.389  1.6893 -0.8305  0.6987
18000TIP3   OH275490   2.731   0.900   0.864  0.3811 -0.2718 -0.9006
18000TIP3    H175491   2.742   0.984   0.908  0.8242 -0.6148 -0.3475
18000TIP3    H275492   2.816   0.883   0.824  0.3319 -0.5155 -0.9016
18001TIP3   OH275493   6.406   1.780  11.314  0.1393  0.0183  0.2642
18001TIP3    H175494   6.453   1.834  11.251 -0.0076 -1.0969 -0.8376
18001TIP3    H275495   6.401   1.693  11.273 -0.4787 -0.5868  1.5536
18002TIP3   OH275496   1.553   6.769   1.137  0.0632 -0.4853  0.2188
18002TIP3    H175497   1.533   6.721   1.056  0.2932  1.7663 -1.2778
18002TIP3    H275498   1.474   6.820   1.155  0.7594  0.6510  0.1590
18003TIP3   OH275499   3.615   1.536  16.802 -0.3760  0.2222  0.1871
18003TIP3    H175500   3.606   1.481  16.881  0.3826 -2.8034 -1.6622
18003TIP3    H275501   3.708   1.555  16.797 -0.5522  1.2188  0.4672
18004TIP3   OH275502   5.148   0.452   4.893  0.1569 -0.4544  0.1121
18004TIP3    H175503   5.186   0.370   4.925  0.0408 -0.5747 -0.0578
18004TIP3    H275504   5.089   0.425   4.823 -0.3074 -0.2737  0.4310
18005TIP3   OH275505   5.334   3.939  13.078 -0.2050 -0.6683  0.5026
18005TIP3    H175506   5.296   3.994  13.147 -0.3412 -3.2257  2.6220
18005TIP3    H275507   5.372   3.865  13.125  0.1489 -2.3066 -2.1880
18006TIP3   OH275508   5.290   1.258  14.653 -0.2676  1.0293  0.4468
18006TIP3    H175509   5.368   1.246  14.599 -0.0302 -0.1459  1.0195
18006TIP3    H275510   5.233   1.185  14.629 -0.1512  0.4684  1.7683
18007TIP3   OH275511   3.417   2.773  11.602  0.0188 -0.7833 -0.2877
18007TIP3    H175512   3.398   2.866  11.595  1.7769 -0.3496  0.0571
18007TIP3    H275513   3.336   2.733  11.634 -1.2437  0.3731 -1.8867
18008TIP3   OH275514   2.718   5.429  10.714  0.5663 -0.3894 -0.3027
18008TIP3    H175515   2.696   5.456  10.625  1.7391  0.0115 -0.4982
18008TIP3    H275516   2.811   5.406  10.709  0.7500  0.0250  0.9102
18009TIP3   OH275517   3.766   0.809  15.871 -0.3056 -0.1971 -0.6732
18009TIP3    H175518   3.671   0.801  15.876 -0.3755  1.1276  0.9502
18009TIP3    H275519   3.788   0.876  15.935  1.8828 -1.5210  0.0711
18010TIP3   OH275520   6.591   6.494   6.607 -0.5667 -0.0387  0.2366
18010TIP3    H175521   6.658   6.431   6.578 -1.1205 -0.3501 -0.3720
18010TIP3    H275522   6.512   6.442   6.619 -1.0834  0.5715 -0.4513
18011TIP3   OH275523   2.963   0.277   0.451 -0.4862  0.6249 -0.5317
18011TIP3    H175524   3.000   0.300   0.365  0.7533 -0.8714 -0.4445
18011TIP3    H275525   2.936   0.186   0.442 -0.3472  0.4502  0.6689
18012TIP3   OH275526   3.216   3.530  16.150 -0.1123  0.7832  0.1531
18012TIP3    H175527   3.154   3.592  16.111  0.7466  1.9166  0.5435
18012TIP3    H275528   3.202   3.537  16.244 -0.1575  0.2146  0.1919
18013TIP3   OH275529   5.977   0.224   3.402 -0.0100  0.1168  0.0242
18013TIP3    H175530   6.036   0.252   3.472 -1.2092  0.3253  0.9756
18013TIP3    H275531   5.907   0.176   3.447  0.1608 -1.3740 -1.2303
18014TIP3   OH275532   6.458   0.094  16.499  0.0056 -0.3001  0.4950
18014TIP3    H175533   6.500   0.172  16.463  0.3057 -0.3058  0.8252
18014TIP3    H275534   6.472   0.026  16.434  0.8792 -0.4113  0.7952
18015TIP3   OH275535   4.332   1.669  16.129 -0.0990  0.1163  0.0407
18015TIP3    H175536   4.395   1.601  16.103 -0.8853  0.2521 -2.4469
18015TIP3    H275537   4.386   1.744  16.154  0.7405 -0.5159  0.1724
18016TIP3   OH275538   2.232   5.151  16.204 -0.2389 -0.2076  0.3172
18016TIP3    H175539   2.172   5.120  16.271 -1.0632  2.3208  0.8564
18016TIP3    H275540   2.186   5.224  16.162  1.0199 -0.5062 -1.7415
18017TIP3   OH275541   5.854   5.000   2.600  0.6364  0.7060  0.1499
18017TIP3    H175542   5.859   4.907   2.623  0.7158  0.2884 -1.4810
18017TIP3    H275543   5.760   5.016   2.589  0.6282  0.8082  0.3623
18018TIP3   OH275544   6.831   2.241  12.050  0.0049 -0.0377  0.4309
18018TIP3    H175545   6.892   2.228  12.122  2.2354  0.5166 -1.2187
18018TIP3    H275546   6.817   2.335  12.046 -0.3243 -0.0899  0.3141
18019TIP3   OH275547   2.327   5.591   0.187  0.1344  0.6518  0.3880
18019TIP3    H175548   2.316   5.606   0.093  0.3138  0.7815  0.3870
18019TIP3    H275549   2.338   5.679   0.224  0.2326  0.5891  0.5069
18020TIP3   OH275550   3.993   5.802  10.905 -0.1356  0.3471  0.2037
18020TIP3    H175551   3.961   5.888  10.875 -1.0624 -0.1125 -0.1698
18020TIP3    H275552   3.972   5.743  10.833 -0.7333 -0.4473  1.0077
18021TIP3   OH275553   4.505   0.971  15.000 -0.6789 -0.3751 -0.2861
18021TIP3    H175554   4.547   1.053  15.027  2.1161 -1.9699  0.6376
18021TIP3    H275555   4.437   0.999  14.938  1.9348  2.5108 -2.2176
18022TIP3   OH275556   5.973   2.118   1.365 -0.2037 -0.2890  0.3893
18022TIP3    H175557   5.979   2.157   1.278 -0.1788  0.0702  0.5485
18022TIP3    H275558   5.988   2.025   1.351  0.1507 -0.1828  0.0563
18023TIP3   OH275559   0.823   2.319   2.741  0.2840  0.1253 -0.3320
18023TIP3    H175560   0.910   2.315   2.703  0.4548 -0.3708  0.0905
18023TIP3    H275561   0.786   2.402   2.710  0.8902  0.3213 -0.5376
18024TIP3   OH275562   0.453   0.435  11.150 -0.0367  0.4157  0.0953
18024TIP3    H175563   0.534   0.457  11.197 -1.0411 -0.0497  2.1565
18024TIP3    H275564   0.392   0.505  11.175 -0.8485 -0.3111  0.1769
18025TIP3   OH275565   5.023   5.351   3.770  0.2910  0.3065 -0.0630
18025TIP3    H175566   5.102   5.322   3.725 -0.0644 -1.0420  0.1328
18025TIP3    H275567   4.961   5.278   3.759 -1.0298  1.4380 -0.4594
18026TIP3   OH275568   3.078   4.893   0.447  0.1088  0.6553  0.2702
18026TIP3    H175569   3.085   4.957   0.376  2.2733  0.9047  0.6461
18026TIP3    H275570   3.053   4.945   0.523  1.1639  0.9780  0.4165
18027TIP3   OH275571   5.554   5.300   1.115 -0.3322 -0.4281  0.1916
18027TIP3    H175572   5.497   5.370   1.085 -0.4209 -0.4978  0.1982
18027TIP3    H275573   5.642   5.326   1.085 -0.0849  0.5394  1.6550
18028TIP3   OH275574   2.819   4.974   4.061 -0.0458  0.4697 -0.0002
18028TIP3    H175575   2.813   5.023   4.143 -1.0044  0.1713  0.1158
18028TIP3    H275576   2.754   4.905   4.070  0.9947 -0.5706 -0.3473
18029TIP3   OH275577   4.875   4.077  16.579 -0.3307  0.1228 -0.6628
18029TIP3    H175578   4.853   4.001  16.632  0.1812  0.9796  0.8390
18029TIP3    H275579   4.902   4.041  16.494  0.7943 -1.4263  0.3149
18030TIP3   OH275580   2.103   6.694   5.789  0.0257  0.1521  0.0424
18030TIP3    H175581   2.036   6.643   5.834  0.0318  0.0632 -0.0493
18030TIP3    H275582   2.159   6.628   5.747 -0.3359  0.2469 -0.6059
18031TIP3   OH275583   4.913   6.801   3.504  0.1071  0.3471  0.1040
18031TIP3    H175584   4.989   6.786   3.449 -0.6511 -0.0079 -0.8816
18031TIP3    H275585   4.852   6.730   3.482  0.2515 -0.5631  2.3149
18032TIP3   OH275586   4.174   5.726   3.370  0.0366 -1.2664  0.3551
18032TIP3    H175587   4.106   5.680   3.420 -0.3442  0.2091  1.2543
18032TIP3    H275588   4.191   5.669   3.295 -0.4353 -2.8323  1.3891
18033TIP3   OH275589   0.176   4.007  16.815 -0.3313 -0.0226  0.2731
18033TIP3    H175590   0.169   3.950  16.739 -0.0265  0.0436  0.1897
18033TIP3    H275591   0.139   3.957  16.887  0.4574 -0.5571  0.3185
18034TIP3   OH275592   1.498   5.981  15.633  0.2903  0.4084 -0.4572
18034TIP3    H175593   1.497   6.057  15.574 -0.2417 -0.0602 -1.0575
18034TIP3    H275594   1.499   6.020  15.720  0.7478  1.1131 -0.7614
18035TIP3   OH275595   3.274   4.528   1.904  0.1407 -0.2799  0.7041
18035TIP3    H175596   3.283   4.623   1.898  0.3668 -0.2404  1.5782
18035TIP3    H275597   3.201   4.507   1.846 -0.0488  0.4477  0.6759
18036TIP3   OH275598   5.155   6.318   4.710 -0.7148  0.3500  0.3630
18036TIP3    H175599   5.125   6.239   4.666  1.4616 -0.3503  0.0179
18036TIP3    H275600   5.123   6.390   4.656 -0.4349 -0.4008 -0.8232
18037TIP3   OH275601   3.229   1.926   3.767 -0.3580 -0.3708 -0.2645
18037TIP3    H175602   3.252   2.018   3.773  0.0318 -0.5384  1.2209
18037TIP3    H275603   3.239   1.905   3.674  0.8853  0.7491 -0.4183
18038TIP3   OH275604   0.708   1.566  14.751 -0.1413  0.3337 -0.2073
18038TIP3    H175605   0.801   1.549  14.766 -0.5779 -2.0270  0.2294
18038TIP3    H275606   0.679   1.609  14.831  0.3018 -0.1085  0.1998
18039TIP3   OH275607   5.683   5.188   4.750 -0.2851 -0.3722 -0.6197
18039TIP3    H175608   5.630   5.109   4.766  0.5837 -1.6011 -3.1958
18039TIP3    H275609   5.627   5.244   4.697 -0.0114 -0.4513 -1.0016
18040TIP3   OH275610   0.073   4.953  15.587  0.2716  0.0454  0.0451
18040TIP3    H175611  -0.014   4.991  15.594  1.6308  4.1083 -1.8540
18040TIP3    H275612   0.077   4.918  15.497  0.5506 -0.3106  0.1928
18041TIP3   OH275613   3.513   5.146  12.777 -0.0702 -0.1324  0.7042
18041TIP3    H175614   3.536   5.214  12.714 -1.6051  1.0376  1.3435
18041TIP3    H275615   3.597   5.121  12.817  0.6029  0.9147 -0.0177
18042TIP3   OH275616   2.173   3.805   3.916  0.2625 -0.6578  0.0296
18042TIP3    H175617   2.209   3.747   3.983  2.5401  0.5807 -0.0381
18042TIP3    H275618   2.147   3.746   3.845  3.6024 -1.6451 -0.5484
18043TIP3   OH275619   4.805   5.933  14.440  0.6868 -0.0656 -0.1476
18043TIP3    H175620   4.815   5.964  14.530 -1.3545 -1.2917  0.5494
18043TIP3    H275621   4.889   5.955  14.399  1.8111  0.2251  2.1116
18044TIP3   OH275622   4.184   6.037  11.487  0.5564  0.4080  0.1179
18044TIP3    H175623   4.251   6.022  11.554  0.1166 -0.9192  0.2967
18044TIP3    H275624   4.231   6.079  11.415  1.3547  0.4458  0.6483
18045TIP3   OH275625   4.317   4.631  12.187  0.0822  0.0808 -0.3516
18045TIP3    H175626   4.294   4.558  12.245  0.8414 -0.1698 -0.3617
18045TIP3    H275627   4.312   4.708  12.244  1.9499 -0.2861  0.3648
18046TIP3   OH275628   1.831   0.966   3.243 -0.4150  0.2136 -1.0922
18046TIP3    H175629   1.818   0.987   3.150 -1.5178  0.0459 -0.9905
18046TIP3    H275630   1.906   1.019   3.269  1.4465 -1.4793 -2.6578
18047TIP3   OH275631   2.098   2.979  16.404  0.0966  0.0373  0.6067
18047TIP3    H175632   2.156   2.918  16.448 -0.6910 -0.4263  1.0163
18047TIP3    H275633   2.102   3.059  16.457  2.5846  1.0633 -0.9486
18048TIP3   OH275634   2.428   5.349  14.522  0.0828 -0.1792 -0.1843
18048TIP3    H175635   2.361   5.403  14.564  1.7125  1.3505  0.5477
18048TIP3    H275636   2.498   5.410  14.499  0.8323 -1.5763 -1.8352
18049TIP3   OH275637   0.694   5.771  11.643  0.3222 -0.1050  0.8028
18049TIP3    H175638   0.758   5.721  11.593 -0.5835  0.7472 -1.3457
18049TIP3    H275639   0.738   5.854  11.662  1.3742 -1.1497  3.2634
18050TIP3   OH275640   5.544   5.815  14.953 -0.2629 -0.0032 -0.4940
18050TIP3    H175641   5.478   5.751  14.926 -0.1797 -0.6859  0.8011
18050TIP3    H275642   5.524   5.832  15.045  0.8891  0.3828 -0.2998
18051TIP3   OH275643   2.949   4.002  13.271 -0.2755 -0.4593 -0.1372
18051TIP3    H175644   2.933   3.955  13.353 -1.6826 -0.5045 -0.4065
18051TIP3    H275645   2.864   4.002  13.226  0.7816 -1.7229 -2.2861
18052TIP3   OH275646   5.939   5.032  14.065  0.2413 -0.2539 -0.1875
18052TIP3    H175647   5.949   4.953  14.119  1.2535 -1.0906 -1.5332
18052TIP3    H275648   6.025   5.045  14.025 -0.1845  0.9723 -0.7572
18053TIP3   OH275649   2.554   1.073   4.157  0.1517  0.2597 -0.3706
18053TIP3    H175650   2.624   1.039   4.212 -0.7523 -1.1809 -0.0638
18053TIP3    H275651   2.485   1.097   4.219 -0.1723  0.3457 -0.7617
18054TIP3   OH275652   1.358   2.833   1.345  0.4395 -0.2182  0.0447
18054TIP3    H175653   1.312   2.866   1.422  0.8602 -1.4153  0.8486
18054TIP3    H275654   1.352   2.904   1.281  0.8193  1.1514  1.4684
18055TIP3   OH275655   0.997   5.367  16.525 -0.4391 -0.5040  0.4031
18055TIP3    H175656   1.011   5.349  16.433  1.2460 -1.8438  0.8723
18055TIP3    H275657   1.082   5.396  16.558 -0.8268 -0.7209  1.6748
18056TIP3   OH275658   6.618   0.564   5.738  0.4478  0.0750 -0.4450
18056TIP3    H175659   6.645   0.475   5.756  1.9670  0.4587 -0.6869
18056TIP3    H275660   6.542   0.555   5.680  1.5349 -1.0658 -1.7526
18057TIP3   OH275661   5.327   5.031  16.961  0.0741 -0.5289  0.2348
18057TIP3    H175662   5.273   4.982  17.023  0.0323 -0.2564  0.4131
18057TIP3    H275663   5.414   4.992  16.969  0.5064  0.6610  1.7628
18058TIP3   OH275664   4.894   4.449   5.104 -0.3534 -0.1290 -0.1848
18058TIP3    H175665   4.845   4.407   5.033  1.0734 -2.3563  0.0524
18058TIP3    H275666   4.958   4.505   5.059 -0.5258 -0.2752 -0.6121
18059TIP3   OH275667   0.507   3.081   2.481  0.1997 -0.1924  0.2924
18059TIP3    H175668   0.516   3.147   2.413  0.5486 -1.2425 -0.7141
18059TIP3    H275669   0.530   3.126   2.562 -1.1482  1.3288 -0.1383
18060TIP3   OH275670   2.894   2.591   5.450  0.5377  0.2614  0.4599
18060TIP3    H175671   2.849   2.532   5.509  2.3291 -0.9755  0.6948
18060TIP3    H275672   2.891   2.676   5.493 -0.9691  0.0933  0.7404
18061TIP3   OH275673   5.339   4.553   3.818 -0.0515  0.0157 -0.1445
18061TIP3    H175674   5.433   4.568   3.810 -0.2297  0.2204 -2.6593
18061TIP3    H275675   5.302   4.640   3.831 -0.0223  0.1344 -0.8528
18062TIP3   OH275676   1.635   2.944   4.631 -0.2097  0.9198 -0.5808
18062TIP3    H175677   1.700   2.874   4.632 -0.6609  0.4942 -0.3272
18062TIP3    H275678   1.683   3.023   4.654  0.5522  0.9238 -2.0846
18063TIP3   OH275679   1.386   6.083   4.935 -0.3048  0.6271  0.3347
18063TIP3    H175680   1.299   6.046   4.951  0.6560 -0.9305  2.4998
18063TIP3    H275681   1.370   6.175   4.915 -2.5219  0.0324 -0.9321
18064TIP3   OH275682   3.001   1.909  11.318 -0.3275 -0.3466  0.0584
18064TIP3    H175683   3.002   1.986  11.375  0.8494  0.3408 -0.8557
18064TIP3    H275684   3.093   1.881  11.312 -0.2915  0.0159 -2.0073
18065TIP3   OH275685   2.490   3.236   0.783 -0.0835 -0.6660  0.0032
18065TIP3    H175686   2.496   3.265   0.692 -1.5157 -0.4506 -0.0482
18065TIP3    H275687   2.518   3.144   0.781  1.9972 -0.0899 -0.2625
18066TIP3   OH275688   1.725   1.583  16.666 -0.0566 -0.3230  0.4824
18066TIP3    H175689   1.632   1.579  16.686 -0.4321  1.5916 -0.6056
18066TIP3    H275690   1.766   1.616  16.746 -0.6687  1.0340  0.2774
18067TIP3   OH275691   4.086   5.284   4.709 -0.8639 -0.2848 -0.8037
18067TIP3    H175692   4.063   5.301   4.801  0.0816  1.4130 -0.8475
18067TIP3    H275693   4.180   5.269   4.710 -1.0926 -1.9989 -1.3125
18068TIP3   OH275694   1.724   6.226  13.772 -0.0563 -0.0538 -0.6752
18068TIP3    H175695   1.730   6.275  13.854  0.5634 -2.0199  0.5465
18068TIP3    H275696   1.794   6.261  13.717 -0.1667  0.9649 -0.1820
18069TIP3   OH275697   3.071   2.845  10.872  0.1769 -0.4821  0.1294
18069TIP3    H175698   3.013   2.813  10.802  1.6140 -0.7339 -0.9844
18069TIP3    H275699   3.105   2.928  10.840  0.4144 -0.3070  0.8049
18070TIP3   OH275700   3.269   1.646   4.867 -0.1631 -0.4947 -0.3556
18070TIP3    H175701   3.316   1.662   4.785  0.8374 -0.0698  0.2728
18070TIP3    H275702   3.338   1.645   4.934 -1.1460  1.1422  0.7403
18071TIP3   OH275703   3.095   3.702   4.631 -0.0736 -0.0964  0.5315
18071TIP3    H175704   3.157   3.633   4.607 -0.9759 -1.2176  1.3071
18071TIP3    H275705   3.073   3.744   4.548  1.1262 -0.1671  0.1502
18072TIP3   OH275706   0.714   4.599  11.831  0.7341 -0.2811  0.3734
18072TIP3    H175707   0.654   4.662  11.791  2.0262  0.9165  0.2185
18072TIP3    H275708   0.742   4.544  11.758  1.2862  0.4016  0.0517
18073TIP3   OH275709   3.314   1.351   2.587  0.3806 -0.2249 -0.3715
18073TIP3    H175710   3.379   1.420   2.601  0.5526 -0.3810 -0.3882
18073TIP3    H275711   3.363   1.270   2.598  0.0575 -0.3444  0.2011
18074TIP3   OH275712   1.263   2.743  15.985  0.2603 -0.1636 -0.3216
18074TIP3    H175713   1.177   2.713  15.955  0.8972  0.2207 -2.7796
18074TIP3    H275714   1.307   2.663  16.014 -0.7790 -0.4083  0.6802
18075TIP3   OH275715   5.169   2.436   1.757 -0.8536  0.1643 -0.0782
18075TIP3    H175716   5.110   2.511   1.767 -2.9827 -1.5123  0.7007
18075TIP3    H275717   5.111   2.360   1.755  1.0540 -1.3913 -2.8096
18076TIP3   OH275718   5.758   1.977  14.778 -0.1436  0.2008 -0.1145
18076TIP3    H175719   5.759   1.902  14.838  0.8045  1.0530  0.9901
18076TIP3    H275720   5.722   2.049  14.829  2.5784  1.4782  0.2024
18077TIP3   OH275721   1.326   4.635  10.949  0.2201 -0.0238  0.2735
18077TIP3    H175722   1.346   4.604  11.037  0.7820 -0.3836  0.0214
18077TIP3    H275723   1.376   4.717  10.941  0.7869 -0.3884  0.0179
18078TIP3   OH275724   3.509   5.948   0.664  0.4972 -0.3414 -0.0109
18078TIP3    H175725   3.563   5.910   0.733  0.7346  0.3858  0.2176
18078TIP3    H275726   3.419   5.922   0.686  0.4387  0.8107  1.2085
18079TIP3   OH275727   5.018   3.593  13.920  0.7546  0.3336  0.2777
18079TIP3    H175728   4.965   3.630  13.849  0.4830  0.4274  0.5270
18079TIP3    H275729   5.041   3.505  13.889  1.6379  0.8022 -0.4365
18080TIP3   OH275730   1.740   0.958  17.016 -0.1405  0.7158 -0.0407
18080TIP3    H175731   1.735   0.918  17.103  1.0045  0.6734  0.0284
18080TIP3    H275732   1.671   0.915  16.965 -0.8097  0.7352  0.8371
18081TIP3   OH275733   1.670   1.774  16.404 -0.1918  0.1401  0.2528
18081TIP3    H175734   1.693   1.700  16.461  1.4912 -0.1950 -0.8139
18081TIP3    H275735   1.704   1.750  16.318 -0.4612  1.7528 -0.3333
18082TIP3   OH275736   4.893   1.584   2.248 -0.0915 -0.2214  0.5616
18082TIP3    H175737   4.801   1.611   2.246 -0.4783 -1.3924  1.4241
18082TIP3    H275738   4.933   1.627   2.172 -0.7446  2.3521  1.5560
18083TIP3   OH275739   0.512   4.269   2.757  0.7702 -0.1043  0.0588
18083TIP3    H175740   0.585   4.298   2.812 -0.0949  0.5658  0.8913
18083TIP3    H275741   0.457   4.217   2.815 -0.5409  1.2182  0.0665
18084TIP3   OH275742   0.133   0.501  10.960  0.4963 -0.1461  0.6597
18084TIP3    H175743   0.147   0.553  11.039  0.5284  0.8000  0.0393
18084TIP3    H275744   0.101   0.563  10.895  0.0310 -0.9996  0.0476
18085TIP3   OH275745   0.618   5.828   5.742  0.2585 -0.6193 -0.6444
18085TIP3    H175746   0.662   5.901   5.698  0.6102 -0.5693 -0.2114
18085TIP3    H275747   0.641   5.838   5.834  2.3509 -2.6905 -0.8741
18086TIP3   OH275748   1.086   5.681   2.332 -0.0169 -0.7673 -0.0113
18086TIP3    H175749   1.172   5.651   2.305  0.2201 -2.6034  2.4551
18086TIP3    H275750   1.029   5.605   2.322 -1.1317  0.1104 -0.5862
18087TIP3   OH275751   4.415   3.473   0.834  0.7708 -0.0613  0.0601
18087TIP3    H175752   4.501   3.456   0.872  1.6215  0.4968 -1.5483
18087TIP3    H275753   4.377   3.540   0.890  1.3366 -0.3622  0.8267
18088TIP3   OH275754   6.198   0.643   3.058 -0.4998  0.2925  0.2401
18088TIP3    H175755   6.292   0.660   3.062 -0.5272  0.3936  0.5539
18088TIP3    H275756   6.159   0.728   3.035 -0.3788 -0.1895 -1.9067
18089TIP3   OH275757   5.336   1.681  11.383  0.3448  0.0135 -0.3273
18089TIP3    H175758   5.426   1.702  11.407  0.0076  0.5179  0.5354
18089TIP3    H275759   5.295   1.765  11.366 -0.6825  0.0638  1.9598
18090TIP3   OH275760   5.196   2.505  13.731 -1.0362 -0.3606 -0.0996
18090TIP3    H175761   5.151   2.423  13.710 -0.8710 -0.1684 -1.3184
18090TIP3    H275762   5.175   2.563  13.657  0.4667  0.0151 -0.2641
18091TIP3   OH275763   1.952   3.876   0.479  0.2422 -0.1124 -0.3619
18091TIP3    H175764   1.968   3.782   0.486  0.1073 -0.0305  1.4885
18091TIP3    H275765   1.857   3.885   0.483  0.3190  0.2444  2.6740
18092TIP3   OH275766   2.699   2.982   1.372  0.4105  0.0657 -0.9472
18092TIP3    H175767   2.631   2.980   1.440  1.1749 -0.0888 -0.1811
18092TIP3    H275768   2.683   3.065   1.326  0.7052  0.8353  0.2843
18093TIP3   OH275769   1.362   2.185   1.485 -0.2944 -0.0172 -0.0409
18093TIP3    H175770   1.335   2.093   1.480 -1.1860  0.1939  0.5957
18093TIP3    H275771   1.305   2.230   1.423  0.2290  0.0894 -0.4473
18094TIP3   OH275772   3.323   4.933   4.751  0.4703  0.2378 -0.3614
18094TIP3    H175773   3.412   4.957   4.777  1.3273 -3.9667  1.2777
18094TIP3    H275774   3.335   4.877   4.674 -0.9686  0.8226 -1.0603
18095TIP3   OH275775   2.752   2.696   0.770 -0.0637  0.1852  0.6844
18095TIP3    H175776   2.800   2.692   0.853  2.0398  1.0517 -0.4248
18095TIP3    H275777   2.820   2.691   0.703 -1.3696  2.7864 -0.9892
18096TIP3   OH275778   3.995   0.098  16.374  0.1350  0.3663 -0.1392
18096TIP3    H175779   3.915   0.116  16.423  1.0324  2.8239  0.5402
18096TIP3    H275780   3.978   0.134  16.287 -0.4986 -1.6893 -0.9205
18097TIP3   OH275781   0.253   4.327  12.921 -0.3392  0.1951  0.3596
18097TIP3    H175782   0.328   4.378  12.949 -0.7384  0.1433  1.5866
18097TIP3    H275783   0.188   4.392  12.893 -0.2959  0.2914  0.4845
18098TIP3   OH275784   3.494   2.910   1.871  0.3426  0.7071  0.7376
18098TIP3    H175785   3.441   2.839   1.836  0.6274 -0.4568  2.5238
18098TIP3    H275786   3.584   2.884   1.851  0.3971  1.0793  0.5019
18099TIP3   OH275787   0.646   3.482  12.311 -0.0032 -0.3674  1.1613
18099TIP3    H175788   0.561   3.439  12.326 -0.7573  0.8143  0.4781
18099TIP3    H275789   0.697   3.418  12.261 -0.8326 -0.7692  0.8030
18100TIP3   OH275790   5.483   6.138  12.474  0.0308 -0.1356 -0.4718
18100TIP3    H175791   5.408   6.089  12.441  1.5128 -2.1433 -1.0643
18100TIP3    H275792   5.555   6.115  12.415  0.7570  3.2355 -1.1259
18101TIP3   OH275793   4.383   6.608   1.077 -0.2443  0.4861  0.4181
18101TIP3    H175794   4.402   6.668   1.150  2.5044  0.3479 -0.0895
18101TIP3    H275795   4.358   6.666   1.005  0.1171  0.8416  0.5756
18102TIP3   OH275796   3.141   5.437   2.457  0.2334  0.5633  0.4441
18102TIP3    H175797   3.167   5.447   2.366 -0.3086  0.5732  0.2886
18102TIP3    H275798   3.203   5.374   2.493 -1.5811 -2.1328 -0.8225
18103TIP3   OH275799   4.043   3.601  11.450  0.2291  0.1426  0.1698
18103TIP3    H175800   4.112   3.543  11.484 -0.5213 -0.0911  1.3767
18103TIP3    H275801   4.090   3.665  11.397  0.9364 -2.6752 -2.9762
18104TIP3   OH275802   5.902   5.038   1.948 -0.2031  0.0511 -0.3256
18104TIP3    H175803   5.847   4.976   1.901 -0.0020  0.9522 -1.8301
18104TIP3    H275804   5.992   5.008   1.931 -0.1128  0.6153 -0.8880
18105TIP3   OH275805   3.649   4.953   0.191  0.2910  0.7269 -0.5196
18105TIP3    H175806   3.722   4.913   0.145  1.6419  1.6847  0.6847
18105TIP3    H275807   3.586   4.883   0.204  0.7110  0.0216 -2.1256
18106TIP3   OH275808   4.449   5.484   3.338 -0.5157 -0.6370  0.3355
18106TIP3    H175809   4.437   5.461   3.246 -0.4699 -1.0540  0.4328
18106TIP3    H275810   4.539   5.514   3.344 -1.3817  2.4792 -0.3914
18107TIP3   OH275811   1.959   5.419   3.402 -0.4282  0.1908  0.5475
18107TIP3    H175812   1.868   5.412   3.372 -0.0606  1.3930 -0.9540
18107TIP3    H275813   1.980   5.511   3.392  1.1246 -0.1631  0.3866
18108TIP3   OH275814   4.907   5.260  13.205 -0.2558 -0.0500  0.0186
18108TIP3    H175815   4.985   5.252  13.260 -0.2813 -0.1540  0.0388
18108TIP3    H275816   4.939   5.247  13.116 -0.3538 -0.7329  0.0785
18109TIP3   OH275817   3.851   5.965  12.191  0.4401 -0.2849 -0.0090
18109TIP3    H175818   3.893   5.914  12.122  1.9683  1.2190 -0.2361
18109TIP3    H275819   3.891   5.933  12.272  1.4147  0.5109 -0.1542
18110TIP3   OH275820   2.298   5.724   2.885  0.2499  0.1335  0.1324
18110TIP3    H175821   2.276   5.631   2.874  1.6189 -0.2279  0.1802
18110TIP3    H275822   2.387   5.723   2.920 -0.4301  1.4518  2.0233
18111TIP3   OH275823   2.426   5.402   4.582  0.2474  0.4988 -0.7596
18111TIP3    H175824   2.483   5.444   4.646 -0.5044  1.1514 -0.5086
18111TIP3    H275825   2.486   5.355   4.524  1.0235  1.0223 -0.3967
18112TIP3   OH275826   2.688   3.458   6.033  0.3419 -0.3858 -0.5671
18112TIP3    H175827   2.647   3.458   5.947 -1.0220 -1.2181  0.0529
18112TIP3    H275828   2.740   3.378   6.035 -1.7208 -1.7790  0.2887
18113TIP3   OH275829   5.224   1.671  14.834 -0.1423 -0.0596  0.0097
18113TIP3    H175830   5.255   1.762  14.841  0.5861 -0.2018 -0.9950
18113TIP3    H275831   5.183   1.653  14.918 -0.7890  1.3780  0.0439
18114TIP3   OH275832   1.980   6.480   4.016 -0.2897  0.2754  0.0197
18114TIP3    H175833   1.950   6.389   4.010 -0.7645  0.4872 -1.1015
18114TIP3    H275834   1.915   6.523   4.072  0.1116 -0.1367  0.8138
18115TIP3   OH275835   1.794   2.726  15.553 -0.4634  0.0935  0.1439
18115TIP3    H175836   1.813   2.768  15.469 -0.2684 -0.2557  0.0092
18115TIP3    H275837   1.736   2.787  15.599 -0.0902  0.5567  0.0005
18116TIP3   OH275838   0.675   5.468  16.466  0.0281  0.1657  0.2129
18116TIP3    H175839   0.650   5.543  16.520 -0.3161  1.2141 -1.3309
18116TIP3    H275840   0.766   5.450  16.490 -0.1088  0.6327  1.0955
18117TIP3   OH275841   3.756   3.621  14.302 -0.6343 -0.1843  0.0669
18117TIP3    H175842   3.800   3.701  14.274 -2.6218  0.7465 -0.5930
18117TIP3    H275843   3.779   3.556  14.235  0.9909 -0.2159  0.6106
18118TIP3   OH275844   1.328   5.369  16.129 -0.1433  0.3872  0.1815
18118TIP3    H175845   1.417   5.355  16.163 -0.2199  0.6858  0.5188
18118TIP3    H275846   1.341   5.422  16.050 -0.0204  0.4362  0.2337
18119TIP3   OH275847   1.211   6.736   5.473 -0.7739 -0.1480  0.3000
18119TIP3    H175848   1.189   6.665   5.413 -1.0358 -1.7888  2.2253
18119TIP3    H275849   1.139   6.798   5.463 -1.0600 -0.6164 -0.7046
18120TIP3   OH275850   5.439   1.600   2.679 -0.3590 -0.3905  0.3209
18120TIP3    H175851   5.423   1.654   2.601  0.3282 -0.1503  0.3371
18120TIP3    H275852   5.375   1.631   2.743  0.0535  0.4487  0.3425
18121TIP3   OH275853   1.911   0.102   0.647 -0.4721  0.1770  0.2508
18121TIP3    H175854   1.966   0.061   0.580  0.2321  0.0797  0.8738
18121TIP3    H275855   1.832   0.130   0.600 -1.1450 -2.1846 -0.1598
18122TIP3   OH275856   1.705   0.361   4.857 -0.4290  0.1583 -0.0073
18122TIP3    H175857   1.720   0.455   4.846 -0.3293 -0.0957 -2.5400
18122TIP3    H275858   1.693   0.328   4.769  0.8158 -2.4538  0.7002
18123TIP3   OH275859   5.757   2.907  13.470 -0.3968  0.7017 -0.0923
18123TIP3    H175860   5.742   2.900  13.376 -0.4523  0.2538 -0.0528
18123TIP3    H275861   5.721   2.826  13.506 -2.4240  1.8338  0.5808
18124TIP3   OH275862   2.297   4.368  13.350 -0.3880  0.1300 -0.9101
18124TIP3    H175863   2.292   4.450  13.300  0.4227 -0.1075 -1.3982
18124TIP3    H275864   2.231   4.378  13.419  1.0002  1.9995  0.2129
18125TIP3   OH275865   6.176   1.833   6.464  0.4182 -0.1635 -0.2618
18125TIP3    H175866   6.261   1.874   6.477  0.3467 -0.6021  2.0901
18125TIP3    H275867   6.196   1.744   6.435  0.6943  0.0736 -0.8268
18126TIP3   OH275868   2.340   1.421   5.481 -0.3550 -0.1835  0.5354
18126TIP3    H175869   2.347   1.450   5.572  1.9683  1.0236  0.0563
18126TIP3    H275870   2.429   1.428   5.447 -1.2082 -0.3590 -1.9159
18127TIP3   OH275871   2.634   2.216  17.196 -0.9781  0.2723 -0.1698
18127TIP3    H175872   2.676   2.159  17.132 -0.4497  1.6707 -1.1262
18127TIP3    H275873   2.614   2.296  17.148 -0.9640  1.2161  1.3151
18128TIP3   OH275874   5.123   2.874  15.696  0.0279  0.7674  0.2012
18128TIP3    H175875   5.077   2.823  15.762  0.9440  0.0661  0.3151
18128TIP3    H275876   5.132   2.815  15.621 -0.3207  1.2979 -0.2704
18129TIP3   OH275877   6.314   3.862   2.692  0.1503  0.8709 -0.1773
18129TIP3    H175878   6.375   3.855   2.766 -0.0709  1.5099  0.0721
18129TIP3    H275879   6.244   3.801   2.713  0.1097  1.0183  0.1179
18130TIP3   OH275880   3.676   6.602  15.354  0.4207 -0.1231 -0.2891
18130TIP3    H175881   3.608   6.587  15.288  2.3456 -0.3582 -2.3345
18130TIP3    H275882   3.657   6.538  15.423 -0.8287 -0.8979 -1.3030
18131TIP3   OH275883   1.930   3.291  13.623 -0.3045 -0.2639  0.4091
18131TIP3    H175884   1.900   3.258  13.707 -1.8189  2.0103  0.8415
18131TIP3    H275885   1.857   3.276  13.563 -0.5535  1.0690  0.3339
18132TIP3   OH275886   0.003   1.013  15.297 -0.8156 -0.1349 -0.3306
18132TIP3    H175887  -0.054   1.029  15.372  0.6220 -1.1147  1.0479
18132TIP3    H275888   0.057   0.938  15.324 -1.2568 -1.5114 -2.9418
18133TIP3   OH275889   1.365   4.727  15.827  0.2400  0.5021  0.6153
18133TIP3    H175890   1.403   4.732  15.739 -0.5176  2.7268  0.3295
18133TIP3    H275891   1.328   4.639  15.833 -0.2445  0.4969 -1.5490
18134TIP3   OH275892   1.407   5.582   5.825 -0.6504  0.3712 -0.1077
18134TIP3    H175893   1.435   5.669   5.796 -0.4762  0.7454  1.1567
18134TIP3    H275894   1.448   5.570   5.910 -2.7298  0.1226  0.9062
18135TIP3   OH275895   2.263   6.335  12.597 -0.4820 -0.0865  0.0984
18135TIP3    H175896   2.292   6.417  12.558  0.5946 -0.3518  0.3048
18135TIP3    H275897   2.200   6.361  12.665 -1.7582  0.4207 -1.2164
18136TIP3   OH275898   0.222   1.924  16.462 -0.4174 -0.5127  0.4800
18136TIP3    H175899   0.291   1.955  16.520  0.3418 -0.9907 -0.1423
18136TIP3    H275900   0.157   1.994  16.462  1.2179  1.1274 -0.8591
18137TIP3   OH275901   4.141   0.025   5.694 -0.2335 -0.6216 -0.0744
18137TIP3    H175902   4.106   0.036   5.782 -0.9507 -1.7270 -0.1939
18137TIP3    H275903   4.066   0.044   5.637  0.0812 -0.4454 -0.4341
18138TIP3   OH275904   6.476   1.156  16.116 -0.7506  0.7079  0.2777
18138TIP3    H175905   6.403   1.127  16.171 -0.2553 -0.8291  0.1821
18138TIP3    H275906   6.554   1.128  16.163 -0.2047  2.2103  0.3084
18139TIP3   OH275907   6.458   6.820  12.220  0.8857  0.2936  0.2281
18139TIP3    H175908   6.518   6.884  12.182  2.2968 -0.2014  1.5295
18139TIP3    H275909   6.407   6.788  12.145  0.3885  2.6234 -0.5046
18140TIP3   OH275910   0.226   1.853   4.503 -0.3201  1.0008  0.1758
18140TIP3    H175911   0.198   1.944   4.516 -0.1599  0.8870  1.4171
18140TIP3    H275912   0.289   1.837   4.573  1.3173  0.5917 -1.3263
18141TIP3   OH275913   5.645   6.107   1.253 -0.2452  0.2833 -0.3512
18141TIP3    H175914   5.657   6.112   1.158  3.5087 -0.5329 -0.0643
18141TIP3    H275915   5.655   6.014   1.273 -1.6242  0.3523  0.8473
18142TIP3   OH275916   4.499   2.153  13.231 -0.3068  0.1892  1.3701
18142TIP3    H175917   4.420   2.200  13.258 -0.2952  0.1407  1.4858
18142TIP3    H275918   4.566   2.221  13.225 -0.4366  0.2862  0.9458
18143TIP3   OH275919   5.718   2.773   0.219 -0.1450  0.5433 -0.0603
18143TIP3    H175920   5.638   2.802   0.263 -1.1870 -1.3392 -0.6609
18143TIP3    H275921   5.787   2.791   0.284 -0.8911  2.7795  0.2264
18144TIP3   OH275922   6.756   6.065  11.646 -0.1125  0.2934  0.2256
18144TIP3    H175923   6.680   6.007  11.639 -0.5116  0.9972 -2.0215
18144TIP3    H275924   6.772   6.095  11.557  3.2213 -0.3000  0.4682
18145TIP3   OH275925   0.774   2.815  12.456  0.3670 -0.4191  0.4151
18145TIP3    H175926   0.761   2.801  12.550 -0.1715 -0.9175  0.2715
18145TIP3    H275927   0.745   2.905  12.442  1.8167  0.1702  0.9677
18146TIP3   OH275928   1.375   0.336  15.493  0.1817  0.1097  0.8335
18146TIP3    H175929   1.282   0.313  15.497  0.1743 -0.3287 -1.1634
18146TIP3    H275930   1.421   0.254  15.508  0.2081 -0.1223 -0.4457
18147TIP3   OH275931   6.117   1.388  10.809  0.3853 -0.1396  0.7472
18147TIP3    H175932   6.133   1.420  10.720 -0.0923  0.1055  0.7463
18147TIP3    H275933   6.201   1.351  10.836  1.8438  3.4178  1.7123
18148TIP3   OH275934   4.627   2.893   2.630  0.0925 -0.5954 -0.2877
18148TIP3    H175935   4.604   2.857   2.716 -0.4279  0.5344  0.0552
18148TIP3    H275936   4.715   2.928   2.641 -0.4566  0.6760  0.1474
18149TIP3   OH275937   4.529   2.790   1.519 -0.0802 -0.2695 -0.6454
18149TIP3    H175938   4.558   2.727   1.453  1.6488 -1.4047  1.1011
18149TIP3    H275939   4.491   2.737   1.588  0.1192  0.7185  0.2489
18150TIP3   OH275940   2.951   3.763  14.858  0.4730 -0.4632 -0.6077
18150TIP3    H175941   2.945   3.827  14.929  0.1822 -0.2605 -0.8115
18150TIP3    H275942   2.943   3.815  14.778  0.4883 -0.7270 -0.7818
18151TIP3   OH275943   5.241   0.489   0.601 -0.4457 -0.4132  0.0786
18151TIP3    H175944   5.181   0.542   0.653 -0.5569 -0.1624 -0.2998
18151TIP3    H275945   5.266   0.417   0.659 -2.2136 -1.3138 -0.2130
18152TIP3   OH275946   2.750   5.750   0.411 -0.4483 -0.3025 -0.1391
18152TIP3    H175947   2.711   5.695   0.479 -0.5201 -2.2588 -1.6616
18152TIP3    H275948   2.750   5.694   0.333  1.2671  1.2317 -1.3069
18153TIP3   OH275949   2.031   2.261   3.638  0.2465 -0.4091  0.0367
18153TIP3    H175950   2.104   2.259   3.701  1.5051  0.6286 -1.3193
18153TIP3    H275951   2.074   2.262   3.553 -1.2851  2.1776 -0.7980
18154TIP3   OH275952   5.053   2.114   4.307  0.0263 -0.1120 -0.0038
18154TIP3    H175953   5.091   2.062   4.378 -1.0667 -0.4325  0.3671
18154TIP3    H275954   4.983   2.058   4.272 -0.9443  0.9700  0.1784
18155TIP3   OH275955   6.328   1.547  16.665 -0.0717  0.6327  0.1062
18155TIP3    H175956   6.321   1.643  16.666  0.0599  0.6393  1.2231
18155TIP3    H275957   6.422   1.530  16.660 -0.1095  0.5555 -0.3914
18156TIP3   OH275958   6.647   3.039   4.002  0.2576 -0.3964  0.2276
18156TIP3    H175959   6.737   3.008   3.995  0.5544  0.3457  0.6325
18156TIP3    H275960   6.640   3.109   3.937  0.0154 -0.3445  0.3069
18157TIP3   OH275961   0.682   6.090  16.287 -0.0520  0.4797 -0.2935
18157TIP3    H175962   0.616   6.153  16.255 -2.9516 -0.8117  2.5504
18157TIP3    H275963   0.731   6.139  16.354  2.5010  1.6129 -2.7872
18158TIP3   OH275964   0.901   0.327   4.941  0.3308 -0.0476  0.4660
18158TIP3    H175965   0.929   0.258   5.001  1.7840 -0.3252 -0.4899
18158TIP3    H275966   0.820   0.293   4.901  0.0663 -0.4130  1.2910
18159TIP3   OH275967   3.283   5.890   2.649  0.0661  0.0162  0.0606
18159TIP3    H175968   3.212   5.888   2.585  0.0498 -0.0225  0.0800
18159TIP3    H275969   3.346   5.953   2.613 -1.2670  2.2280  1.4185
18160TIP3   OH275970   4.238   0.560   5.222 -0.0410 -0.2225 -0.4765
18160TIP3    H175971   4.318   0.581   5.173 -0.6058 -0.6702 -1.6484
18160TIP3    H275972   4.202   0.484   5.176 -0.1578 -1.2175  1.2025
18161TIP3   OH275973   6.432   3.105   6.401  0.6169 -0.0717 -0.2074
18161TIP3    H175974   6.347   3.119   6.441  1.7489  1.2578  1.9410
18161TIP3    H275975   6.494   3.144   6.463  2.6713  0.4353 -2.4282
18162TIP3   OH275976   1.606   1.766   5.679 -0.4024  0.5410 -0.2954
18162TIP3    H175977   1.618   1.789   5.587 -0.7103 -1.5926 -0.9057
18162TIP3    H275978   1.514   1.784   5.697 -0.4423  0.5446 -0.5088
18163TIP3   OH275979   1.254   6.143   5.966 -0.1593  0.0663 -0.2509
18163TIP3    H175980   1.232   6.072   6.026 -1.3171 -0.4559 -1.2288
18163TIP3    H275981   1.264   6.099   5.881 -0.3843  0.9960 -0.7680
18164TIP3   OH275982   0.326   1.664  11.715 -0.1521 -0.8097  0.3764
18164TIP3    H175983   0.294   1.617  11.638  0.4476 -0.5574 -0.0442
18164TIP3    H275984   0.416   1.633  11.726  0.1362 -0.0467  0.2999
18165TIP3   OH275985   2.111   4.758   0.917  0.3386  0.3771 -0.3013
18165TIP3    H175986   2.042   4.716   0.968  0.2780  0.8436  0.0097
18165TIP3    H275987   2.072   4.773   0.831  0.3112 -0.0633 -0.3650
18166TIP3   OH275988   2.424   0.824  16.591 -0.3379  0.0764 -0.3733
18166TIP3    H175989   2.468   0.746  16.558  0.2052  0.2742 -0.1288
18166TIP3    H275990   2.332   0.798  16.598  0.0438 -1.0032  1.0465
18167TIP3   OH275991   0.297   5.139  12.171  0.0409  0.0111 -0.1415
18167TIP3    H175992   0.297   5.200  12.097 -1.2321  0.9211  0.5716
18167TIP3    H275993   0.261   5.190  12.244  0.1958 -1.2050  0.8106
18168TIP3   OH275994   3.769   1.863   5.059 -0.5385 -0.1715  0.4217
18168TIP3    H175995   3.680   1.842   5.033 -0.1764  0.4998 -1.4856
18168TIP3    H275996   3.788   1.946   5.016  1.8201 -1.4700 -1.2805
18169TIP3   OH275997   5.709   0.830   0.709 -0.1914 -0.5396 -0.2789
18169TIP3    H175998   5.680   0.792   0.792  2.7119 -0.4214  0.9230
18169TIP3    H275999   5.761   0.760   0.669  0.3571  0.1884 -0.8556
18170TIP3   OH276000   0.653   4.956  11.680 -0.0372 -0.0735 -0.2061
18170TIP3    H176001   0.691   4.958  11.768  0.3986 -0.2345 -0.3879
18170TIP3    H276002   0.599   4.877  11.679 -0.9666  0.5384  0.2900
18171TIP3   OH276003   5.259   1.564   2.870 -0.1133 -0.6393 -0.2319
18171TIP3    H176004   5.190   1.584   2.933 -1.3891  0.4116 -1.8906
18171TIP3    H276005   5.247   1.470   2.852  1.3899 -1.4011  2.3124
18172TIP3   OH276006   0.187   3.386  11.165  0.7010 -0.5586 -0.1841
18172TIP3    H176007   0.141   3.330  11.102  0.7667 -1.4100  0.5077
18172TIP3    H276008   0.118   3.436  11.207  0.3207 -2.0206  1.0360
18173TIP3   OH276009   3.065   3.678  13.067 -0.4320 -0.3468  0.3920
18173TIP3    H176010   3.135   3.724  13.114  0.7251 -0.7176 -0.9316
18173TIP3    H276011   3.019   3.629  13.135  0.8094 -0.3756  1.2420
18174TIP3   OH276012   6.031   1.559  14.162  0.1479  0.2082  0.2373
18174TIP3    H176013   6.032   1.463  14.167  1.0097  0.2107  0.2501
18174TIP3    H276014   6.110   1.586  14.208 -1.1629  1.0398  2.1057
18175TIP3   OH276015   4.180   5.517   5.696 -0.4083  0.0553  0.0571
18175TIP3    H176016   4.120   5.443   5.707  0.8132 -1.0158 -0.1684
18175TIP3    H276017   4.165   5.572   5.773 -1.3605 -0.4075  0.2195
18176TIP3   OH276018   6.270   3.349   5.785 -0.5367  0.3440 -0.3079
18176TIP3    H176019   6.191   3.308   5.820  0.5899 -1.6219  0.0619
18176TIP3    H276020   6.241   3.435   5.755 -2.6987 -0.1250  0.2764
18177TIP3   OH276021   2.473   0.609  15.367 -0.1754 -0.0712  0.1267
18177TIP3    H176022   2.492   0.644  15.454  1.1765  0.3081 -0.2998
18177TIP3    H276023   2.444   0.685  15.316  0.8091  0.0763 -0.2418
18178TIP3   OH276024   5.831   2.173   0.848 -0.4377  0.0282 -0.3122
18178TIP3    H176025   5.798   2.092   0.886 -0.8165  0.4340  0.2314
18178TIP3    H276026   5.805   2.168   0.756  1.4965 -1.4901 -0.8439
18179TIP3   OH276027   5.659   4.902  14.731  0.1329  0.3876 -0.2198
18179TIP3    H176028   5.735   4.848  14.709  1.0753  0.7724  1.8579
18179TIP3    H276029   5.591   4.840  14.754  1.1749  0.0046  2.0513
18180TIP3   OH276030   5.179   1.159   1.669  0.2134  0.0213  0.1596
18180TIP3    H176031   5.095   1.204   1.660  0.9582  1.2380 -1.1857
18180TIP3    H276032   5.197   1.160   1.763 -1.1578 -0.0507  0.4411
18181TIP3   OH276033   3.561   1.125  16.960  0.4301 -0.0053 -0.0073
18181TIP3    H176034   3.607   1.043  16.979  1.3667  0.4649 -0.2045
18181TIP3    H276035   3.618   1.171  16.897  0.7841  1.5617  1.3860
18182TIP3   OH276036   5.432   4.428   5.589 -0.1905  0.2115 -0.8648
18182TIP3    H176037   5.492   4.381   5.647  1.0274  0.8261 -1.5789
18182TIP3    H276038   5.345   4.407   5.622  0.4447  0.4231  1.0945
18183TIP3   OH276039   3.577   4.195  11.061  0.0126  0.1505  0.5323
18183TIP3    H176040   3.609   4.266  11.005 -1.4431 -0.0553 -0.6194
18183TIP3    H276041   3.487   4.219  11.081  0.0074 -0.5915  1.4855
18184TIP3   OH276042   2.727   0.439  10.674 -0.3655 -0.1049 -0.2013
18184TIP3    H176043   2.756   0.529  10.685  1.7431 -0.6635 -0.6651
18184TIP3    H276044   2.642   0.435  10.718 -0.3363  1.9968  0.1294
18185TIP3   OH276045   2.458   2.158  15.018 -0.0564 -0.1770 -0.3876
18185TIP3    H176046   2.476   2.082  15.074 -3.4299 -0.6256  0.2996
18185TIP3    H276047   2.405   2.216  15.072 -1.5679  0.4033 -2.3837
18186TIP3   OH276048   4.413   4.244  11.135  0.0863  0.9922 -0.3262
18186TIP3    H176049   4.426   4.324  11.085  0.3604  0.4376 -1.1569
18186TIP3    H276050   4.487   4.188  11.113  0.6182  0.9972  1.2637
18187TIP3   OH276051   2.600   0.120   2.084 -0.1612 -0.6125  0.7500
18187TIP3    H176052   2.528   0.058   2.085  0.6765 -1.6056  2.0797
18187TIP3    H276053   2.676   0.069   2.111  1.4669 -0.0642 -2.3648
18188TIP3   OH276054   6.062   6.731  11.254 -0.3971 -0.4837 -0.5125
18188TIP3    H176055   6.123   6.754  11.183  0.8117  1.8695  1.1596
18188TIP3    H276056   6.105   6.659  11.300  1.0064  0.8578  0.3779
18189TIP3   OH276057   4.177   6.825  14.368 -0.1135 -0.5761  0.4536
18189TIP3    H176058   4.093   6.807  14.411 -1.4713 -0.4689 -1.9346
18189TIP3    H276059   4.164   6.911  14.327  1.4157 -0.2861  0.5219
18190TIP3   OH276060   4.512   6.519   0.706 -0.2235 -0.0558  0.3035
18190TIP3    H176061   4.576   6.589   0.701  0.4662 -0.7608 -1.3514
18190TIP3    H276062   4.434   6.554   0.664  0.2753 -0.4231 -0.9530
18191TIP3   OH276063   5.967   0.008  15.917  0.1504  0.1852 -0.2316
18191TIP3    H176064   6.035   0.046  15.861 -0.4844  1.3830 -0.2203
18191TIP3    H276065   5.905   0.079  15.931 -0.1146 -0.3267  1.3595
18192TIP3   OH276066   0.442   6.139  13.859 -0.0734  0.6677  0.8670
18192TIP3    H176067   0.409   6.223  13.891 -1.1781  1.0121 -1.0115
18192TIP3    H276068   0.455   6.153  13.765 -5.5916 -2.6508 -0.8737
18193TIP3   OH276069   4.110   0.167  15.547 -0.6240  0.0949  0.2912
18193TIP3    H176070   4.151   0.137  15.466 -0.4053  2.2798 -0.4994
18193TIP3    H276071   4.182   0.177  15.608 -0.6825 -0.8365  0.5149
18194TIP3   OH276072   4.263   6.287  14.632  0.0036 -0.3443  0.2271
18194TIP3    H176073   4.212   6.323  14.704 -0.1260  1.5413 -0.7501
18194TIP3    H276074   4.215   6.315  14.553  1.1764 -0.7052 -0.6350
18195TIP3   OH276075   5.132   6.053  16.877 -0.3236  0.3199 -0.7994
18195TIP3    H176076   5.126   6.057  16.972  0.9989  1.4880 -0.7242
18195TIP3    H276077   5.047   6.020  16.848 -0.1213 -1.8912  0.8651
18196TIP3   OH276078   6.446   1.251  13.357  0.0827  0.6285 -0.6050
18196TIP3    H176079   6.446   1.309  13.433 -0.9816 -0.6283  0.3970
18196TIP3    H276080   6.511   1.184  13.378 -1.4006 -0.6790  0.0045
18197TIP3   OH276081   4.369   3.116   3.970 -0.4145  0.1442 -0.6569
18197TIP3    H176082   4.459   3.138   3.948 -0.0716 -1.2049 -0.6919
18197TIP3    H276083   4.377   3.055   4.043 -1.3451  0.7032 -0.0654
18198TIP3   OH276084   4.666   1.197  10.761 -0.1325  0.7047  0.1558
18198TIP3    H176085   4.574   1.220  10.747 -0.8634 -1.6709  0.4700
18198TIP3    H276086   4.715   1.260  10.708 -2.1505 -0.2028 -3.1347
18199TIP3   OH276087   4.772   2.544   4.050 -0.4156  0.5039 -0.4404
18199TIP3    H176088   4.687   2.501   4.059 -1.3843  2.4495  0.3519
18199TIP3    H276089   4.778   2.565   3.957 -1.1435  0.9834 -0.3866
18200TIP3   OH276090   0.022   1.061  15.582 -0.1225  0.2306 -0.0450
18200TIP3    H176091   0.092   0.997  15.587  0.8467  1.1366 -1.2145
18200TIP3    H276092  -0.005   1.076  15.673  0.2495 -1.1265  0.3034
18201TIP3   OH276093   0.096   4.723  14.009  0.2588  0.1521 -0.0481
18201TIP3    H176094   0.084   4.661  14.081  0.9837  0.0361 -0.0165
18201TIP3    H276095   0.169   4.687  13.958  0.6630  0.9487 -0.0537
18202TIP3   OH276096   4.243   4.150  16.990 -0.9367  0.1154  0.0232
18202TIP3    H176097   4.178   4.164  16.920  0.5392  0.9152 -1.2528
18202TIP3    H276098   4.253   4.055  16.994 -3.4354 -0.1750  1.4958
18203TIP3   OH276099   4.815   0.198  14.986 -0.3781  0.2657 -0.2781
18203TIP3    H176100   4.777   0.233  14.905 -2.0385  0.1193  0.3935
18203TIP3    H276101   4.856   0.274  15.028 -0.0487  0.4646 -0.9524
18204TIP3   OH276102   1.644   3.068   1.981  0.5624 -0.5424  0.5227
18204TIP3    H176103   1.701   3.073   2.058 -0.6144 -2.7241  1.6299
18204TIP3    H276104   1.575   3.132   1.998  1.4947  0.6065  0.1577
18205TIP3   OH276105   6.289   5.483  11.414  0.4974  0.4387  0.4692
18205TIP3    H176106   6.363   5.432  11.382 -0.3467 -0.1670 -0.5682
18205TIP3    H276107   6.214   5.451  11.364 -0.1032  2.5495 -0.0723
18206TIP3   OH276108   4.325   5.849  15.094  0.2632 -0.6480 -0.2357
18206TIP3    H176109   4.420   5.845  15.110  0.1464 -1.9857  0.2554
18206TIP3    H276110   4.293   5.913  15.158  0.9857  0.8544 -1.3186
18207TIP3   OH276111   6.252   2.585  15.744  0.2875 -0.2933 -0.6858
18207TIP3    H176112   6.177   2.644  15.742  0.0218 -0.6165 -0.3596
18207TIP3    H276113   6.304   2.613  15.819 -1.0953 -1.9773  1.0063
18208TIP3   OH276114   5.890   4.202  14.588  0.2976 -0.3972  0.1553
18208TIP3    H176115   5.974   4.230  14.552 -0.5178 -1.8265 -3.2431
18208TIP3    H276116   5.867   4.271  14.650  2.6795  1.4440 -0.8210
18209TIP3   OH276117   2.300   3.095   3.494  0.5113  0.7215 -0.0519
18209TIP3    H176118   2.333   3.183   3.513  0.1099  1.1539 -1.2873
18209TIP3    H276119   2.249   3.105   3.414 -1.2918 -0.2408  0.9226
18210TIP3   OH276120   2.478   5.170  11.703 -0.7840 -0.2001 -0.1992
18210TIP3    H176121   2.524   5.121  11.772 -0.2453 -0.2498 -0.5864
18210TIP3    H276122   2.457   5.254  11.743 -1.6393 -0.7022  0.4479
18211TIP3   OH276123   1.953   3.439   2.573  0.0531 -0.1877 -0.1170
18211TIP3    H176124   1.957   3.420   2.667 -0.3218  0.8374  0.1092
18211TIP3    H276125   2.037   3.406   2.539  0.0503 -0.8677  0.5056
18212TIP3   OH276126   1.509   0.810  16.914 -0.0920 -0.1263  0.6360
18212TIP3    H176127   1.429   0.834  16.961 -0.2979  0.5027 -0.0100
18212TIP3    H276128   1.483   0.735  16.859 -0.5956  0.8518 -0.5094
18213TIP3   OH276129   2.958   6.366  16.811 -0.2792  0.3064  0.1542
18213TIP3    H176130   3.009   6.415  16.876 -2.1874  1.8881  0.5616
18213TIP3    H276131   2.949   6.427  16.737 -1.2439 -0.0728 -0.0568
18214TIP3   OH276132   2.804   0.099  12.591  0.4043  0.3999 -0.3610
18214TIP3    H176133   2.828   0.012  12.625 -1.1007 -0.0123 -0.2861
18214TIP3    H276134   2.831   0.160  12.660  1.7470  0.0508 -0.5385
18215TIP3   OH276135   5.166   1.022   6.207  0.9084 -0.4867  0.4846
18215TIP3    H176136   5.241   1.047   6.260 -0.6203  0.9167  2.1229
18215TIP3    H276137   5.103   0.985   6.269 -0.2095 -0.5936 -0.6542
18216TIP3   OH276138   0.462   3.628  12.651 -0.0590  0.5590 -0.1158
18216TIP3    H176139   0.550   3.662  12.639 -0.3057  1.1735 -0.2351
18216TIP3    H276140   0.406   3.705  12.649 -0.4905  0.3160  1.1705
18217TIP3   OH276141   3.367   4.465   2.217 -0.5672  0.0853  0.3167
18217TIP3    H176142   3.422   4.542   2.202 -3.3502  2.2332  0.0980
18217TIP3    H276143   3.375   4.448   2.311  0.7908  0.0282  0.2030
18218TIP3   OH276144   5.936   6.394  13.400 -0.3097  0.0317 -0.5538
18218TIP3    H176145   5.980   6.445  13.332  2.4841  1.0336  1.8174
18218TIP3    H276146   5.932   6.305  13.364  2.2798  0.2292 -1.5719
18219TIP3   OH276147   0.649   3.752  11.355  0.0977  0.2795 -0.2920
18219TIP3    H176148   0.710   3.750  11.429 -1.6524  1.0234  1.2717
18219TIP3    H276149   0.617   3.663  11.348  0.4219  0.1618 -0.2812
18220TIP3   OH276150   1.528   5.148   0.361  0.1600  0.7856 -0.0703
18220TIP3    H176151   1.593   5.127   0.428 -0.8277  1.9022  1.3258
18220TIP3    H276152   1.530   5.244   0.355 -0.7711  0.7828 -0.5903
18221TIP3   OH276153   6.236   5.402   1.488 -0.0379  0.1650  0.4953
18221TIP3    H176154   6.242   5.314   1.451  1.0388 -0.1960  1.4714
18221TIP3    H276155   6.142   5.417   1.499 -0.2643 -0.5733 -0.3425
18222TIP3   OH276156   0.727   2.471   2.943 -0.1860 -0.4683 -0.1817
18222TIP3    H176157   0.760   2.391   2.904 -1.9628 -1.0726 -0.5495
18222TIP3    H276158   0.773   2.541   2.898  0.5987 -1.2505 -0.6155
18223TIP3   OH276159   0.625   3.756   4.451 -0.1550 -0.3532 -0.0714
18223TIP3    H176160   0.679   3.817   4.502  2.1178 -1.2790 -1.2092
18223TIP3    H276161   0.688   3.707   4.398 -1.9110 -3.4577  0.5053
18224TIP3   OH276162   0.336   1.236  16.816  0.1110  0.4623 -0.2228
18224TIP3    H176163   0.302   1.148  16.800 -3.4733  1.6269 -0.0612
18224TIP3    H276164   0.282   1.292  16.759  1.1318  2.7099  0.9121
18225TIP3   OH276165   3.308   1.151   5.637 -0.7310 -0.1006 -0.0507
18225TIP3    H176166   3.384   1.204   5.612  0.3425 -1.7501 -0.4481
18225TIP3    H276167   3.319   1.070   5.588 -2.0809 -0.8721  0.8799
18226TIP3   OH276168   6.659   0.160  11.315  0.4148  0.4110 -0.4092
18226TIP3    H176169   6.754   0.153  11.323  0.3065  0.3330  1.2952
18226TIP3    H276170   6.631   0.192  11.401 -1.2000 -0.7751 -0.4455
18227TIP3   OH276171   6.195   0.910   4.816 -0.2106 -0.4311 -0.4877
18227TIP3    H176172   6.259   0.978   4.799  0.4166 -0.6933  0.7227
18227TIP3    H276173   6.114   0.957   4.834  0.5341  0.1452  1.8165
18228TIP3   OH276174   5.149   2.854   2.657  0.1785 -0.1883 -0.2753
18228TIP3    H176175   5.183   2.860   2.568 -0.6858  0.4561 -0.5749
18228TIP3    H276176   5.226   2.838   2.711  0.6016 -1.6566 -1.2445
18229TIP3   OH276177   5.120   6.158   0.574  0.2463 -0.3483 -0.3902
18229TIP3    H176178   5.104   6.077   0.623 -0.9235 -0.3625 -0.7623
18229TIP3    H276179   5.185   6.205   0.626  1.8571 -2.0498 -0.7713
18230TIP3   OH276180   6.724   5.905  14.845 -0.0889  0.5666  0.0594
18230TIP3    H176181   6.673   5.845  14.900  0.8109 -0.8762 -0.6103
18230TIP3    H276182   6.804   5.857  14.825  0.5660  1.9210 -0.7128
18231TIP3   OH276183   3.208   1.177  10.148  0.9657 -0.1827 -0.2827
18231TIP3    H176184   3.155   1.208  10.221 -1.0918 -0.5440 -1.5247
18231TIP3    H276185   3.279   1.240  10.141 -0.1864  1.2583  0.5045
18232TIP3   OH276186   6.251   4.936  13.577 -0.0120  0.8555  0.5583
18232TIP3    H176187   6.263   4.878  13.652  0.5158  0.3697  0.1120
18232TIP3    H276188   6.325   4.916  13.519 -0.0172  1.7281  0.2372
18233TIP3   OH276189   3.290   5.014   5.069  0.2263 -0.8880 -1.3460
18233TIP3    H176190   3.247   4.997   5.152  1.8923 -0.9053 -0.4558
18233TIP3    H276191   3.356   4.945   5.060  0.6140 -0.4228 -2.2910
18234TIP3   OH276192   4.970   1.083  13.359  0.6689 -0.4691 -0.8179
18234TIP3    H176193   4.942   1.064  13.269  1.4555  1.1258 -1.4407
18234TIP3    H276194   5.020   1.006  13.385 -0.7958 -1.5927 -1.1791
18235TIP3   OH276195   2.876   0.931   5.269 -0.8543  0.1812  0.1643
18235TIP3    H176196   2.819   0.963   5.339 -1.1520 -1.5202  0.7387
18235TIP3    H276197   2.962   0.924   5.309 -0.2502  2.3420 -0.5913
18236TIP3   OH276198   2.937   6.478  15.949  0.0548 -0.3916 -0.4967
18236TIP3    H176199   2.933   6.541  15.877  1.8038  0.2355 -0.1145
18236TIP3    H276200   3.016   6.427  15.932  0.1054 -0.7077  0.5886
18237TIP3   OH276201   3.721   0.027  10.758  0.1692 -0.3650  0.0666
18237TIP3    H176202   3.656   0.096  10.747 -1.3676 -1.8018 -0.3768
18237TIP3    H276203   3.727   0.014  10.852  1.1072  0.9018  0.2106
18238TIP3   OH276204   3.745   0.031  14.686 -0.0793  0.0467  0.4930
18238TIP3    H176205   3.677   0.085  14.645  0.9832  1.9259  1.0882
18238TIP3    H276206   3.703  -0.054  14.701 -1.4936  0.3411 -1.4510
18239TIP3   OH276207   1.882   5.883   0.460 -0.3268  0.3360 -0.2615
18239TIP3    H176208   1.945   5.863   0.391  1.9953  0.6241  1.6415
18239TIP3    H276209   1.904   5.823   0.531 -2.1603  0.5407  0.5351
18240TIP3   OH276210   0.521   0.348  12.018 -0.6695 -0.6229  0.3877
18240TIP3    H176211   0.572   0.375  12.094 -1.5226 -0.4176  0.8932
18240TIP3    H276212   0.572   0.379  11.943 -0.1898 -0.1788  0.8876
18241TIP3   OH276213   2.950   4.916  14.320 -0.4362  0.1915  0.3161
18241TIP3    H176214   3.020   4.856  14.344 -0.2810 -0.1836 -1.0124
18241TIP3    H276215   2.988   5.003  14.331 -0.4259  0.0508  1.5268
18242TIP3   OH276216   5.408   6.015  15.517  0.4178 -0.1044  0.0147
18242TIP3    H176217   5.355   5.939  15.494  0.3007  0.0844 -0.3332
18242TIP3    H276218   5.408   6.070  15.439 -0.0887  0.5961  0.4861
18243TIP3   OH276219   5.359   5.123  13.305 -0.2967  0.0205 -0.6660
18243TIP3    H176220   5.401   5.111  13.220 -0.7445  0.0620 -0.8985
18243TIP3    H276221   5.431   5.133  13.367  0.0842 -1.8196 -0.7609
18244TIP3   OH276222   4.000   2.914  15.219 -0.0980  1.2039 -0.0900
18244TIP3    H176223   4.034   2.927  15.308 -1.9014 -1.0480  1.0371
18244TIP3    H276224   3.921   2.968  15.216 -0.5501  0.5536  0.0198
18245TIP3   OH276225   5.261   6.780  13.360  0.1471 -0.2780 -0.3403
18245TIP3    H176226   5.211   6.860  13.372  1.2148  0.4118 -0.3108
18245TIP3    H276227   5.276   6.775  13.266  2.1534  0.9078 -0.1397
18246TIP3   OH276228   1.841   4.900   2.610  0.1640  0.6651  0.0359
18246TIP3    H176229   1.796   4.947   2.541  1.0560 -0.3248 -1.2674
18246TIP3    H276230   1.934   4.908   2.589  0.3637 -1.5636 -0.2178
18247TIP3   OH276231   6.238   1.342  16.783 -0.3554  0.2795  0.0868
18247TIP3    H176232   6.277   1.403  16.720 -0.3541 -0.3891 -0.5786
18247TIP3    H276233   6.290   1.353  16.862  1.4288 -0.7986 -0.8623
18248TIP3   OH276234   3.016   5.838  11.179  0.1571  0.2184  0.3922
18248TIP3    H176235   3.048   5.793  11.257 -1.9780 -1.4545  0.4011
18248TIP3    H276236   3.081   5.819  11.112  1.1870  0.3050  1.3247
18249TIP3   OH276237   1.808   2.289   2.307 -0.7084 -0.0573  0.3225
18249TIP3    H176238   1.730   2.315   2.355 -0.1000  0.2805  1.1505
18249TIP3    H276239   1.858   2.370   2.297 -0.1436 -0.3917  0.4055
18250TIP3   OH276240   0.620   3.798  15.943  0.3528 -0.1945  0.2578
18250TIP3    H176241   0.611   3.839  16.029  0.5538 -0.8113  0.5777
18250TIP3    H276242   0.713   3.809  15.922  0.2773  0.0700  0.0595
18251TIP3   OH276243   3.269   0.296   0.553  0.5386  0.9969 -0.3998
18251TIP3    H176244   3.286   0.278   0.461 -0.8597 -2.2220 -0.1547
18251TIP3    H276245   3.218   0.377   0.552  1.3447  1.5505 -2.3336
18252TIP3   OH276246   3.567   1.625  15.804 -0.4102 -0.7151  0.1654
18252TIP3    H176247   3.570   1.674  15.886  0.1327 -0.0152 -0.2523
18252TIP3    H276248   3.508   1.675  15.748  0.9281  0.0570 -0.6116
18253TIP3   OH276249   1.362   2.835   5.137 -0.0070  0.0166 -0.2144
18253TIP3    H176250   1.399   2.918   5.168  0.1230 -0.1797  0.1674
18253TIP3    H276251   1.267   2.846   5.147  0.0175  0.0687 -0.0320
18254TIP3   OH276252   1.598   3.855  12.065  0.1533  0.3068  0.3853
18254TIP3    H176253   1.647   3.811  12.135 -0.1099 -1.4098 -0.4475
18254TIP3    H276254   1.527   3.795  12.045 -0.5914  1.4312 -0.4142
18255TIP3   OH276255   1.657   3.299  14.018 -0.5491  0.4119  0.0902
18255TIP3    H176256   1.716   3.237  14.061 -0.0570  1.0409  0.3256
18255TIP3    H276257   1.690   3.385  14.042  0.8364  0.8646 -2.9094
18256TIP3   OH276258   3.313   6.368  11.251  0.1823  0.1428 -0.7841
18256TIP3    H176259   3.392   6.403  11.211  0.4031  1.0037  0.3766
18256TIP3    H276260   3.320   6.391  11.343 -2.2424  1.8472 -0.9261
18257TIP3   OH276261   3.990   6.264  14.519  0.2994  0.1475  0.1213
18257TIP3    H176262   3.921   6.209  14.558  0.4366 -0.6346 -0.7019
18257TIP3    H276263   4.045   6.202  14.472  1.2521  0.8474  0.3058
18258TIP3   OH276264   0.517   5.680   1.061 -0.4242  0.1476  0.5466
18258TIP3    H176265   0.432   5.657   1.025 -0.0130  0.0442 -0.3894
18258TIP3    H276266   0.566   5.715   0.986 -0.9881  4.1020  1.7729
18259TIP3   OH276267   3.502   5.595   3.740  0.1499  0.2316 -0.0932
18259TIP3    H176268   3.500   5.648   3.820 -0.3888 -0.9463  0.7034
18259TIP3    H276269   3.535   5.510   3.768 -0.0359 -0.1969 -1.1311
18260TIP3   OH276270   0.489   6.147  11.628  0.1836  0.0209 -0.0414
18260TIP3    H176271   0.511   6.171  11.538 -1.1911  0.3702 -0.3039
18260TIP3    H276272   0.395   6.163  11.635  0.0778 -0.9714  1.1567
18261TIP3   OH276273   6.801   0.047   4.209  0.1245 -0.6677 -0.7651
18261TIP3    H176274   6.756   0.130   4.229  0.1966 -0.4320 -1.5477
18261TIP3    H276275   6.831   0.057   4.119  0.0884 -1.5760 -0.8867
18262TIP3   OH276276   6.056   2.691  12.695  0.1000  0.5930  0.5312
18262TIP3    H176277   6.128   2.749  12.722  1.2147  1.3929 -3.4762
18262TIP3    H276278   5.977   2.738  12.720  0.9641  1.1723  2.2907
18263TIP3   OH276279   1.323   1.169  13.113  0.1130  0.2485  0.6097
18263TIP3    H176280   1.286   1.254  13.136 -0.1864  0.2388  0.1882
18263TIP3    H276281   1.247   1.110  13.112  0.5411 -0.4052  2.5562
18264TIP3   OH276282   6.351   2.260   4.501 -0.1489  0.0141 -0.0756
18264TIP3    H176283   6.440   2.228   4.491 -0.6605 -1.3307 -0.5445
18264TIP3    H276284   6.296   2.181   4.498 -1.1501  0.4007  3.2711
18265TIP3   OH276285   4.330   0.686   2.260 -0.1711  0.1608  0.4328
18265TIP3    H176286   4.377   0.761   2.297  0.6907  0.2615 -0.8252
18265TIP3    H276287   4.253   0.725   2.218  0.2383  0.3422 -0.1572
18266TIP3   OH276288   1.919   1.419   5.292  0.8694  0.4627 -0.1373
18266TIP3    H176289   1.933   1.510   5.265  2.1994  0.8927  1.8575
18266TIP3    H276290   1.992   1.399   5.350 -0.2806 -1.3550  0.7643
18267TIP3   OH276291   5.087   6.425   3.273  0.1405 -0.0695 -0.6979
18267TIP3    H176292   5.166   6.472   3.246  0.1906 -1.0254 -2.3107
18267TIP3    H276293   5.118   6.338   3.298 -0.1054  0.3319  1.1767
18268TIP3   OH276294   5.987   5.038  14.443 -0.2701 -0.1648  0.3004
18268TIP3    H176295   5.909   5.093  14.451 -0.7623 -0.8501  0.2998
18268TIP3    H276296   6.029   5.043  14.529  0.4373  1.3029 -0.1146
18269TIP3   OH276297   1.957   2.389   5.388 -0.1624 -0.2192  0.2446
18269TIP3    H176298   2.008   2.315   5.422 -0.6913 -0.7946 -0.2048
18269TIP3    H276299   1.972   2.459   5.452 -0.9666 -1.2100  1.5710
18270TIP3   OH276300   1.292   2.929   4.135 -0.1709 -0.7786 -0.2888
18270TIP3    H176301   1.364   2.931   4.073 -0.8252 -1.7577 -1.1015
18270TIP3    H276302   1.259   2.840   4.131 -2.5626  0.0779 -1.2698
18271TIP3   OH276303   1.477   3.162   0.398 -0.2912 -0.2221 -0.5093
18271TIP3    H176304   1.516   3.104   0.333  1.0923  0.7180 -0.5390
18271TIP3    H276305   1.508   3.249   0.375 -0.7832  0.2894  0.6795
18272TIP3   OH276306   4.339   6.836   5.515  0.1594 -0.1600  0.0187
18272TIP3    H176307   4.265   6.856   5.573 -0.0748 -1.7243  0.2873
18272TIP3    H276308   4.407   6.898   5.541 -0.1942 -0.3528  1.4910
18273TIP3   OH276309   3.672   3.610  11.011  0.3709 -0.7127 -0.2482
18273TIP3    H176310   3.689   3.684  11.070  1.5530 -1.0699 -0.0988
18273TIP3    H276311   3.632   3.649  10.934  0.9969  0.1046 -0.1779
18274TIP3   OH276312   1.281   4.059  16.788 -0.0176 -0.4143  0.5862
18274TIP3    H176313   1.261   4.071  16.881  2.6702  1.1895  1.0806
18274TIP3    H276314   1.333   4.136  16.765 -0.4195 -0.8736 -2.2386
18275TIP3   OH276315   5.859   3.963  13.466 -0.5380  0.4578  0.4695
18275TIP3    H176316   5.793   3.896  13.445 -0.8424  0.8278  0.2307
18275TIP3    H276317   5.933   3.913  13.501  0.3665 -0.3354 -2.2984
18276TIP3   OH276318   4.402   4.341  15.184  0.5040  0.2984 -0.3819
18276TIP3    H176319   4.416   4.393  15.264 -0.6686  1.3160 -0.8021
18276TIP3    H276320   4.339   4.392  15.133  0.6837 -0.6893 -1.6437
18277TIP3   OH276321   2.163   1.383  15.563 -0.4378  0.1589  0.0615
18277TIP3    H176322   2.118   1.328  15.627  1.0956 -1.2259  0.0156
18277TIP3    H276323   2.116   1.367  15.481  0.5602 -1.9707 -0.1853
18278TIP3   OH276324   0.740   5.801   2.646 -0.4514 -0.0783 -0.3387
18278TIP3    H176325   0.798   5.862   2.599 -0.8691 -0.8976 -2.0156
18278TIP3    H276326   0.652   5.828   2.621 -0.7437  0.1069  0.8449
18279TIP3   OH276327   3.678   2.341  12.392 -0.5820  0.0551 -0.1990
18279TIP3    H176328   3.685   2.384  12.477 -1.0773 -1.0487  0.4286
18279TIP3    H276329   3.753   2.282  12.389 -0.5631  0.0940 -0.5326
18280TIP3   OH276330   2.752   0.985  14.305 -0.7090 -0.1045  0.0149
18280TIP3    H176331   2.733   0.897  14.273 -0.2417 -0.0355 -0.4566
18280TIP3    H276332   2.847   0.993  14.300 -0.8617  1.1194 -1.8271
18281TIP3   OH276333   4.577   1.034  16.034 -0.1710 -0.3073  0.1731
18281TIP3    H176334   4.654   1.065  16.081 -0.1159 -0.0269 -0.0949
18281TIP3    H276335   4.548   1.110  15.983 -0.4634 -0.4889  0.0631
18282TIP3   OH276336   2.765   5.917  11.185 -0.1591  0.2239 -0.0927
18282TIP3    H176337   2.737   5.825  11.185 -0.5372  0.3346  0.0418
18282TIP3    H276338   2.853   5.916  11.148 -0.0790 -0.2190  0.1040
18283TIP3   OH276339   6.450   1.609  13.345  0.7313 -0.1384  0.2849
18283TIP3    H176340   6.515   1.547  13.312  0.0818 -1.5094  1.4212
18283TIP3    H276341   6.407   1.642  13.267  1.3983 -0.8102 -0.3852
18284TIP3   OH276342   5.227   0.041   3.531 -0.3688 -0.0420 -0.0590
18284TIP3    H176343   5.176  -0.024   3.482 -0.7660  1.0776 -1.1818
18284TIP3    H276344   5.288   0.077   3.467  0.7787 -0.2469  0.8897
18285TIP3   OH276345   1.247   1.858  14.582  0.2377 -0.4139  0.6125
18285TIP3    H176346   1.311   1.927  14.561  0.9980 -1.0962  0.6400
18285TIP3    H276347   1.211   1.833  14.497  0.3364 -0.3419  0.5492
18286TIP3   OH276348   2.498   6.063   0.854 -0.4519 -0.5346  0.1384
18286TIP3    H176349   2.557   6.128   0.892 -1.6068  0.6010  0.0215
18286TIP3    H276350   2.474   6.008   0.929 -0.5862  0.0355  0.5209
18287TIP3   OH276351   4.522   6.117   1.617  0.2758 -0.2426 -0.5713
18287TIP3    H176352   4.517   6.196   1.671 -0.3925 -1.3619  1.0847
18287TIP3    H276353   4.555   6.147   1.533  1.0213  1.6311  0.3494
18288TIP3   OH276354   1.538   1.433   0.134 -0.4662  0.2457 -0.1406
18288TIP3    H176355   1.458   1.380   0.124  0.5958 -1.4357 -0.0853
18288TIP3    H276356   1.527   1.504   0.070 -2.1240  0.2393  0.0767
18289TIP3   OH276357   2.300   0.603  15.110  0.4130 -0.4874 -0.4872
18289TIP3    H176358   2.332   0.691  15.131  1.8778 -0.6507 -1.8712
18289TIP3    H276359   2.243   0.580  15.184  0.4442  1.3828  0.1720
18290TIP3   OH276360   2.162   4.401  13.625 -0.1755  0.1155  0.3271
18290TIP3    H176361   2.117   4.374  13.705 -1.4621  2.8506  0.6156
18290TIP3    H276362   2.253   4.413  13.652 -0.7884  2.0623  1.7171
18291TIP3   OH276363   5.724   1.841   2.792  0.0867 -0.2647  0.4298
18291TIP3    H176364   5.652   1.787   2.826 -0.6291 -0.3770 -1.1733
18291TIP3    H276365   5.681   1.918   2.756  0.6512 -0.7685 -1.4123
18292TIP3   OH276366   3.875   5.921  17.012  0.1569  0.0690  0.0623
18292TIP3    H176367   3.921   6.001  16.987  0.0717  0.5105  1.2575
18292TIP3    H276368   3.932   5.850  16.982  0.3641  0.5629 -0.7621
18293TIP3   OH276369   3.410   6.298   4.444 -0.0741  0.4342 -0.4445
18293TIP3    H176370   3.379   6.207   4.441 -0.6625  0.5660  0.7761
18293TIP3    H276371   3.505   6.290   4.447 -0.1349 -0.1866  0.2772
18294TIP3   OH276372   1.989   0.825  11.615 -0.0465  0.1750  0.1074
18294TIP3    H176373   1.930   0.769  11.666 -0.0447 -0.1778 -0.2700
18294TIP3    H276374   1.974   0.799  11.524 -0.4132  1.1537 -0.1182
18295TIP3   OH276375   2.230   3.293  15.249 -0.4787 -0.4715  0.4262
18295TIP3    H176376   2.147   3.290  15.201  0.1698  2.3837 -1.0804
18295TIP3    H276377   2.290   3.242  15.195 -0.1695  1.3454 -1.0410
18296TIP3   OH276378   3.302   5.148   3.068  0.2805 -0.3343  0.0849
18296TIP3    H176379   3.287   5.122   2.977 -0.4284  2.1697 -0.5683
18296TIP3    H276380   3.229   5.108   3.116 -1.2047  0.9598 -0.9928
18297TIP3   OH276381   4.667   2.384  16.935  0.1471 -0.5334 -0.3934
18297TIP3    H176382   4.636   2.377  16.844  1.0508 -1.5996 -0.6386
18297TIP3    H276383   4.720   2.463  16.936 -1.4934  0.6106 -0.2821
18298TIP3   OH276384   3.252   0.933   3.211 -0.3683  0.5056  0.0615
18298TIP3    H176385   3.192   0.993   3.254 -1.4209  0.5938 -1.4342
18298TIP3    H276386   3.277   0.979   3.131 -2.4701 -1.5741 -1.9489
18299TIP3   OH276387   2.010   3.415  13.265  0.3558 -0.1558  1.1315
18299TIP3    H176388   2.040   3.503  13.243  1.5505 -0.7568  0.2256
18299TIP3    H276389   1.928   3.405  13.216  0.5573  0.2219  0.7062
18300TIP3   OH276390   3.307   1.341  16.173 -0.3241 -0.4057 -0.6279
18300TIP3    H176391   3.381   1.341  16.113 -0.2267  3.2852 -0.7447
18300TIP3    H276392   3.231   1.319  16.119 -0.4139  3.8809 -2.6523
18301TIP3   OH276393   3.904   5.158  16.956  0.2497  0.3742 -0.7323
18301TIP3    H176394   3.887   5.250  16.939 -1.4252  0.4433  1.0426
18301TIP3    H276395   3.818   5.120  16.975  1.0566 -1.2639 -0.0873
18302TIP3   OH276396   6.726   6.493  11.959 -0.6356 -0.0387  0.5396
18302TIP3    H176397   6.665   6.439  12.008 -0.9397  0.4761  0.7359
18302TIP3    H276398   6.745   6.442  11.880  0.7647 -1.4083  1.6823
18303TIP3   OH276399   6.647   0.398   1.894  0.0716 -0.0449 -0.0345
18303TIP3    H176400   6.730   0.441   1.918 -0.1438  0.5698 -0.3590
18303TIP3    H276401   6.579   0.458   1.924 -0.2805 -0.7661  0.6503
18304TIP3   OH276402   6.606   4.295   2.686 -0.1876  0.3085 -0.6050
18304TIP3    H176403   6.630   4.354   2.758  3.0789 -1.6402  0.1284
18304TIP3    H276404   6.589   4.353   2.612 -0.6269  2.2489  0.9362
18305TIP3   OH276405   5.597   2.313   3.863  0.8778  0.1642 -0.4712
18305TIP3    H176406   5.586   2.404   3.890  1.7645  0.2034 -0.2096
18305TIP3    H276407   5.529   2.299   3.798 -0.1232  0.6163  0.4460
18306TIP3   OH276408   1.910   1.964   2.578 -0.4621  0.6094  0.2055
18306TIP3    H176409   1.843   1.987   2.514  1.5267  0.2194 -2.1611
18306TIP3    H276410   1.895   1.871   2.596 -0.3203  0.4070 -0.6697
18307TIP3   OH276411   0.192   6.168  15.152  0.1402 -0.5879  0.1748
18307TIP3    H176412   0.169   6.091  15.100 -0.7215 -0.5393  0.4672
18307TIP3    H276413   0.108   6.211  15.170  0.4135 -0.5740  1.5590
18308TIP3   OH276414   1.213   6.372  10.950 -0.3096 -0.4341  0.2151
18308TIP3    H176415   1.170   6.374  10.865 -1.5950 -1.2268  0.8190
18308TIP3    H276416   1.261   6.290  10.952  0.0600 -0.2258  0.1113
18309TIP3   OH276417   1.777   2.653  10.553 -0.0309 -0.6499  0.0574
18309TIP3    H176418   1.770   2.745  10.527 -1.8820 -0.2322  1.7551
18309TIP3    H276419   1.727   2.606  10.486  0.8186 -0.4271 -0.7507
18310TIP3   OH276420   1.743   1.471   3.871 -0.1527 -0.4261  0.0157
18310TIP3    H176421   1.832   1.493   3.897 -0.4790 -0.6733  1.4194
18310TIP3    H276422   1.753   1.405   3.802  0.7532 -0.9808  0.6596
18311TIP3   OH276423   3.176   1.060   2.197  0.0666 -0.6901 -0.3467
18311TIP3    H176424   3.262   1.047   2.237  0.0223 -0.0069 -0.0085
18311TIP3    H276425   3.151   1.149   2.224 -1.7778 -1.6960  1.5155
18312TIP3   OH276426   3.333   5.106  15.784 -0.1344 -0.0137  0.6425
18312TIP3    H176427   3.296   5.045  15.848 -0.2937 -0.6498 -0.0515
18312TIP3    H276428   3.427   5.104  15.801 -0.2961  0.9237  1.8081
18313TIP3   OH276429   4.585   2.460   4.378  0.2400 -0.4740  0.0509
18313TIP3    H176430   4.670   2.488   4.411  0.9953 -2.3720 -0.2119
18313TIP3    H276431   4.593   2.366   4.365 -2.1753 -0.8550  0.8154
18314TIP3   OH276432   4.546   5.352  14.049  0.1349 -0.0921 -0.2973
18314TIP3    H176433   4.609   5.333  14.119  0.8298 -2.5454 -1.4876
18314TIP3    H276434   4.589   5.418  13.995 -0.4050  1.8297  1.4959
18315TIP3   OH276435   6.511   1.246  11.428  0.0007  0.0951  0.4094
18315TIP3    H176436   6.432   1.295  11.405 -1.2897 -1.4053  1.4279
18315TIP3    H276437   6.579   1.314  11.438 -1.7942  1.7879  2.2099
18316TIP3   OH276438   1.973   0.743  17.141 -0.3104 -0.2418 -0.0090
18316TIP3    H176439   2.037   0.807  17.112 -0.8911 -0.4275 -1.8900
18316TIP3    H276440   1.979   0.743  17.236 -1.6506  4.0415  0.2714
18317TIP3   OH276441   5.000   1.369   6.670 -0.1530  0.0965  0.4481
18317TIP3    H176442   5.071   1.360   6.733 -0.6360 -1.2124  0.8285
18317TIP3    H276443   4.976   1.279   6.647  0.1419  0.5125 -1.7747
18318TIP3   OH276444   4.758   5.816  15.964 -0.3803 -0.6751 -0.3501
18318TIP3    H176445   4.712   5.818  15.880 -0.1585 -0.3216 -0.4691
18318TIP3    H276446   4.793   5.727  15.970  0.8437 -0.2867 -1.3319
18319TIP3   OH276447   3.377   6.117  10.896 -0.4992  0.4930 -0.1151
18319TIP3    H176448   3.367   6.192  10.838 -0.0555 -0.8986 -2.1188
18319TIP3    H276449   3.472   6.108  10.907 -0.4110 -0.8649 -1.5319
18320TIP3   OH276450   2.857   3.447   0.157  0.6105  0.1788  0.0283
18320TIP3    H176451   2.921   3.408   0.098  0.3185 -1.2937  0.6354
18320TIP3    H276452   2.772   3.422   0.121  0.4022  0.6165  0.2041
18321TIP3   OH276453   5.271   5.775  16.479 -0.1113 -0.0642 -0.1197
18321TIP3    H176454   5.314   5.691  16.460 -0.2498 -0.5722  1.6281
18321TIP3    H276455   5.339   5.827  16.523 -0.1723  0.5693 -0.7617
18322TIP3   OH276456   6.142   6.358  12.346 -0.1433 -0.9301  0.0720
18322TIP3    H176457   6.087   6.399  12.279  0.1532 -0.8233 -0.1112
18322TIP3    H276458   6.192   6.431  12.382  1.8706 -1.3516 -1.6426
18323TIP3   OH276459   0.898   0.630   0.278 -0.1704  0.3954  0.0037
18323TIP3    H176460   0.878   0.723   0.284 -1.2626  0.2154 -0.4758
18323TIP3    H276461   0.877   0.595   0.364 -0.7205  0.4385 -0.1055
18324TIP3   OH276462   5.488   6.618  11.735 -0.6748  0.5436 -0.3869
18324TIP3    H176463   5.543   6.659  11.801 -0.0946  1.6096 -1.4955
18324TIP3    H276464   5.532   6.534  11.716  0.6670  1.4122 -1.3186
18325TIP3   OH276465   1.612   0.668   2.614 -0.5616 -0.1676 -0.2503
18325TIP3    H176466   1.651   0.755   2.626 -1.6115  0.2890  0.0252
18325TIP3    H276467   1.654   0.634   2.535 -0.5177  0.8208 -0.6752
18326TIP3   OH276468   6.507   1.032  11.233  0.0751  0.0541  0.0184
18326TIP3    H176469   6.524   1.087  11.309 -0.7233  0.2151  0.0823
18326TIP3    H276470   6.555   0.951  11.251  0.4405  0.3472  0.3777
18327TIP3   OH276471   2.976   2.995  12.119 -0.1035  0.4367  0.3955
18327TIP3    H176472   2.968   3.088  12.098 -0.6881  0.1673 -0.6571
18327TIP3    H276473   3.048   2.964  12.065  0.0675  0.2654  0.7178
18328TIP3   OH276474   5.249   2.503  16.487  0.0110  0.0104 -0.2902
18328TIP3    H176475   5.203   2.580  16.520  0.7267  0.5510 -0.5249
18328TIP3    H276476   5.261   2.520  16.393  0.0411 -0.4525 -0.3742
18329TIP3   OH276477   2.112   5.559  15.471 -0.1415  0.3219  0.2180
18329TIP3    H176478   2.187   5.507  15.443 -0.9335 -1.8838  1.9189
18329TIP3    H276479   2.151   5.641  15.502  1.6940 -0.9303  1.4675
18330TIP3   OH276480   4.027   6.347  14.013  0.3790  0.0488  0.3688
18330TIP3    H176481   4.042   6.254  14.034 -0.6901  0.1985  1.9742
18330TIP3    H276482   4.114   6.383  14.000  0.8371 -1.0733  0.1615
18331TIP3   OH276483   1.658   4.104   2.848  0.1959  0.4845 -0.1188
18331TIP3    H176484   1.706   4.173   2.894  1.2870 -0.7403  0.6290
18331TIP3    H276485   1.641   4.141   2.761  2.8773  0.8455 -0.5783
18332TIP3   OH276486   5.598   4.457  11.764  0.4995 -0.3372  0.3926
18332TIP3    H176487   5.568   4.431  11.852  0.3139 -2.4029 -0.2302
18332TIP3    H276488   5.524   4.435  11.707  0.9596  0.1551 -0.4023
18333TIP3   OH276489   1.637   0.271  16.475  0.0692  0.9064 -0.1002
18333TIP3    H176490   1.719   0.285  16.427  0.5536  0.8218  0.6705
18333TIP3    H276491   1.582   0.221  16.415  0.5089  1.1402 -0.7099
18334TIP3   OH276492   6.792   0.316   5.697 -0.7048 -0.0373 -0.1621
18334TIP3    H176493   6.796   0.283   5.786 -1.3667  0.8433  0.2105
18334TIP3    H276494   6.769   0.240   5.644 -0.0302 -0.6230  0.3751
18335TIP3   OH276495   6.032   0.985   1.206  0.1068 -0.3665 -0.4346
18335TIP3    H176496   6.089   0.934   1.263 -0.0047 -0.5693 -0.5014
18335TIP3    H276497   5.950   0.993   1.255 -0.1222 -0.8745 -0.7219
18336TIP3   OH276498   2.004   6.338   5.536 -0.5731 -0.5715 -0.1279
18336TIP3    H176499   2.049   6.254   5.543 -0.4268 -0.5169 -0.3731
18336TIP3    H276500   2.075   6.403   5.529 -0.5781 -0.7270 -3.5978
18337TIP3   OH276501   5.897   4.064   0.322 -0.0788  0.1462  0.1117
18337TIP3    H176502   5.860   4.137   0.371 -0.3033 -0.2686  0.5795
18337TIP3    H276503   5.903   4.096   0.232 -0.1984  0.7261  0.3038
18338TIP3   OH276504   2.936   0.211   5.666 -0.2165 -0.6444  0.2109
18338TIP3    H176505   2.863   0.240   5.612  1.1623 -0.4817 -1.6716
18338TIP3    H276506   2.909   0.125   5.699 -2.0664  0.2821  1.3135
18339TIP3   OH276507   3.480   1.278   6.192  0.2217  0.1094  0.4309
18339TIP3    H176508   3.507   1.320   6.273 -2.2746  2.9976 -0.0566
18339TIP3    H276509   3.407   1.221   6.216 -0.4174  0.8469  0.2684
18340TIP3   OH276510   4.089   4.335  14.855  0.2973 -0.0888 -0.0075
18340TIP3    H176511   4.045   4.406  14.810  1.1054  0.0446 -0.6011
18340TIP3    H276512   4.100   4.267  14.789 -1.7173 -1.3801  0.8780
18341TIP3   OH276513   4.093   2.305  16.451  0.1441  0.3444  0.6571
18341TIP3    H176514   4.075   2.245  16.380  0.3062 -0.0814  0.9721
18341TIP3    H276515   4.036   2.381  16.434  0.6628  0.5346 -0.2786
18342TIP3   OH276516   0.627   4.273   3.911 -0.0353 -0.2936 -0.1311
18342TIP3    H176517   0.677   4.355   3.923 -1.0814  0.4295 -0.5747
18342TIP3    H276518   0.689   4.204   3.934  0.1800  0.6959  2.7417
18343TIP3   OH276519   4.468   5.292   2.387  0.2305  0.0619  0.3720
18343TIP3    H176520   4.480   5.383   2.362 -0.5435 -0.5405 -2.5867
18343TIP3    H276521   4.557   5.255   2.385  0.1749 -0.2523 -3.3032
18344TIP3   OH276522   6.251   4.874   5.088  0.3858 -0.2051 -0.1504
18344TIP3    H176523   6.223   4.932   5.017 -1.1307  0.3701  0.8491
18344TIP3    H276524   6.345   4.889   5.096  0.1430  1.6909 -0.3284
18345TIP3   OH276525   4.898   1.081  15.661 -0.4732  0.3625  0.3211
18345TIP3    H176526   4.894   1.175  15.643  1.8027  0.8807  2.0126
18345TIP3    H276527   4.862   1.072  15.749 -0.8620 -0.4021  0.0970
18346TIP3   OH276528   5.679   5.675  15.798 -0.8738  0.0314  0.1439
18346TIP3    H176529   5.589   5.703  15.781 -0.8174  0.6404  0.7999
18346TIP3    H276530   5.721   5.751  15.837  0.0100 -0.1639 -0.4115
18347TIP3   OH276531   1.532   2.844  14.735  0.1267  0.3132  0.2690
18347TIP3    H176532   1.540   2.804  14.822 -0.7043 -1.1379 -0.2977
18347TIP3    H276533   1.459   2.798  14.693  1.6557 -0.3184 -1.8787
18348TIP3   OH276534   2.299   2.520  12.568 -0.4170  0.0310 -0.2663
18348TIP3    H176535   2.320   2.566  12.650 -1.1110 -0.8748  0.4409
18348TIP3    H276536   2.240   2.580  12.522  1.0635  1.1619 -0.7779
18349TIP3   OH276537   4.876   1.926  14.489 -0.1564 -0.4355  0.5803
18349TIP3    H176538   4.926   1.964  14.417 -0.1040  0.0695  0.8726
18349TIP3    H276539   4.806   1.877  14.447 -1.1996  1.3261  0.2009
18350TIP3   OH276540   0.294   1.851   2.141  0.0728 -0.3133 -0.2756
18350TIP3    H176541   0.252   1.794   2.206  0.3583 -1.4804 -1.0860
18350TIP3    H276542   0.388   1.838   2.156  0.1864  1.3944  0.7567
18351TIP3   OH276543   4.395   5.047   1.265 -0.1819 -0.1532 -0.2364
18351TIP3    H176544   4.300   5.047   1.253 -0.2037  0.6510 -0.1324
18351TIP3    H276545   4.424   5.129   1.224  0.5587 -0.7534 -0.9447
18352TIP3   OH276546   2.982   6.146  17.179  0.2023  0.0792 -0.9819
18352TIP3    H176547   3.074   6.153  17.206  0.5035 -0.9472 -1.6836
18352TIP3    H276548   2.974   6.204  17.104  0.7301 -1.0941 -1.9805
18353TIP3   OH276549   2.809   2.230   5.444 -0.1249 -0.3990 -0.0328
18353TIP3    H176550   2.761   2.280   5.378 -1.5907 -0.1222  1.1663
18353TIP3    H276551   2.803   2.284   5.523  0.1253 -1.4815  0.7459
18354TIP3   OH276552   4.760   1.793   1.400 -0.0872 -0.1806 -0.5322
18354TIP3    H176553   4.781   1.700   1.388 -1.0978 -0.5249  0.2031
18354TIP3    H276554   4.666   1.794   1.421 -0.4987  1.1675 -2.2518
18355TIP3   OH276555   1.183   3.391  10.621 -0.2088 -0.0815  0.3595
18355TIP3    H176556   1.207   3.482  10.602 -0.9420  0.4349  1.7030
18355TIP3    H276557   1.098   3.379  10.579  0.2166 -0.3835 -0.4215
18356TIP3   OH276558   0.057   3.994  13.911 -0.2803 -0.1785 -0.9027
18356TIP3    H176559   0.125   3.935  13.877 -1.9950 -2.2608 -0.8807
18356TIP3    H276560   0.076   4.000  14.004 -0.6276 -1.5171 -0.7247
18357TIP3   OH276561   1.610   0.454   3.221  0.3439  0.3923  0.0051
18357TIP3    H176562   1.537   0.503   3.258 -0.1742  0.1639 -0.7043
18357TIP3    H276563   1.664   0.519   3.178  0.9906  0.6743  1.1883
18358TIP3   OH276564   4.177   0.281  10.547  0.3136 -0.8228  1.2125
18358TIP3    H176565   4.193   0.374  10.534 -1.3506 -0.3822  1.9344
18358TIP3    H276566   4.088   0.278  10.584  0.1482 -2.7276  0.7314
18359TIP3   OH276567   0.066   4.834   3.622  0.3704 -0.8578 -0.1381
18359TIP3    H176568   0.140   4.876   3.665  0.5767 -0.6183 -0.7120
18359TIP3    H276569   0.039   4.896   3.554  0.2690 -1.3693 -0.5717
18360TIP3   OH276570   3.238   0.671  11.306  0.1177  0.0343  0.1028
18360TIP3    H176571   3.272   0.675  11.217  2.8385 -1.2132  1.0014
18360TIP3    H276572   3.222   0.578  11.322 -0.1250  0.2174  0.9926
18361TIP3   OH276573   0.046   3.670  13.310 -0.3092 -0.6893 -0.1151
18361TIP3    H176574   0.124   3.720  13.286 -1.5785  1.4084 -0.0973
18361TIP3    H276575  -0.001   3.657  13.228  0.0447 -1.9698 -0.1303
18362TIP3   OH276576   5.649   6.262   6.003 -0.3073  0.1985 -0.0425
18362TIP3    H176577   5.662   6.357   6.004  0.6415  0.0910  1.5941
18362TIP3    H276578   5.619   6.241   6.092 -1.0718 -0.9831 -0.5509
18363TIP3   OH276579   3.526   4.984  10.985  0.1629 -0.5652  0.5533
18363TIP3    H176580   3.519   5.079  10.973 -1.1998 -0.6847  0.2429
18363TIP3    H276581   3.598   4.958  10.928  0.3340  0.2455  0.3826
18364TIP3   OH276582   4.223   2.921   5.609 -0.1259 -0.7185 -0.2966
18364TIP3    H176583   4.204   2.852   5.673  0.1602  0.2594  0.8675
18364TIP3    H276584   4.283   2.980   5.653 -1.0310  0.7653 -0.9422
18365TIP3   OH276585   1.273   3.305   0.685 -0.6357 -0.2335 -0.4860
18365TIP3    H176586   1.315   3.379   0.642  0.0324 -0.3524 -0.0606
18365TIP3    H276587   1.287   3.321   0.778 -0.5443 -0.8587 -0.3901
18366TIP3   OH276588   0.135   3.015   5.430  0.1663  0.0519  0.2777
18366TIP3    H176589   0.125   3.101   5.390  0.1403  0.3253  0.8675
18366TIP3    H276590   0.097   2.954   5.366 -0.1134  0.5112  0.0024
18367TIP3   OH276591   2.156   2.779  16.586  0.7805 -0.0658  0.0740
18367TIP3    H176592   2.216   2.814  16.652 -0.1397 -1.1430  1.5353
18367TIP3    H276593   2.121   2.700  16.625  0.9952 -1.3597 -2.1677
18368TIP3   OH276594   4.371   5.905  14.809 -0.0126 -0.2907 -0.6381
18368TIP3    H176595   4.453   5.954  14.804 -0.2177 -0.0705 -2.6198
18368TIP3    H276596   4.349   5.906  14.902  1.0566  1.5893 -0.3417
18369TIP3   OH276597   4.424   5.873   5.906 -0.4222 -0.5186 -0.3585
18369TIP3    H176598   4.506   5.894   5.950 -0.9410  2.6233 -0.6733
18369TIP3    H276599   4.361   5.861   5.977 -0.6413  1.7669 -0.0786
18370TIP3   OH276600   3.538   0.240  11.067 -0.6526 -0.4906  0.0890
18370TIP3    H176601   3.563   0.304  10.999  0.3570 -1.6087 -0.6279
18370TIP3    H276602   3.456   0.202  11.034 -0.5552 -0.5081 -0.1344
18371TIP3   OH276603   5.141   3.099   4.625 -0.1885  0.0312  0.1157
18371TIP3    H176604   5.194   3.022   4.604  1.3583  1.1917 -0.3681
18371TIP3    H276605   5.137   3.149   4.543 -5.2128 -1.7089 -1.0736
18372TIP3   OH276606   2.055   1.299  13.153 -0.0108 -0.0064  0.5307
18372TIP3    H176607   2.094   1.350  13.082 -0.9945  1.0289  0.7193
18372TIP3    H276608   1.989   1.245  13.110 -0.9597  0.9885  0.6965
18373TIP3   OH276609   4.806   1.841  11.628 -0.1299  0.0387  0.0677
18373TIP3    H176610   4.716   1.831  11.658 -1.1762  0.8697 -2.5462
18373TIP3    H276611   4.817   1.773  11.562  0.9674  0.3758 -0.1261
18374TIP3   OH276612   3.550   5.746  14.716 -0.2399 -0.1977  0.0148
18374TIP3    H176613   3.461   5.764  14.687 -1.1532 -0.4281  2.4365
18374TIP3    H276614   3.569   5.659  14.683 -1.3975 -0.6336  0.4431
18375TIP3   OH276615   0.051   1.021  11.769  0.3989 -0.3263 -0.1564
18375TIP3    H176616   0.036   0.962  11.695  1.1601 -2.3390  1.2183
18375TIP3    H276617  -0.025   1.080  11.768  0.7980  0.2641 -2.9871
18376TIP3   OH276618   1.481   5.184  14.818  0.1156 -0.1166 -0.0786
18376TIP3    H176619   1.542   5.243  14.861 -1.0427 -0.2704  1.9074
18376TIP3    H276620   1.528   5.151  14.741  1.7812  1.2188  0.3310
18377TIP3   OH276621   6.381   4.298  12.663 -0.4723 -0.0122 -0.4276
18377TIP3    H176622   6.362   4.227  12.724 -1.9269  0.8449  0.1688
18377TIP3    H276623   6.362   4.378  12.713 -1.8260  0.7089 -1.9978
18378TIP3   OH276624   2.055   3.401  14.527  0.6368  0.1412 -0.2454
18378TIP3    H176625   2.046   3.474  14.588  0.4221  0.3462 -0.5175
18378TIP3    H276626   2.078   3.442  14.444 -2.4443  0.2298 -1.2011
18379TIP3   OH276627   2.578   6.000   6.404  0.7096  0.5156 -0.0566
18379TIP3    H176628   2.601   5.973   6.315  1.0832  0.8532 -0.0668
18379TIP3    H276629   2.489   6.035   6.396  1.2326  1.7867 -0.5652
18380TIP3   OH276630   1.575   0.978  16.596 -0.3098  0.3429 -0.3542
18380TIP3    H176631   1.574   1.063  16.552  0.0918 -0.0521 -1.1451
18380TIP3    H276632   1.664   0.971  16.631 -0.0760 -0.1198 -1.0333
18381TIP3   OH276633   3.525   4.219  14.980 -0.3670 -0.4947  0.7512
18381TIP3    H176634   3.551   4.154  14.915  0.3200  2.0198 -1.6839
18381TIP3    H276635   3.432   4.232  14.964  0.1520  1.4920 -1.2474
18382TIP3   OH276636   4.391   2.098  16.802  0.2328  0.4511 -0.2176
18382TIP3    H176637   4.342   2.143  16.733 -1.9733 -0.2727  0.7620
18382TIP3    H276638   4.390   2.006  16.777 -0.6750  0.1661  0.7647
18383TIP3   OH276639   5.224   5.236  12.761  0.1003  0.2430 -0.0086
18383TIP3    H176640   5.249   5.144  12.767 -0.6917 -0.0175 -0.4467
18383TIP3    H276641   5.299   5.284  12.794  0.0898 -0.6023  1.3052
18384TIP3   OH276642   5.754   0.989  14.166  0.5020  0.5511 -0.0861
18384TIP3    H176643   5.674   0.945  14.193  0.0523  1.6754  0.4476
18384TIP3    H276644   5.736   1.082  14.176  1.2594  0.9129 -1.6907
18385TIP3   OH276645   0.783   3.575  13.599 -0.1616  0.4289 -0.1819
18385TIP3    H176646   0.712   3.639  13.606  0.1436  0.6972  0.6419
18385TIP3    H276647   0.746   3.494  13.632  0.3216  0.9253  1.7142
18386TIP3   OH276648   5.960   2.222   1.114 -0.2655 -0.6295  0.1910
18386TIP3    H176649   5.888   2.282   1.131 -0.3656 -0.6863 -0.0247
18386TIP3    H276650   5.950   2.198   1.022 -0.5308 -1.3865  0.4063
18387TIP3   OH276651   2.905   1.528  14.229 -0.2307 -0.2281 -0.3107
18387TIP3    H176652   2.851   1.554  14.303 -0.0703  1.8375 -0.8561
18387TIP3    H276653   2.994   1.524  14.264 -0.3865 -1.1943  0.0190
18388TIP3   OH276654   0.439   3.854   3.857  0.0322 -0.0303 -0.1972
18388TIP3    H176655   0.414   3.832   3.768  0.5742  0.7961 -0.5664
18388TIP3    H276656   0.520   3.805   3.872 -0.3531 -0.6038  0.0466
18389TIP3   OH276657   2.410   5.130  10.319 -0.5520  0.1619 -0.2224
18389TIP3    H176658   2.408   5.034  10.318  0.7586  0.1179  0.0565
18389TIP3    H276659   2.502   5.152  10.310 -0.8148  1.4063  0.0144
18390TIP3   OH276660   0.147   1.602   4.732  0.3030 -0.1016  0.2350
18390TIP3    H176661   0.107   1.676   4.779 -0.1515  0.1285 -0.4974
18390TIP3    H276662   0.213   1.642   4.676 -1.0049 -0.0305 -1.3409
18391TIP3   OH276663   5.681   4.633  12.743  0.2756 -0.0973  0.0740
18391TIP3    H176664   5.600   4.622  12.794 -0.7351 -0.3605 -1.5368
18391TIP3    H276665   5.751   4.625  12.808 -0.9874  0.3119  1.5371
18392TIP3   OH276666   3.629   5.424   1.680  0.3932  0.0421 -0.1892
18392TIP3    H176667   3.634   5.395   1.589  1.2405  2.3651 -0.9417
18392TIP3    H276668   3.535   5.422   1.700  0.0657  0.6485 -1.5295
18393TIP3   OH276669   2.012   5.734  12.672 -0.0414 -0.2857  0.0847
18393TIP3    H176670   2.077   5.680  12.626  1.0228  0.0425  1.1605
18393TIP3    H276671   1.933   5.680  12.672  1.0957 -2.0665  1.4599
18394TIP3   OH276672   0.976   6.379   4.580  0.1997 -0.2276 -0.6938
18394TIP3    H176673   1.027   6.405   4.657 -1.1368  0.9989 -0.1771
18394TIP3    H276674   0.885   6.380   4.610 -0.3348  0.1731 -2.2411
18395TIP3   OH276675   3.211   0.111   3.463  0.1779  0.2455 -0.0475
18395TIP3    H176676   3.293   0.067   3.440 -0.4526 -1.5447  0.8702
18395TIP3    H276677   3.159   0.109   3.383 -0.1879 -1.6303  0.1802
18396TIP3   OH276678   0.483   3.057  11.871 -0.2303 -0.5092  0.6140
18396TIP3    H176679   0.444   2.993  11.811  1.1218 -0.5929 -0.1948
18396TIP3    H276680   0.422   3.060  11.945 -1.5764 -0.9090 -0.4418
18397TIP3   OH276681   2.235   4.618  16.997  0.2047  0.6458  0.3114
18397TIP3    H176682   2.226   4.635  17.091  1.2065  0.6497  0.4205
18397TIP3    H276683   2.293   4.687  16.966 -1.0197  1.3335 -0.5512
18398TIP3   OH276684   1.153   0.254  15.852 -0.3420  0.0724  0.1264
18398TIP3    H176685   1.223   0.190  15.861 -1.2546 -0.8943  0.6403
18398TIP3    H276686   1.143   0.290  15.940 -0.3012  0.4115 -0.0083
18399TIP3   OH276687   1.517   4.680   0.162  0.6336  0.0912  0.1360
18399TIP3    H176688   1.458   4.746   0.125  3.2600  1.8622 -1.1571
18399TIP3    H276689   1.522   4.702   0.255  0.6153  1.0523 -0.0766
18400TIP3   OH276690   2.518   0.793  12.145 -0.4089  0.4551  0.1303
18400TIP3    H176691   2.580   0.811  12.074 -1.1147  2.3128 -0.0724
18400TIP3    H276692   2.469   0.717  12.114 -0.8204  1.3235 -1.4829
18401TIP3   OH276693   6.828   2.643  16.527 -0.0466 -0.5304  0.1545
18401TIP3    H176694   6.733   2.649  16.532 -0.1565 -0.3516 -1.6570
18401TIP3    H276695   6.858   2.671  16.614 -1.5169  2.2757 -0.1343
18402TIP3   OH276696   0.961   4.585  15.855  0.2855 -0.4209  0.0795
18402TIP3    H176697   0.986   4.541  15.936 -0.6076 -0.5582  0.2880
18402TIP3    H276698   1.001   4.671  15.860 -1.5013  0.3887  1.6744
18403TIP3   OH276699   2.856   0.665  11.556  0.2979 -0.3029  0.1302
18403TIP3    H176700   2.936   0.626  11.593  1.8776  2.4214 -0.1127
18403TIP3    H276701   2.850   0.627  11.468  1.6509 -0.1788 -0.0446
18404TIP3   OH276702   0.970   6.150   4.313 -0.0452  0.2951  0.6521
18404TIP3    H176703   1.013   6.231   4.340 -1.2947  1.0281  0.5134
18404TIP3    H276704   1.000   6.135   4.224 -0.2727  0.9502  0.4602
18405TIP3   OH276705   6.730   2.314   3.999  0.5373  0.4894 -0.4011
18405TIP3    H176706   6.785   2.392   4.004  1.4528 -0.1455 -0.1743
18405TIP3    H276707   6.641   2.346   4.015  0.8777  1.4956 -0.4390
18406TIP3   OH276708   1.567   6.426  16.010  0.1071 -0.2142  0.0002
18406TIP3    H176709   1.656   6.405  16.037  0.0787 -0.4343 -0.0713
18406TIP3    H276710   1.574   6.446  15.916 -0.2878 -2.7451 -0.6440
18407TIP3   OH276711   3.644   1.049  14.313  0.1475 -0.2015  0.1643
18407TIP3    H176712   3.722   1.074  14.264  1.3275  0.6125  2.3371
18407TIP3    H276713   3.589   1.127  14.313  0.1217 -0.2196  0.1000
18408TIP3   OH276714   0.475   4.850   0.732 -0.1480 -0.0902 -0.2414
18408TIP3    H176715   0.441   4.766   0.701  0.8187 -0.3014 -0.7958
18408TIP3    H276716   0.398   4.905   0.745 -0.7182 -0.7187 -0.9277
18409TIP3   OH276717   1.533   4.115   6.529 -0.2252 -0.2895 -0.1085
18409TIP3    H176718   1.574   4.179   6.586 -1.7326  0.6493 -0.0329
18409TIP3    H276719   1.577   4.126   6.444  0.5097 -0.1735  0.2845
18410TIP3   OH276720   4.858   0.041   4.240 -0.0012 -0.7271  0.4216
18410TIP3    H176721   4.780   0.007   4.196 -1.0153  0.9759  0.7837
18410TIP3    H276722   4.848   0.136   4.235  1.6614 -0.4809  1.2043
18411TIP3   OH276723   2.230   0.233  15.103  0.1882  0.1578 -0.5730
18411TIP3    H176724   2.279   0.265  15.178  1.8826 -0.5810 -1.3200
18411TIP3    H276725   2.139   0.231  15.133  0.7010  0.7930  1.1223
18412TIP3   OH276726   6.398   4.094  15.058 -0.6099 -0.1624  0.0405
18412TIP3    H176727   6.454   4.122  15.130  0.6456 -1.4779 -0.3778
18412TIP3    H276728   6.421   4.153  14.985  1.5688 -1.7611 -0.6530
18413TIP3   OH276729   2.183   2.840  14.681  0.0926  0.0431  0.1456
18413TIP3    H176730   2.250   2.807  14.621 -0.3037  0.1690 -0.3750
18413TIP3    H276731   2.116   2.878  14.624 -0.7413 -0.6604  0.6218
18414TIP3   OH276732   1.018   2.953  14.110  0.5071 -0.0262  0.1434
18414TIP3    H176733   0.957   2.953  14.185 -0.4928 -0.6440 -0.6483
18414TIP3    H276734   1.098   2.915  14.145 -0.4688 -1.8569  0.5390
18415TIP3   OH276735   3.395   2.062   5.164  0.8132 -0.0261  0.5353
18415TIP3    H176736   3.422   1.976   5.133 -1.2410 -0.4723 -0.1514
18415TIP3    H276737   3.356   2.046   5.250 -0.7980 -0.0224 -0.1664
18416TIP3   OH276738   4.976   0.068  17.103 -0.3078 -0.2299 -0.2869
18416TIP3    H176739   5.046   0.032  17.048 -1.3444  0.1687 -1.9252
18416TIP3    H276740   4.896   0.027  17.071 -0.8499 -0.9573  1.8047
18417TIP3   OH276741   0.070   2.082   4.522  0.2335 -0.3818 -0.2871
18417TIP3    H176742   0.021   2.096   4.440  0.0860 -0.2715 -0.1804
18417TIP3    H276743   0.003   2.083   4.590  0.5559  1.4874  0.0449
18418TIP3   OH276744   6.657   5.638   5.733 -0.3115 -0.2210  0.2264
18418TIP3    H176745   6.722   5.582   5.776  0.4284  2.1532  2.4398
18418TIP3    H276746   6.709   5.695   5.676 -0.7049  0.2178  0.3045
18419TIP3   OH276747   4.365   6.745   3.382 -0.1356 -0.4258  0.3692
18419TIP3    H176748   4.288   6.801   3.397  0.9784  1.0454  0.8167
18419TIP3    H276749   4.381   6.704   3.467 -1.0938 -1.6604 -0.0180
18420TIP3   OH276750   3.416   1.625   2.261  0.6115  1.2806 -0.5938
18420TIP3    H176751   3.332   1.654   2.298  1.4926  1.1364  1.6661
18420TIP3    H276752   3.480   1.641   2.330  2.3552  0.6782 -1.9795
18421TIP3   OH276753   5.140   6.742   3.064  0.3215 -0.2959  0.8230
18421TIP3    H176754   5.088   6.665   3.040 -1.5429  0.6583  1.6414
18421TIP3    H276755   5.090   6.817   3.031  2.0068  0.6296  0.1990
18422TIP3   OH276756   2.310   4.112  13.831  0.2708 -0.1985  0.7380
18422TIP3    H176757   2.299   4.199  13.870 -1.0220 -0.5482  1.2068
18422TIP3    H276758   2.334   4.055  13.904  1.3111 -0.2110  0.3992
18423TIP3   OH276759   0.585   2.484  15.422  0.6426 -0.0847  0.1915
18423TIP3    H176760   0.605   2.573  15.450 -0.4377 -0.3105  1.8117
18423TIP3    H276761   0.511   2.494  15.361 -1.2268  0.0205  2.3337
18424TIP3   OH276762   1.451   4.721  16.810  0.0769 -0.4565  0.1183
18424TIP3    H176763   1.390   4.715  16.736  1.7435 -0.8153 -1.2925
18424TIP3    H276764   1.445   4.813  16.838 -1.4692 -0.6112  0.3680
18425TIP3   OH276765   1.683   0.212   0.494  0.4534 -0.3439  0.4738
18425TIP3    H176766   1.619   0.225   0.424  1.9811  2.0927 -0.6055
18425TIP3    H276767   1.653   0.134   0.540 -1.4462 -1.1873 -1.9823
18426TIP3   OH276768   0.541   3.391  12.832  0.7853  0.6515  0.4105
18426TIP3    H176769   0.630   3.358  12.818  2.0297  3.6330  0.5684
18426TIP3    H276770   0.516   3.430  12.747  0.2596  1.1717  0.7937
18427TIP3   OH276771   3.908   2.503  16.414  0.7991 -0.1373 -0.5803
18427TIP3    H176772   3.864   2.543  16.489  2.1282 -2.3657  1.5068
18427TIP3    H276773   3.931   2.578  16.358 -4.1355  1.2886 -1.1609
18428TIP3   OH276774   6.609   0.405  11.864 -0.2116  0.3444 -0.2572
18428TIP3    H176775   6.570   0.365  11.942  0.6072 -1.1487 -0.5846
18428TIP3    H276776   6.539   0.460  11.828 -0.5829  1.1650  1.5590
18429TIP3   OH276777   2.908   1.593   1.794 -0.8768 -0.2097 -0.5789
18429TIP3    H176778   2.847   1.667   1.800  1.5511  1.8528  1.2265
18429TIP3    H276779   2.892   1.543   1.875  0.3483  0.8788  0.3858
18430TIP3   OH276780   4.610   1.865  11.035  0.5484  0.1710 -0.4181
18430TIP3    H176781   4.552   1.927  11.079  0.8489 -1.2198  2.1561
18430TIP3    H276782   4.697   1.905  11.042  0.8151 -0.6588  1.6620
18431TIP3   OH276783   2.682   6.761   2.540  0.1915  0.3425  0.1763
18431TIP3    H176784   2.647   6.713   2.616  1.1720  0.1533  0.5215
18431TIP3    H276785   2.622   6.835   2.529 -0.3487 -0.0053  0.7153
18432TIP3   OH276786   5.830   4.735   1.469 -0.1821 -0.2877 -0.0540
18432TIP3    H176787   5.873   4.655   1.500  0.7634  0.0421 -0.4454
18432TIP3    H276788   5.842   4.798   1.541 -1.1318 -0.5530  0.3507
18433TIP3   OH276789   1.009   4.428  15.035  0.2025 -0.1473 -0.0090
18433TIP3    H176790   1.104   4.422  15.044  0.1331 -0.6688  0.4010
18433TIP3    H276791   0.994   4.420  14.941  0.6538  1.3713 -0.2376
18434TIP3   OH276792   6.014   5.886   2.603 -0.4556  0.3767 -0.0795
18434TIP3    H176793   6.081   5.955   2.604 -0.1537  0.0929  1.3582
18434TIP3    H276794   6.059   5.808   2.571 -0.5214  0.5746 -0.6649
18435TIP3   OH276795   5.451   5.716   3.756  0.3511 -0.7804  0.2723
18435TIP3    H176796   5.362   5.686   3.776 -0.5643  0.8929 -1.0402
18435TIP3    H276797   5.462   5.797   3.805  0.4538 -0.0353 -0.9312
18436TIP3   OH276798   0.362   6.034  15.801 -0.1414  0.1941 -0.2602
18436TIP3    H176799   0.341   6.093  15.728  1.1069 -0.6665 -1.3795
18436TIP3    H276800   0.367   5.947  15.760  2.0716 -0.1132  0.5195
18437TIP3   OH276801   2.365   1.751   1.262 -0.1062 -0.0932  0.3924
18437TIP3    H176802   2.318   1.834   1.258  0.1856  0.1350  1.5159
18437TIP3    H276803   2.425   1.761   1.336  0.9422 -0.7823 -0.3403
18438TIP3   OH276804   3.752   6.471  16.629  0.4696 -0.2746  0.2055
18438TIP3    H176805   3.793   6.551  16.597 -0.4202  0.4856  0.9295
18438TIP3    H276806   3.673   6.461  16.576 -0.4584  0.4223  1.4102
18439TIP3   OH276807   3.365   1.213   0.007 -0.3944 -0.4049  0.5654
18439TIP3    H176808   3.327   1.195  -0.079  0.2872 -1.8565  0.5480
18439TIP3    H276809   3.302   1.272   0.049 -0.5473  0.6692 -1.0553
18440TIP3   OH276810   3.376   4.616  16.820  0.1840  0.2438 -0.4900
18440TIP3    H176811   3.460   4.576  16.844  0.3931  0.7864 -0.3152
18440TIP3    H276812   3.368   4.601  16.726  1.2832  1.6560 -0.8449
18441TIP3   OH276813   5.877   1.210  11.899 -0.2629  0.4110 -0.5348
18441TIP3    H176814   5.845   1.135  11.948  1.2144 -1.0600 -1.6994
18441TIP3    H276815   5.826   1.211  11.818  0.3114  0.1115 -0.9073
18442TIP3   OH276816   5.789   4.778  15.524  0.1628 -0.3564  0.1827
18442TIP3    H176817   5.695   4.764  15.519  0.1394  0.1560 -1.6116
18442TIP3    H276818   5.809   4.833  15.448  2.0311 -1.1978  0.0115
18443TIP3   OH276819   1.316   2.053   4.478 -0.4002 -0.1157  0.4896
18443TIP3    H176820   1.224   2.040   4.456  0.0159 -1.0816 -0.8239
18443TIP3    H276821   1.349   2.113   4.412 -0.3027  1.0750  1.5760
18444TIP3   OH276822   1.285   2.953  17.007  0.8347 -0.3078 -0.1968
18444TIP3    H176823   1.213   2.927  16.949  0.8835 -0.2322 -0.2910
18444TIP3    H276824   1.364   2.935  16.957  0.8664  0.2050 -0.3425
18445TIP3   OH276825   0.714   5.236   1.872  0.1228 -0.5878 -0.1955
18445TIP3    H176826   0.801   5.271   1.887 -0.3341 -0.2074  1.8324
18445TIP3    H276827   0.664   5.309   1.835  0.0481 -0.0466  0.9287
18446TIP3   OH276828   6.649   3.785  11.538  0.1923  0.3332 -0.2953
18446TIP3    H176829   6.559   3.816  11.524 -1.1394 -3.0646 -0.3534
18446TIP3    H276830   6.669   3.735  11.458  1.6383  0.0176  0.2451
18447TIP3   OH276831   5.718   4.242  11.303 -0.1715 -0.1211 -0.3073
18447TIP3    H176832   5.753   4.226  11.215 -0.3083 -0.4086 -0.3118
18447TIP3    H276833   5.790   4.283  11.350 -0.0736 -0.0309 -0.5333
18448TIP3   OH276834   0.270   0.122  13.554 -0.4098  0.6227 -0.2408
18448TIP3    H176835   0.326   0.079  13.619  0.5468  0.1100 -1.3390
18448TIP3    H276836   0.189   0.142  13.600  0.5113  0.9806  1.2994
18449TIP3   OH276837   6.504   4.080  11.324 -0.0103 -0.1950 -0.1937
18449TIP3    H176838   6.579   4.095  11.267  0.6888  0.1574  0.7971
18449TIP3    H276839   6.444   4.151  11.303  0.3167  0.0326 -0.3665
18450TIP3   OH276840   1.959   5.714   3.116 -0.6320 -0.2577 -0.6031
18450TIP3    H176841   1.979   5.636   3.064  0.3884 -0.3597 -0.0814
18450TIP3    H276842   2.035   5.725   3.173 -0.3829  1.5743 -1.2154
18451TIP3   OH276843   0.514   2.349  15.901  0.3006 -0.3472  0.4121
18451TIP3    H176844   0.491   2.421  15.842  1.4464 -1.7651 -1.8924
18451TIP3    H276845   0.462   2.366  15.980 -2.3400  0.9278 -1.4495
18452TIP3   OH276846   2.087   4.071   0.311  0.7036 -0.1414  0.3137
18452TIP3    H176847   2.049   3.985   0.297  2.6195 -0.9787 -0.1161
18452TIP3    H276848   2.047   4.103   0.392 -1.2373 -0.6954 -0.3925
18453TIP3   OH276849   1.517   6.263   4.327  0.5780  0.1652  0.0108
18453TIP3    H176850   1.526   6.289   4.419 -0.1901 -0.6979  0.3393
18453TIP3    H276851   1.548   6.173   4.325  1.3608  0.4355 -0.7477
18454TIP3   OH276852   3.471   2.719  16.228  0.0681  0.0516  0.2657
18454TIP3    H176853   3.436   2.744  16.314 -0.1214  0.5182  0.0537
18454TIP3    H276854   3.407   2.752  16.165  0.4305  0.1029 -0.0798
18455TIP3   OH276855   5.619   5.259   5.711 -0.1702  0.2457 -0.1147
18455TIP3    H176856   5.614   5.348   5.745  0.6925 -0.0238  0.7482
18455TIP3    H276857   5.682   5.215   5.768  0.6649 -0.4579 -1.5266
18456TIP3   OH276858   5.913   5.189  12.156  0.4439  0.3976 -0.4060
18456TIP3    H176859   5.960   5.106  12.167  0.8287  0.5788 -0.6398
18456TIP3    H276860   5.982   5.253  12.138  0.2468  0.9625  0.7386
18457TIP3   OH276861   2.434   2.315  11.364  0.1925  0.4791 -0.0427
18457TIP3    H176862   2.434   2.409  11.344 -2.2461  0.9873  1.9265
18457TIP3    H276863   2.378   2.306  11.441  0.5478 -2.5942 -0.0064
18458TIP3   OH276864   5.387   6.433   5.355  0.3252  0.0422 -0.2896
18458TIP3    H176865   5.323   6.496   5.321 -1.0058  0.4183  2.5813
18458TIP3    H276866   5.336   6.379   5.416  1.7667 -2.8723 -1.4709
18459TIP3   OH276867   1.522   6.451  12.304 -0.0536 -0.1185  0.4326
18459TIP3    H176868   1.429   6.449  12.280  0.2003 -0.3847 -0.5477
18459TIP3    H276869   1.537   6.367  12.347 -0.1550 -0.2810  0.1565
18460TIP3   OH276870   0.875   1.459   3.250 -0.0810  0.3729 -0.6431
18460TIP3    H176871   0.824   1.392   3.204 -0.7711  0.4679 -0.0469
18460TIP3    H276872   0.928   1.500   3.181 -0.3721 -0.1299 -1.1806
18461TIP3   OH276873   0.651   0.826  13.216 -0.0556 -0.6808 -0.4138
18461TIP3    H176874   0.680   0.779  13.138  3.8554 -1.2264  1.1317
18461TIP3    H276875   0.629   0.757  13.279 -1.0122 -0.2755 -0.2857
18462TIP3   OH276876   3.247   3.229   2.574 -0.1666  0.3568  0.3194
18462TIP3    H176877   3.304   3.164   2.534  1.0869 -0.1738  2.7825
18462TIP3    H276878   3.247   3.303   2.512 -0.3982 -1.3157 -1.7995
18463TIP3   OH276879   2.128   1.804  13.817  0.1741  0.2360  0.9306
18463TIP3    H176880   2.048   1.821  13.768  1.5402  2.0459 -0.8596
18463TIP3    H276881   2.111   1.841  13.904 -1.0449  0.2935  0.6834
18464TIP3   OH276882   5.311   5.718   5.917 -0.3179 -0.4203  0.6846
18464TIP3    H176883   5.245   5.694   5.852  0.2673  2.7682 -1.3333
18464TIP3    H276884   5.266   5.781   5.974  0.8291  1.8294 -0.7485
18465TIP3   OH276885   2.191   4.255  15.884 -0.2134  0.0449 -1.2382
18465TIP3    H176886   2.177   4.194  15.956  0.1915  3.7984  2.4697
18465TIP3    H276887   2.106   4.262  15.841 -0.7165 -1.7118 -0.5811
18466TIP3   OH276888   1.817   3.720  17.059 -0.3306  0.3081  1.0502
18466TIP3    H176889   1.861   3.642  17.091 -1.1183 -1.1909 -1.2849
18466TIP3    H276890   1.730   3.718  17.099 -0.7690 -0.7077  0.0899
18467TIP3   OH276891   3.110   1.617  10.545  0.7067  0.4551  0.0599
18467TIP3    H176892   3.098   1.690  10.484  0.0391 -2.6228 -3.8745
18467TIP3    H276893   3.042   1.630  10.611 -0.8794  2.2101 -1.7921
18468TIP3   OH276894   2.157   4.876   2.763  0.5518  0.2321  0.9598
18468TIP3    H176895   2.246   4.840   2.761  0.6608  0.4927  1.0545
18468TIP3    H276896   2.122   4.858   2.676  0.4275 -0.5389  1.1679
18469TIP3   OH276897   3.795   0.798  14.659  0.3818  0.1070 -0.2732
18469TIP3    H176898   3.843   0.843  14.590  0.1509  1.2548  0.2871
18469TIP3    H276899   3.833   0.831  14.741 -0.0512 -0.4356  0.1590
18470TIP3   OH276900   1.189   1.997  12.231 -0.1964 -0.1678 -0.1155
18470TIP3    H176901   1.238   2.073  12.260  1.3350 -0.6566 -1.2395
18470TIP3    H276902   1.147   2.024  12.150  1.1296 -0.7409 -1.0349
18471TIP3   OH276903   0.194   0.993   5.420  0.0444  0.2067  0.2985
18471TIP3    H176904   0.125   0.986   5.354  0.1176 -1.8406  0.3850
18471TIP3    H276905   0.275   0.971   5.374  0.0535 -1.5717  1.0902
18472TIP3   OH276906   6.632   3.097  17.033 -0.0621 -0.0940 -0.1189
18472TIP3    H176907   6.590   3.119  17.116  1.2732 -1.0522  0.8358
18472TIP3    H276908   6.565   3.117  16.967 -2.3923 -2.4209  1.3661
18473TIP3   OH276909   6.373   6.184  14.680  0.2476 -0.2602  0.0896
18473TIP3    H176910   6.285   6.145  14.674  1.5494 -3.6783  0.5357
18473TIP3    H276911   6.363   6.254  14.745 -2.4500  0.6838 -1.1797
18474TIP3   OH276912   3.124   5.321   2.171  0.0147 -0.1338 -0.5333
18474TIP3    H176913   3.188   5.256   2.200  1.3824  0.6983 -1.5629
18474TIP3    H276914   3.039   5.285   2.198  0.9117 -1.1208  1.1656
18475TIP3   OH276915   0.430   1.690   3.978 -0.1067  0.2363 -0.1957
18475TIP3    H176916   0.387   1.605   3.972 -1.1670  0.8666 -3.2966
18475TIP3    H276917   0.523   1.671   3.968 -0.3393 -0.5604 -0.9228
18476TIP3   OH276918   4.006   0.720  13.759 -0.1657 -0.6519 -0.0047
18476TIP3    H176919   3.990   0.787  13.693  0.8670 -0.7402 -0.3646
18476TIP3    H276920   4.090   0.745  13.798 -0.4431 -0.9770  0.8053
18477TIP3   OH276921   4.830   2.868   5.314  0.0652 -0.5609 -0.0450
18477TIP3    H176922   4.846   2.943   5.257  0.4613 -1.4275 -1.0994
18477TIP3    H276923   4.915   2.848   5.352 -0.0856 -0.3586  0.4205
18478TIP3   OH276924   2.506   1.454   1.980  0.6135  0.0279 -0.1922
18478TIP3    H176925   2.500   1.523   1.914 -0.4414 -0.4940 -0.6542
18478TIP3    H276926   2.474   1.375   1.936 -2.7955  0.1901  1.7088
18479TIP3   OH276927   6.048   5.456   1.096  0.0027  0.3633  0.0545
18479TIP3    H176928   6.057   5.367   1.130 -1.3245  0.2306  0.1353
18479TIP3    H276929   6.028   5.509   1.173 -1.0698  0.3965 -0.2290
18480TIP3   OH276930   0.269   0.475   0.809 -0.3706 -0.0477  0.5428
18480TIP3    H176931   0.328   0.403   0.833 -0.9081 -0.2948  1.1247
18480TIP3    H276932   0.329   0.546   0.784  0.1999 -1.4880 -2.6157
18481TIP3   OH276933   0.839   5.009   2.365 -0.0288  0.8746  0.0548
18481TIP3    H176934   0.831   5.095   2.408  1.1357  1.9485 -1.7583
18481TIP3    H276935   0.900   5.024   2.293 -1.9280 -0.8201 -2.0304
18482TIP3   OH276936   0.483   0.491  17.135 -0.1047  0.1270 -0.5186
18482TIP3    H176937   0.509   0.447  17.216  0.1421 -0.3890 -0.8746
18482TIP3    H276938   0.498   0.584  17.153 -0.4576  0.0551  0.1753
18483TIP3   OH276939   3.036   4.386  12.682  0.1681 -0.5935  0.0398
18483TIP3    H176940   3.070   4.329  12.614 -0.0433  0.2120 -0.7597
18483TIP3    H276941   2.987   4.328  12.740  0.0185 -1.2297 -0.7121
18484TIP3   OH276942   0.632   6.539  15.594  0.0837 -0.8162 -0.0077
18484TIP3    H176943   0.666   6.610  15.539  0.7340 -1.1052  0.0094
18484TIP3    H276944   0.581   6.484  15.534  2.1180 -2.0381 -0.7327
18485TIP3   OH276945   3.589   0.781  14.327  0.4229 -0.2433  0.1586
18485TIP3    H176946   3.516   0.766  14.266  1.1186 -0.5886 -0.6032
18485TIP3    H276947   3.596   0.876  14.333  0.4386 -0.2008 -0.4227
18486TIP3   OH276948   3.221   2.992  11.127  0.3350 -0.2982  0.3040
18486TIP3    H176949   3.295   3.050  11.148 -0.5929  0.5682  1.3535
18486TIP3    H276950   3.163   3.046  11.074  0.5114 -1.0221 -0.6422
18487TIP3   OH276951   3.750   3.409  14.505 -0.0367 -0.3113  0.4334
18487TIP3    H176952   3.677   3.398  14.567 -0.1866 -1.6763  0.0536
18487TIP3    H276953   3.714   3.460  14.433  0.3318  1.9276  1.7441
18488TIP3   OH276954   4.512   6.376   1.315 -0.4487 -0.2174 -0.5271
18488TIP3    H176955   4.473   6.456   1.350  2.5506  0.5355  1.5116
18488TIP3    H276956   4.592   6.405   1.272  0.3235 -2.0392 -0.3877
18489TIP3   OH276957   1.677   5.210   6.146 -0.1863  0.2285 -0.1089
18489TIP3    H176958   1.601   5.254   6.185  0.3008  1.7675 -0.7922
18489TIP3    H276959   1.743   5.279   6.139  0.4933 -0.5258 -1.6012
18490TIP3   OH276960   2.039   3.886   1.179  0.6998 -0.1198 -0.0938
18490TIP3    H176961   1.954   3.843   1.186  0.9995 -1.0808 -1.7926
18490TIP3    H276962   2.018   3.979   1.169 -0.0505 -0.0993  1.4679
18491TIP3   OH276963   0.835   2.663  10.557  0.2797 -0.0036 -0.0044
18491TIP3    H176964   0.786   2.745  10.559 -1.4512 -0.9391 -1.5476
18491TIP3    H276965   0.771   2.596  10.582  1.1992 -1.0964 -0.4931
18492TIP3   OH276966   2.982   0.693  13.299 -0.3994 -0.3094  0.0865
18492TIP3    H176967   3.077   0.677  13.303 -0.4640 -0.5199  1.5737
18492TIP3    H276968   2.958   0.714  13.389 -1.8666 -0.7731 -0.1721
18493TIP3   OH276969   4.838   2.568  14.223  0.5369 -0.0241  0.4221
18493TIP3    H176970   4.931   2.584  14.206  0.2365 -0.2516 -1.6668
18493TIP3    H276971   4.836   2.528  14.310  2.4910 -0.9025  0.1136
18494TIP3   OH276972   4.564   5.006  16.749  0.3481  0.7415 -0.5454
18494TIP3    H176973   4.504   4.958  16.806  1.0005  0.5282 -0.0176
18494TIP3    H276974   4.560   5.096  16.780  0.9547  0.5634  0.0703
18495TIP3   OH276975   6.627   1.391  15.200 -0.2658  0.4111  0.3587
18495TIP3    H176976   6.592   1.470  15.241 -2.1747  0.8992 -2.0313
18495TIP3    H276977   6.714   1.416  15.169 -1.3970  2.1449 -1.6767
18496TIP3   OH276978   0.494   0.633  13.507  0.3422  0.0404 -0.2100
18496TIP3    H176979   0.431   0.574  13.548  0.1758  1.5322  1.8372
18496TIP3    H276980   0.575   0.619  13.557  1.0199 -0.2223 -1.3447
18497TIP3   OH276981   0.743   4.826  11.382 -0.1785  0.3302 -0.4303
18497TIP3    H176982   0.713   4.915  11.398 -0.8815 -0.0124  0.2348
18497TIP3    H276983   0.749   4.786  11.469  1.7338  0.2071 -0.5744
18498TIP3   OH276984   6.480   1.365  14.934  0.1035 -0.0144  0.3673
18498TIP3    H176985   6.463   1.271  14.925 -1.7427  0.1324  1.8727
18498TIP3    H276986   6.509   1.376  15.024 -1.9527  1.1204  0.9386
18499TIP3   OH276987   6.532   1.204   3.819  0.3043 -0.0554 -0.3126
18499TIP3    H176988   6.552   1.178   3.730 -0.4342  0.5697 -0.6758
18499TIP3    H276989   6.441   1.235   3.815  0.4932  0.6469  0.5088
18500TIP3   OH276990   5.591   6.362   5.673 -0.3587  0.4708 -0.1613
18500TIP3    H176991   5.619   6.453   5.684 -1.2413  0.7478 -0.1640
18500TIP3    H276992   5.504   6.358   5.713 -0.0162 -0.5633  0.5375
18501TIP3   OH276993   6.536   2.040   3.543  0.3847  0.0744  0.0058
18501TIP3    H176994   6.452   2.025   3.587 -0.3848  1.6807 -0.8061
18501TIP3    H276995   6.545   1.966   3.482 -0.9569  0.3876 -0.6117
18502TIP3   OH276996   2.316   3.228   1.080 -0.1647  0.6797 -0.0849
18502TIP3    H176997   2.245   3.164   1.074 -0.7800  1.4101 -0.8604
18502TIP3    H276998   2.341   3.245   0.990  2.1296 -0.7349  0.2028
18503TIP3   OH276999   2.144   4.063  17.116  0.5801 -0.3266 -0.0144
18503TIP3    H177000   2.232   4.091  17.091  0.2433 -0.7714 -1.8526
18503TIP3    H277001   2.089   4.139  17.100  0.5475 -0.2241  0.5881
18504TIP3   OH277002   0.945   3.904  12.907 -0.0663 -0.1247 -0.5540
18504TIP3    H177003   1.032   3.887  12.870  0.1131 -3.0678  1.0060
18504TIP3    H277004   0.962   3.960  12.982  0.3393  0.1387 -0.8340
18505TIP3   OH277005   3.010   1.185   4.145 -0.5178  0.0271 -0.0662
18505TIP3    H177006   3.016   1.096   4.178  2.1156  0.7310  1.6976
18505TIP3    H277007   3.065   1.185   4.066  1.2368  0.4922  1.1067
18506TIP3   OH277008   3.361   2.917   0.172  0.1790 -0.1819  0.3614
18506TIP3    H177009   3.398   2.936   0.086  2.2329 -0.3572  1.1485
18506TIP3    H277010   3.429   2.946   0.233 -0.7028 -1.2313  1.8790
18507TIP3   OH277011   5.026   4.546   4.062 -0.4822 -0.4186  0.3824
18507TIP3    H177012   5.030   4.451   4.070 -0.2440 -0.5412 -0.9689
18507TIP3    H277013   4.950   4.571   4.114 -1.1859 -1.4667 -0.1073
18508TIP3   OH277014   1.089   1.051   3.081  0.0202 -0.0029  0.2533
18508TIP3    H177015   1.095   0.973   3.137 -0.3346  0.7824  1.4367
18508TIP3    H277016   1.073   1.016   2.994  1.0361 -1.2944  0.5498
18509TIP3   OH277017   3.123   3.296   4.704  0.0369  0.8689 -0.4544
18509TIP3    H177018   3.104   3.323   4.794  0.8804  0.7786 -0.2444
18509TIP3    H277019   3.037   3.289   4.663 -0.4271 -0.1023  0.6354
18510TIP3   OH277020   3.115   5.125   1.637 -1.1436  0.4852  0.3927
18510TIP3    H177021   3.136   5.186   1.707  0.3250 -0.8191  1.1491
18510TIP3    H277022   3.062   5.057   1.679  0.1087 -0.5326  0.3790
18511TIP3   OH277023   6.662   4.686  17.168 -0.8962 -0.6891 -0.2734
18511TIP3    H177024   6.738   4.708  17.114 -0.4883  0.5866  0.7333
18511TIP3    H277025   6.697   4.679  17.257 -1.9285 -0.1883  0.1973
18512TIP3   OH277026   2.242   3.772   0.767  0.3722  0.8809 -0.0710
18512TIP3    H177027   2.153   3.738   0.764  0.4302  0.7952 -2.1007
18512TIP3    H277028   2.231   3.867   0.766  0.2713  0.8833 -1.6070
18513TIP3   OH277029   2.580   1.736  15.444  0.1598 -0.2549 -0.4624
18513TIP3    H177030   2.663   1.703  15.411  0.6336  1.1128 -0.7228
18513TIP3    H277031   2.605   1.809  15.501 -0.8958  0.8402 -1.3644
18514TIP3   OH277032   1.985   1.257   5.711 -0.9328  0.4845  0.3515
18514TIP3    H177033   1.911   1.296   5.665 -0.0768  1.4326 -0.2618
18514TIP3    H277034   1.971   1.278   5.803 -0.2314  2.8043  0.0037
18515TIP3   OH277035   1.301   2.348  10.951 -0.2375  0.1331 -0.2747
18515TIP3    H177036   1.306   2.437  10.985 -0.8996 -0.3665  1.2055
18515TIP3    H277037   1.377   2.341  10.893  0.8261  1.1245  0.9233
18516TIP3   OH277038   0.023   5.648  15.327  0.5204  0.4124  0.0330
18516TIP3    H177039  -0.071   5.661  15.315  0.5999  0.9070 -0.0646
18516TIP3    H277040   0.055   5.622  15.241  0.2247 -1.3242  0.4155
18517TIP3   OH277041   0.355   6.359  12.691 -0.2681  0.0110 -0.5222
18517TIP3    H177042   0.339   6.329  12.781 -0.0284 -0.0096 -0.4846
18517TIP3    H277043   0.449   6.346  12.679  0.1038  1.9746 -0.0527
18518TIP3   OH277044   1.013   4.329   5.899 -0.4347  0.1723  0.1689
18518TIP3    H177045   0.996   4.299   5.988 -0.7459 -0.4532 -0.0985
18518TIP3    H277046   0.950   4.282   5.845  1.1538 -1.1283 -0.6643
18519TIP3   OH277047   0.040   4.306  14.257  0.0329 -0.0100  0.7390
18519TIP3    H177048   0.084   4.255  14.325  0.0554  0.0629  0.7786
18519TIP3    H277049   0.006   4.240  14.197 -2.6615 -0.2956  2.3831
18520TIP3   OH277050   6.837   0.364  14.980 -0.4379  0.2258  0.9047
18520TIP3    H177051   6.893   0.290  15.001  0.9167 -0.0159 -2.8024
18520TIP3    H277052   6.751   0.326  14.964 -0.5278 -0.0612  1.9895
18521TIP3   OH277053   2.066   6.223   4.576  0.0816 -0.6162  0.0272
18521TIP3    H177054   2.091   6.298   4.523 -0.9038  0.4594  1.0387
18521TIP3    H277055   1.977   6.202   4.549 -1.0509  0.9420  2.2526
18522TIP3   OH277056   4.304   6.695   4.183  0.1702  0.5706  0.6981
18522TIP3    H177057   4.398   6.709   4.177 -0.0734  1.8146 -1.5863
18522TIP3    H277058   4.266   6.766   4.131 -1.8761 -1.5195 -0.8777
18523TIP3   OH277059   3.959   2.510   0.927  0.1026  0.0118  0.4286
18523TIP3    H177060   3.983   2.459   0.849  0.4135 -0.9937  1.1737
18523TIP3    H277061   3.882   2.465   0.962 -0.0136  0.4423  0.7322
18524TIP3   OH277062   0.987   6.162  12.242  0.3502  0.4944  0.1668
18524TIP3    H177063   1.082   6.165  12.249  0.4104  0.8470 -0.7059
18524TIP3    H277064   0.970   6.104  12.168 -0.1280  0.1474  0.5402
18525TIP3   OH277065   2.564   4.863   3.479  0.2673 -0.4052  0.4190
18525TIP3    H177066   2.656   4.840   3.491  0.4269  0.3395  0.6686
18525TIP3    H277067   2.537   4.897   3.564  0.3610  1.3723 -0.2327
18526TIP3   OH277068   1.008   2.655   1.808  0.4720 -0.7318  0.1726
18526TIP3    H177069   0.960   2.706   1.743 -0.4303 -0.5511  0.9631
18526TIP3    H277070   1.057   2.590   1.756 -1.2883 -1.4863 -0.6156
18527TIP3   OH277071   0.738   4.360   1.758  0.2241 -0.4421  0.7268
18527TIP3    H177072   0.786   4.329   1.835 -2.2045 -1.2476  2.0345
18527TIP3    H277073   0.672   4.293   1.743  0.6229 -0.3103 -2.1487
18528TIP3   OH277074   5.921   3.404   2.110  0.0191  0.0220 -0.5595
18528TIP3    H177075   5.997   3.426   2.056  0.8643 -0.5911  0.3539
18528TIP3    H277076   5.890   3.489   2.142  1.9691  0.1308  1.2349
18529TIP3   OH277077   3.689   2.764   0.425  0.1553 -0.0332  0.7048
18529TIP3    H177078   3.754   2.833   0.438  1.4401 -0.6381 -2.0376
18529TIP3    H277079   3.710   2.699   0.492  1.6595  0.2910  0.5766
18530TIP3   OH277080   4.575   6.182  14.230 -0.2728 -0.3563 -0.6758
18530TIP3    H177081   4.505   6.169  14.294  0.3933 -1.9398 -0.1974
18530TIP3    H277082   4.636   6.241  14.273 -0.6317 -0.0873 -0.5283
18531TIP3   OH277083   3.091   4.491   2.222  0.2335  0.1127  0.7248
18531TIP3    H177084   3.049   4.407   2.201 -0.1533  0.4825 -0.0071
18531TIP3    H277085   3.183   4.468   2.236  0.5916 -0.1806 -1.6062
18532TIP3   OH277086   0.212   0.076  14.821  0.1152 -0.5085  0.0798
18532TIP3    H177087   0.130   0.110  14.786 -0.5317 -1.4158  0.6676
18532TIP3    H277088   0.210   0.100  14.914  0.1539 -1.2011  0.2640
18533TIP3   OH277089   4.774   0.122   0.302  0.0912 -0.2187  0.1028
18533TIP3    H177090   4.743   0.052   0.360  1.2966  0.7085  1.9398
18533TIP3    H277091   4.762   0.202   0.352  4.4051  0.3228  0.6611
18534TIP3   OH277092   0.778   4.491   3.147  0.1727 -0.0747 -0.1509
18534TIP3    H177093   0.773   4.476   3.242  0.5215 -3.4874 -0.5292
18534TIP3    H277094   0.706   4.551   3.129  0.1908  0.8139  2.2680
18535TIP3   OH277095   4.466   2.550   3.141 -0.0950  0.2134 -0.2312
18535TIP3    H177096   4.374   2.569   3.157 -0.3150  0.9890 -2.1239
18535TIP3    H277097   4.466   2.477   3.080  0.4534  1.2379 -1.5162
18536TIP3   OH277098   0.768   5.568  11.475  0.4390 -0.4688 -0.3541
18536TIP3    H177099   0.710   5.557  11.399  0.3376 -0.8501 -0.2243
18536TIP3    H277100   0.850   5.601  11.438 -0.0837  0.7568 -0.4570
18537TIP3   OH277101   2.099   1.014  10.820  0.0352  0.9259 -0.6573
18537TIP3    H177102   2.099   1.082  10.752  0.0076  0.6898 -0.8945
18537TIP3    H277103   2.011   1.020  10.859 -0.4537  0.1401 -1.5814
18538TIP3   OH277104   6.392   0.800   1.120  0.0041 -0.4431 -0.1452
18538TIP3    H177105   6.472   0.805   1.173  0.3569  0.3592 -0.7318
18538TIP3    H277106   6.356   0.714   1.140 -0.4185  0.1987  2.1790
18539TIP3   OH277107   2.360   1.160   5.265  0.4318  0.4818 -0.4729
18539TIP3    H177108   2.397   1.122   5.345  1.5808  0.6442 -0.9048
18539TIP3    H277109   2.421   1.231   5.242  0.8821 -0.3987 -2.1982
18540TIP3   OH277110   1.100   1.458  11.839  0.2732 -0.7713  0.0827
18540TIP3    H177111   1.189   1.445  11.871  0.6760  0.3341 -0.5233
18540TIP3    H277112   1.111   1.483  11.747 -0.6532 -0.4216  0.0520
18541TIP3   OH277113   0.439   4.060  16.900  0.6364 -0.5375 -0.0286
18541TIP3    H177114   0.353   4.040  16.863  0.8015 -0.0787 -0.6840
18541TIP3    H277115   0.420   4.085  16.991 -0.1956  1.5895 -0.7236
18542TIP3   OH277116   5.421   0.240   6.526  0.2889 -0.2910  0.0234
18542TIP3    H177117   5.483   0.287   6.469 -1.0297  1.9318  0.2746
18542TIP3    H277118   5.355   0.306   6.549 -0.9039 -1.9338  1.6569
18543TIP3   OH277119   0.672   1.540  15.707  0.1687 -0.4584  0.2152
18543TIP3    H177120   0.659   1.518  15.800  0.5762 -0.3923  0.2872
18543TIP3    H277121   0.584   1.562  15.676 -0.7224 -4.3631 -0.4795
18544TIP3   OH277122   4.670   1.613  15.236  0.1209 -0.8916  0.3752
18544TIP3    H177123   4.750   1.612  15.183 -0.2535  1.2472 -0.3182
18544TIP3    H277124   4.676   1.533  15.289  2.2251 -1.2903 -0.3511
18545TIP3   OH277125   5.301   5.662   2.786  0.6279  0.1061 -0.4673
18545TIP3    H177126   5.254   5.616   2.855  0.5133  1.6031  0.5178
18545TIP3    H277127   5.298   5.603   2.711 -1.0103 -0.7207  0.1931
18546TIP3   OH277128   3.442   1.825  11.589  0.0008  0.3982 -0.4098
18546TIP3    H177129   3.427   1.886  11.517 -0.3754 -0.4399 -1.0567
18546TIP3    H277130   3.517   1.862  11.636  0.3701  0.8669 -1.3354
18547TIP3   OH277131   4.383   4.108  15.622  0.2243  0.0323 -0.0415
18547TIP3    H177132   4.402   4.198  15.597  0.6286  0.2041  0.8635
18547TIP3    H277133   4.383   4.108  15.718  0.4994 -0.9818 -0.0244
18548TIP3   OH277134   1.898   3.448   3.082 -0.0030 -0.1690 -0.6075
18548TIP3    H177135   1.863   3.535   3.099 -1.6159 -1.0688  0.9656
18548TIP3    H277136   1.948   3.426   3.161  0.0067 -0.8612 -0.8005
18549TIP3   OH277137   6.213   2.312   3.026 -0.0613  0.3781  0.4585
18549TIP3    H177138   6.148   2.257   3.070 -0.8318  0.0172 -1.0350
18549TIP3    H277139   6.258   2.253   2.965 -0.3100  1.1853 -0.5505
18550TIP3   OH277140   4.573   1.063  12.097 -0.2845 -0.5751 -0.1130
18550TIP3    H177141   4.481   1.090  12.092 -0.1050 -0.1612 -1.6657
18550TIP3    H277142   4.606   1.107  12.176 -1.4733 -0.9647  0.6395
18551TIP3   OH277143   4.249   6.534  14.099  0.0480 -0.2035 -0.4145
18551TIP3    H177144   4.317   6.551  14.165  0.3552 -1.9201 -0.2236
18551TIP3    H277145   4.181   6.486  14.147 -0.4112 -0.1671 -1.0222
18552TIP3   OH277146   6.469   1.736   1.751  0.2354 -0.3432  0.2187
18552TIP3    H177147   6.430   1.650   1.736  0.3836 -0.1732 -1.2846
18552TIP3    H277148   6.528   1.723   1.825 -0.2378 -1.3647  0.4424
18553TIP3   OH277149   3.497   2.813   5.030 -0.3629  0.4143  0.2363
18553TIP3    H177150   3.538   2.857   5.105 -0.1090 -1.6432  1.3875
18553TIP3    H277151   3.404   2.812   5.050 -0.4271  0.8656 -0.0350
18554TIP3   OH277152   1.271   3.874  16.575  0.2462  0.0004  0.0026
18554TIP3    H177153   1.318   3.792  16.589 -1.5194 -0.7852  1.8023
18554TIP3    H277154   1.292   3.927  16.652 -0.5103  0.2761  0.0245
18555TIP3   OH277155   2.621   2.805  16.106  0.0568  0.0689  0.1755
18555TIP3    H177156   2.665   2.807  16.021  0.4279  0.4698  0.3696
18555TIP3    H277157   2.537   2.848  16.091 -1.7486 -3.4761 -0.9642
18556TIP3   OH277158   6.087   2.522   0.546  0.0472 -0.2509 -0.0071
18556TIP3    H177159   6.014   2.463   0.534  0.5884 -1.1175  0.8024
18556TIP3    H277160   6.151   2.497   0.479  0.6971 -1.2919  0.9653
18557TIP3   OH277161   4.610   4.951   2.998  0.1090 -0.4066 -0.3038
18557TIP3    H177162   4.530   4.899   3.003 -0.3863  0.2862 -0.8217
18557TIP3    H277163   4.640   4.960   3.088  0.5250 -2.0572 -0.2427
18558TIP3   OH277164   6.548   2.100  14.999 -0.2330 -0.1834 -0.0765
18558TIP3    H177165   6.605   2.151  15.056  0.9024 -0.9243 -0.5161
18558TIP3    H277166   6.541   2.152  14.919 -1.9112  0.9080  0.7146
18559TIP3   OH277167   3.213   2.407   0.737 -0.4483  0.0867  0.0347
18559TIP3    H177168   3.214   2.485   0.792 -1.1777  0.6128 -0.6738
18559TIP3    H277169   3.139   2.355   0.769 -0.9161  0.4256 -0.4734
18560TIP3   OH277170   6.778   4.614  16.210 -0.6437  0.5238 -0.4603
18560TIP3    H177171   6.833   4.693  16.207  1.6333 -0.9566  0.2260
18560TIP3    H277172   6.777   4.582  16.120  3.1592 -1.6500  0.1052
18561TIP3   OH277173   5.657   1.185   5.027 -0.6160 -0.0178  0.3147
18561TIP3    H177174   5.588   1.204   4.964  1.2156 -0.1436 -1.8612
18561TIP3    H277175   5.674   1.092   5.017  0.9673  0.3173 -0.4191
18562TIP3   OH277176   1.117   2.040   0.744 -0.4118 -0.0790 -0.1771
18562TIP3    H177177   1.095   2.110   0.805  2.1908  1.0128 -0.3800
18562TIP3    H277178   1.033   2.016   0.703 -1.4224  2.8222 -0.0042
18563TIP3   OH277179   6.389   1.471  14.620 -0.5468  0.1746  0.1750
18563TIP3    H177180   6.322   1.534  14.647  0.2571  0.4664  1.5864
18563TIP3    H277181   6.433   1.446  14.701  0.1525 -1.0656 -0.5495
18564TIP3   OH277182   6.109   2.640  16.311 -0.6178 -0.2731  0.0904
18564TIP3    H177183   6.072   2.617  16.225  0.1963  0.9061 -0.6108
18564TIP3    H277184   6.153   2.724  16.296 -1.3587  0.4906  1.9307
18565TIP3   OH277185   5.568   2.863   0.798 -0.1863 -0.7810  0.5584
18565TIP3    H177186   5.598   2.954   0.802 -0.8584 -0.4040 -1.6652
18565TIP3    H277187   5.487   2.862   0.850 -0.6687  0.1232 -0.1430
18566TIP3   OH277188   0.171   0.233   0.239 -0.2369  0.0554 -0.0855
18566TIP3    H177189   0.241   0.277   0.190 -0.3767 -0.3578 -0.6788
18566TIP3    H277190   0.216   0.168   0.293 -0.1298  0.0367 -0.1962
18567TIP3   OH277191   3.122   6.046   1.229  0.2541 -0.5548 -0.2641
18567TIP3    H177192   3.213   6.077   1.228 -0.1153  0.6327  0.4280
18567TIP3    H277193   3.111   6.001   1.145  0.8210  1.2813 -1.3813
18568TIP3   OH277194   4.034   4.958  13.990 -0.8191  0.1680 -0.3360
18568TIP3    H177195   4.106   4.916  13.943 -0.4508  1.2268 -0.7514
18568TIP3    H277196   3.957   4.937  13.938 -0.2719  2.3118 -2.1866
18569TIP3   OH277197   3.861   2.262   1.643 -0.1091 -0.2478  0.7041
18569TIP3    H177198   3.934   2.302   1.690  0.6406 -0.9280  0.1272
18569TIP3    H277199   3.884   2.270   1.550 -0.6777 -0.6470  0.5186
18570TIP3   OH277200   4.462   1.989   0.875 -0.1337  0.1392  0.3602
18570TIP3    H177201   4.383   2.017   0.921 -0.9227  0.5980 -1.2038
18570TIP3    H277202   4.439   1.906   0.835  0.2405  0.1842  0.0400
18571TIP3   OH277203   0.650   6.558  10.550 -0.1086  0.0663  0.0528
18571TIP3    H177204   0.710   6.509  10.606  2.0367  1.7336 -0.6624
18571TIP3    H277205   0.580   6.586  10.609 -0.2899 -1.9816  0.9002
18572TIP3   OH277206   4.788   4.140  11.357  0.3085  0.2895  0.0059
18572TIP3    H177207   4.700   4.106  11.336  0.4390 -0.2060  0.2594
18572TIP3    H277208   4.829   4.153  11.271 -0.1799  0.9982 -0.1385
18573TIP3   OH277209   6.276   2.894   2.535 -0.5262 -0.7854 -0.0093
18573TIP3    H177210   6.214   2.888   2.462 -1.7523  1.6659  0.7260
18573TIP3    H277211   6.239   2.837   2.602 -0.5403 -1.3806 -0.5086
18574TIP3   OH277212   2.022   3.232  15.100  0.1051  0.3997 -0.4256
18574TIP3    H177213   1.936   3.224  15.141 -1.3724  0.6696 -3.2399
18574TIP3    H277214   2.010   3.198  15.012  3.2798 -0.7987 -0.5308
18575TIP3   OH277215   3.191   0.216   2.711  0.6269  0.9621 -0.0947
18575TIP3    H177216   3.253   0.144   2.724  0.1385  0.4337 -0.6290
18575TIP3    H277217   3.205   0.273   2.787  1.5104  0.6690 -0.0258
18576TIP3   OH277218   2.431   1.916  16.225  0.5227  0.0152  0.2938
18576TIP3    H177219   2.527   1.914  16.217  0.4580  1.5134 -1.3713
18576TIP3    H277220   2.400   1.946  16.139 -1.4487 -0.3562  0.8248
18577TIP3   OH277221   0.226   4.557  10.452 -0.4599 -0.2837  0.3479
18577TIP3    H177222   0.178   4.563  10.534 -3.5836  1.2016 -1.3735
18577TIP3    H277223   0.250   4.648  10.432 -0.9986 -0.4198 -1.0199
18578TIP3   OH277224   1.310   0.192  14.998  0.6001 -0.3098 -0.6637
18578TIP3    H177225   1.229   0.146  14.979  0.6206 -0.7369  0.2237
18578TIP3    H277226   1.282   0.280  15.025  0.4369 -0.4249 -0.4579
18579TIP3   OH277227   5.720   6.137   4.753  0.1651 -0.7396 -0.4062
18579TIP3    H177228   5.795   6.164   4.806 -0.2815 -0.5982  0.1582
18579TIP3    H277229   5.644   6.172   4.799 -0.2350 -0.6439 -1.1189
18580TIP3   OH277230   1.206   1.289   3.866  0.1201 -0.3316 -0.4408
18580TIP3    H177231   1.181   1.222   3.930 -0.8775  1.5558  1.2397
18580TIP3    H277232   1.135   1.288   3.801  0.3874 -1.2359 -0.7362
18581TIP3   OH277233   3.147   3.946   4.824  0.0234  0.3529 -0.2276
18581TIP3    H177234   3.148   3.850   4.821  3.2126  0.2928 -0.5729
18581TIP3    H277235   3.100   3.971   4.744 -1.7958 -0.8305  0.3795
18582TIP3   OH277236   6.643   3.985  15.774  0.5513 -0.4696 -0.0427
18582TIP3    H177237   6.620   4.020  15.860  1.3059 -1.3052  0.5233
18582TIP3    H277238   6.569   3.930  15.749  0.6196 -0.7768  0.4076
18583TIP3   OH277239   3.749   3.275   3.142  0.3993  0.3585  0.4422
18583TIP3    H177240   3.815   3.344   3.144  2.1093 -1.1950  2.1625
18583TIP3    H277241   3.793   3.201   3.100 -0.4417 -0.5285  1.0789
18584TIP3   OH277242   1.153   0.930   5.654 -0.2077  0.3128 -0.6371
18584TIP3    H177243   1.106   0.924   5.572  2.6001 -3.9141 -2.2971
18584TIP3    H277244   1.242   0.957   5.629  0.4496 -0.0509  1.1181
18585TIP3   OH277245   6.239   1.055  15.637  0.1144 -0.0089  0.5814
18585TIP3    H177246   6.219   1.130  15.581 -1.3903 -1.2038 -0.5775
18585TIP3    H277247   6.332   1.039  15.624  0.0860  0.6169 -0.4762
18586TIP3   OH277248   5.818   3.304   3.413 -0.1777 -0.2418 -0.4139
18586TIP3    H177249   5.732   3.264   3.401  0.2628 -1.1643 -0.5392
18586TIP3    H277250   5.799   3.392   3.447 -1.1677 -0.3823 -0.5844
18587TIP3   OH277251   4.094   1.051   1.874  0.2046  0.6680  0.2499
18587TIP3    H177252   4.030   1.097   1.929  0.5103  0.0348  1.1506
18587TIP3    H277253   4.061   0.961   1.869  0.5592  0.5518 -0.0116
18588TIP3   OH277254   0.973   1.297  15.270  0.1511  0.2039  0.3028
18588TIP3    H177255   0.878   1.286  15.270  0.0172  0.9070 -2.1105
18588TIP3    H277256   0.993   1.329  15.359 -1.5530 -1.8540  1.5273
18589TIP3   OH277257   6.674   3.385  12.007  0.4201  0.3396 -0.4002
18589TIP3    H177258   6.687   3.435  12.088 -0.5018  0.0347 -0.0492
18589TIP3    H277259   6.661   3.452  11.940 -0.4274  0.5942 -0.0003
18590TIP3   OH277260   5.875   4.604   3.566  0.1192  0.3560  0.2888
18590TIP3    H177261   5.793   4.653   3.559  0.1637  0.2668 -1.4360
18590TIP3    H277262   5.882   4.558   3.482  0.4511 -2.0405  1.5305
18591TIP3   OH277263   0.825   2.203   4.280 -0.3689 -0.4422  0.0422
18591TIP3    H177264   0.868   2.137   4.226 -0.6587 -0.7115  0.1421
18591TIP3    H277265   0.732   2.198   4.256 -0.3791 -0.0029 -0.0239
18592TIP3   OH277266   3.479   5.752  10.396  0.2536  0.1645  0.7464
18592TIP3    H177267   3.549   5.803  10.356 -0.6364  0.4602 -0.5086
18592TIP3    H277268   3.409   5.815  10.413  0.4566 -0.0244  2.4964
18593TIP3   OH277269   6.607   1.522   5.633  0.5454 -0.1718 -0.1282
18593TIP3    H177270   6.571   1.520   5.722  1.2749  1.1579  0.2300
18593TIP3    H277271   6.582   1.438   5.595 -1.3565 -0.0310  0.6984
18594TIP3   OH277272   2.345   6.538   4.201 -0.6237 -0.3958 -0.3744
18594TIP3    H177273   2.344   6.633   4.213  0.5603 -0.1594 -1.7765
18594TIP3    H277274   2.268   6.519   4.147 -0.5264 -0.1365 -0.6079
18595TIP3   OH277275   6.277   1.770  11.980  0.5129  0.1790  0.1469
18595TIP3    H177276   6.271   1.711  11.905 -1.0457 -0.6968  0.9233
18595TIP3    H277277   6.303   1.854  11.942  0.6034 -0.4545 -1.2536
18596TIP3   OH277278   0.487   4.029   2.215 -0.2683  0.1635 -0.6017
18596TIP3    H177279   0.540   3.956   2.248  0.1335 -0.5078 -2.5831
18596TIP3    H277280   0.486   4.093   2.286  1.5686 -0.6545  0.2153
18597TIP3   OH277281   5.156   5.765  15.503  0.7241  0.3382 -0.1247
18597TIP3    H177282   5.179   5.745  15.413 -0.4166 -1.1343 -0.1315
18597TIP3    H277283   5.172   5.683  15.550 -0.2193  0.6042  0.6866
18598TIP3   OH277284   4.462   6.664  14.920  0.6050 -0.2820  0.2147
18598TIP3    H177285   4.374   6.670  14.959 -0.3001 -1.3038 -1.5319
18598TIP3    H277286   4.509   6.603  14.975 -0.4380 -1.2197  0.0996
18599TIP3   OH277287   4.903   3.113   5.120  0.5680  0.2364  0.2299
18599TIP3    H177288   4.839   3.183   5.132  0.6177 -0.1571  3.9430
18599TIP3    H277289   4.880   3.073   5.036 -3.6360  0.6006  0.9909
18600TIP3   OH277290   0.410   3.367   2.107  0.0519 -0.1328 -0.1744
18600TIP3    H177291   0.346   3.436   2.122 -0.3861  0.0395 -2.5002
18600TIP3    H277292   0.475   3.407   2.050  1.0232 -0.9939  0.2949
18601TIP3   OH277293   3.463   3.367  14.278  0.0381 -0.3558  0.3323
18601TIP3    H177294   3.370   3.347  14.264  0.4444 -1.4004 -1.1621
18601TIP3    H277295   3.463   3.441  14.339 -1.8313  0.4579 -0.5536
18602TIP3   OH277296   0.626   5.603   3.240  0.2343 -0.4497  0.2516
18602TIP3    H177297   0.629   5.520   3.191 -0.0712  0.3784 -1.2513
18602TIP3    H277298   0.617   5.577   3.331 -0.4017 -2.0732 -0.2356
18603TIP3   OH277299   6.477   6.255   4.600  0.4713 -0.2685  0.1484
18603TIP3    H177300   6.393   6.217   4.574  0.6025 -0.2912 -0.2395
18603TIP3    H277301   6.475   6.344   4.565  0.8501 -0.4577 -0.3606
18604TIP3   OH277302   5.432   2.725   1.048 -0.0583  0.1763  0.5498
18604TIP3    H177303   5.524   2.700   1.052 -0.3505 -1.1451 -0.3467
18604TIP3    H277304   5.411   2.751   1.137  0.9320 -0.4793  0.9969
18605TIP3   OH277305   2.495   6.350   4.356 -0.1465  0.2606 -0.0822
18605TIP3    H177306   2.444   6.272   4.381 -2.0940  2.0661  2.0053
18605TIP3    H277307   2.439   6.397   4.295  1.0064  0.0980 -1.3066
18606TIP3   OH277308   6.472   3.346  13.087  0.0156  0.3180 -0.1709
18606TIP3    H177309   6.423   3.280  13.038 -0.0590 -1.0615  1.6842
18606TIP3    H277310   6.423   3.427  13.072 -2.7073 -0.9254  1.2994
18607TIP3   OH277311   5.459   6.570  13.436  0.1330  0.0604 -0.6428
18607TIP3    H177312   5.405   6.639  13.398  1.5397  0.4004 -2.1616
18607TIP3    H277313   5.517   6.615  13.498  2.3297  0.6711 -2.9725
18608TIP3   OH277314   4.036   2.588  16.696 -0.0808  0.7917 -0.0920
18608TIP3    H177315   3.962   2.538  16.731  1.1214 -0.3971  0.8943
18608TIP3    H277316   4.040   2.667  16.751  0.3311  0.0820  0.9434
18609TIP3   OH277317   0.360   0.859  12.782 -0.1988  0.2706 -0.0740
18609TIP3    H177318   0.326   0.938  12.825  1.4880  0.3671  1.1966
18609TIP3    H277319   0.295   0.791  12.801 -1.1831  1.1184 -0.3485
18610TIP3   OH277320   5.659   5.370   2.890  0.3038 -0.0719 -0.1356
18610TIP3    H177321   5.749   5.343   2.870  0.8457  1.4902  0.0898
18610TIP3    H277322   5.630   5.309   2.957  1.1857 -0.6192 -0.2368
18611TIP3   OH277323   6.316   1.749  16.367  0.0475 -0.0748 -0.3397
18611TIP3    H177324   6.346   1.740  16.277  0.3492 -1.6345 -0.1147
18611TIP3    H277325   6.360   1.678  16.414  0.2751  1.0113  1.1422
18612TIP3   OH277326   1.127   2.283   4.226 -0.7879 -0.6052  0.2016
18612TIP3    H177327   1.144   2.370   4.190  0.1830 -0.4924  0.9103
18612TIP3    H277328   1.039   2.261   4.194 -1.0832  0.6596  0.0833
18613TIP3   OH277329   2.000   0.798   4.393  0.3809 -0.3606  0.4597
18613TIP3    H177330   2.023   0.884   4.360  1.9209 -0.8679  0.1589
18613TIP3    H277331   2.051   0.737   4.340  1.8640 -1.2744  2.7801
18614TIP3   OH277332   5.797   4.964  12.807 -0.0404  0.3283 -0.0547
18614TIP3    H177333   5.752   5.003  12.733  0.3618  0.4166 -0.2585
18614TIP3    H277334   5.889   4.962  12.780  0.2868  1.4212  0.8877
18615TIP3   OH277335   2.848   3.929   3.720 -0.0053 -0.4771 -0.4305
18615TIP3    H177336   2.825   4.009   3.767  1.0283 -1.9271  2.8477
18615TIP3    H277337   2.918   3.955   3.660  0.1460  1.0903  0.3837
18616TIP3   OH277338   5.378   3.948  14.077 -0.2174  0.3671 -0.3734
18616TIP3    H177339   5.346   3.863  14.045 -0.5951  0.7726 -1.1193
18616TIP3    H277340   5.369   3.943  14.172  2.7117 -1.6154 -0.0705
18617TIP3   OH277341   2.504   1.700   2.688 -0.6671 -0.5735  0.0352
18617TIP3    H177342   2.535   1.629   2.631  3.4477  0.4631  0.6303
18617TIP3    H277343   2.508   1.662   2.776 -1.6651 -0.5310  0.1093
18618TIP3   OH277344   1.950   5.546  16.250  0.2863  0.6636  0.1634
18618TIP3    H177345   2.002   5.616  16.210 -1.5378  2.3484  0.5866
18618TIP3    H277346   1.967   5.553  16.344 -0.4624  1.0357  0.2753
18619TIP3   OH277347   4.081   3.591   1.422 -0.3390 -0.3965 -0.5385
18619TIP3    H177348   4.167   3.618   1.453  0.0549  0.2308 -2.0486
18619TIP3    H277349   4.088   3.595   1.326 -1.7650 -1.2425 -0.7129
18620TIP3   OH277350   1.155   3.713  11.876  0.1788 -0.5494  0.8764
18620TIP3    H177351   1.122   3.736  11.963  0.7203 -0.8999  1.1835
18620TIP3    H277352   1.205   3.632  11.890  0.7788 -0.2796  0.3493
18621TIP3   OH277353   2.162   2.542   4.129  0.4592 -0.0048  0.2154
18621TIP3    H177354   2.115   2.548   4.212  1.2337 -0.1725  0.6748
18621TIP3    H277355   2.149   2.451   4.101  2.2909 -0.6909  1.4370
18622TIP3   OH277356   1.475   4.409  12.924 -0.5624 -0.4780  0.2597
18622TIP3    H177357   1.518   4.337  12.877 -1.6532 -1.5982  0.8928
18622TIP3    H277358   1.430   4.459  12.857  0.8325  0.0929 -0.2845
18623TIP3   OH277359   1.090   3.662  15.407  0.2130  0.4952 -0.5496
18623TIP3    H177360   1.112   3.729  15.342 -0.0738  0.0826 -1.0826
18623TIP3    H277361   0.998   3.641  15.390  0.3112 -0.0664 -0.4264
18624TIP3   OH277362   2.138   5.259   1.483  0.2032 -0.1035  0.0104
18624TIP3    H177363   2.062   5.315   1.501  0.7445  0.7144 -0.1872
18624TIP3    H277364   2.102   5.170   1.483 -0.9017  0.3133 -0.8479
18625TIP3   OH277365   0.362   5.364   5.253 -0.1569 -0.4081  0.0211
18625TIP3    H177366   0.444   5.320   5.231 -0.4832 -0.2301 -1.7505
18625TIP3    H277367   0.359   5.364   5.348  1.3400 -1.4440  0.1031
18626TIP3   OH277368   0.517   4.146   3.556 -0.0539 -0.5730 -0.3413
18626TIP3    H177369   0.438   4.189   3.523 -0.2728 -0.2711  0.5583
18626TIP3    H277370   0.488   4.099   3.634  0.7282 -0.1587  0.2057
18627TIP3   OH277371   3.576   5.471   5.402 -0.1067  0.2220  0.0015
18627TIP3    H177372   3.527   5.430   5.473  0.1231  0.8694  0.5386
18627TIP3    H277373   3.561   5.414   5.327  0.1851 -0.8247  0.7257
18628TIP3   OH277374   6.597   0.835   1.309  0.5801  0.0446 -0.6477
18628TIP3    H177375   6.563   0.906   1.363  0.9868  0.1191 -0.4849
18628TIP3    H277376   6.615   0.764   1.370  2.6739  0.7211 -0.3951
18629TIP3   OH277377   6.040   4.470  16.941  0.0544  0.1112 -0.9384
18629TIP3    H177378   6.090   4.543  16.979  1.2957  0.2744 -2.7740
18629TIP3    H277379   6.051   4.480  16.846  0.4988 -2.6331 -1.2587
18630TIP3   OH277380   2.888   2.161  11.459 -0.0518 -0.4573  0.0027
18630TIP3    H177381   2.830   2.105  11.407  0.5212  0.2247 -1.3952
18630TIP3    H277382   2.829   2.226  11.498 -0.3263 -0.1802 -0.8548
18631TIP3   OH277383   0.960   1.547  12.591  0.1125 -0.1913 -0.1845
18631TIP3    H177384   0.984   1.482  12.656  1.3214 -0.7873 -1.1736
18631TIP3    H277385   0.914   1.498  12.523  1.5226 -0.1671 -1.2099
18632TIP3   OH277386   5.927   3.144  13.123  0.5253  0.0587  0.3652
18632TIP3    H177387   5.962   3.061  13.156  1.7406  0.2842 -0.2970
18632TIP3    H277388   5.898   3.191  13.201 -0.7086 -1.1994  0.7017
18633TIP3   OH277389   4.757   5.934  12.698 -0.3647 -0.2665  0.6610
18633TIP3    H177390   4.704   5.977  12.632  0.9212 -0.7478 -0.7447
18633TIP3    H277391   4.721   5.845  12.704 -0.0628 -0.4276  0.1053
18634TIP3   OH277392   1.913   5.607   0.081  0.0414  0.5470  0.9451
18634TIP3    H177393   1.902   5.528   0.028  1.4861  0.9315  0.0138
18634TIP3    H277394   1.906   5.679   0.019 -0.6028  1.1288  1.6816
18635TIP3   OH277395   5.581   5.064   3.489 -0.3868 -0.0934 -0.1265
18635TIP3    H177396   5.642   5.131   3.518  1.7688 -2.0833  0.2453
18635TIP3    H277397   5.540   5.032   3.570  0.5779 -0.9938  0.0309
18636TIP3   OH277398   2.322   5.564   1.631 -0.1336 -0.0763  0.2562
18636TIP3    H177399   2.410   5.590   1.659  0.3009 -1.4699  0.2530
18636TIP3    H277400   2.264   5.601   1.697  0.3892  1.2591  0.0107
18637TIP3   OH277401   4.105   4.162   4.740  0.0521 -0.3034  0.2814
18637TIP3    H177402   4.165   4.197   4.806 -0.3866 -1.6621  1.4584
18637TIP3    H277403   4.022   4.150   4.786 -1.4302  2.1738 -1.4733
18638TIP3   OH277404   4.089   5.126  15.300 -0.2346  0.0073 -0.4102
18638TIP3    H177405   4.178   5.141  15.268 -0.7469  2.0485 -1.0563
18638TIP3    H277406   4.055   5.057  15.242  0.3758  0.4319 -1.3116
18639TIP3   OH277407   6.722   6.258   2.308  0.0138  0.2794  0.6064
18639TIP3    H177408   6.818   6.255   2.313  0.0044  0.6686  1.0693
18639TIP3    H277409   6.703   6.302   2.225  0.2181 -1.3557 -0.3546
18640TIP3   OH277410   5.681   5.617  17.092 -0.4994 -0.7425 -0.2052
18640TIP3    H177411   5.590   5.589  17.094  0.0857 -2.7886  1.4688
18640TIP3    H277412   5.680   5.706  17.127 -1.8093 -0.8798  0.1329
18641TIP3   OH277413   0.634   6.203  14.797  0.0793 -0.1403 -0.2420
18641TIP3    H177414   0.695   6.132  14.817 -0.3531 -0.6425 -0.6764
18641TIP3    H277415   0.666   6.239  14.715 -0.1816 -0.3794 -0.4510
18642TIP3   OH277416   0.231   0.403  11.698 -0.5152 -0.0367  0.7840
18642TIP3    H177417   0.260   0.461  11.627 -0.4139  1.0932  1.7200
18642TIP3    H277418   0.299   0.336  11.702 -0.1949  0.2431  0.2251
18643TIP3   OH277419   0.199   0.933   3.459 -0.8566  0.7820 -0.0203
18643TIP3    H177420   0.239   1.009   3.501  0.2177  0.2623 -0.0616
18643TIP3    H277421   0.204   0.864   3.526 -0.5831  0.3845 -0.4425
18644TIP3   OH277422   4.379   4.168  14.373 -0.2358  0.5030 -0.2707
18644TIP3    H177423   4.338   4.250  14.399 -0.0963  0.3752  0.3530
18644TIP3    H277424   4.370   4.110  14.449 -2.4846 -0.8972 -1.4988
18645TIP3   OH277425   1.918   4.252   0.186  0.6164  0.6191 -0.1745
18645TIP3    H177426   1.914   4.347   0.199  0.4693  0.7066 -0.8182
18645TIP3    H277427   1.993   4.224   0.238 -1.0312  0.6503  2.3768
18646TIP3   OH277428   3.245   3.398   5.069 -0.0262 -0.1860  0.2769
18646TIP3    H177429   3.287   3.314   5.047 -0.4888 -1.0454  2.4617
18646TIP3    H277430   3.179   3.375   5.135  0.0420  1.9546  1.1488
18647TIP3   OH277431   0.991   5.668   5.381  0.2295  0.5994  0.5219
18647TIP3    H177432   1.048   5.733   5.341 -0.2223  0.1414 -0.9471
18647TIP3    H277433   1.051   5.599   5.411  0.4788  0.0410 -1.1610
18648TIP3   OH277434   6.764   4.789   2.933 -0.3355 -0.1943  0.3798
18648TIP3    H177435   6.753   4.803   2.839 -0.7525  0.6367  0.5474
18648TIP3    H277436   6.806   4.869   2.965  0.8591 -0.9280  0.7306
18649TIP3   OH277437   6.370   3.533  13.364 -0.8455 -0.3085  0.0231
18649TIP3    H177438   6.354   3.519  13.271 -2.1172 -0.0078  0.1804
18649TIP3    H277439   6.464   3.515  13.375 -0.1183  1.9836 -1.7486
18650TIP3   OH277440   1.329   2.116  11.155 -0.6394 -0.0764 -0.6314
18650TIP3    H177441   1.328   2.137  11.062 -0.0709  0.0749 -0.6083
18650TIP3    H277442   1.270   2.042  11.164 -2.0607  0.9761 -0.8492
18651TIP3   OH277443   3.462   6.328  12.335 -0.1601  0.0054 -0.0599
18651TIP3    H177444   3.535   6.269  12.316 -1.1708 -0.8605 -1.4075
18651TIP3    H277445   3.466   6.341  12.430  2.0675  0.4501 -0.1577
18652TIP3   OH277446   6.556   2.345   0.821  0.2164  0.0403 -0.3858
18652TIP3    H177447   6.485   2.376   0.877  0.4348  1.2269 -0.7344
18652TIP3    H277448   6.524   2.358   0.731  0.4163 -0.5177 -0.5435
18653TIP3   OH277449   6.443   2.981  11.543  0.4233 -0.4763  0.3564
18653TIP3    H177450   6.459   3.051  11.606  4.3750 -1.0739  0.2983
18653TIP3    H277451   6.477   3.015  11.460 -0.3601 -1.3981 -0.3621
18654TIP3   OH277452   2.362   1.273   1.552  0.1041  0.3502 -0.1124
18654TIP3    H177453   2.366   1.177   1.544  0.3180  0.4381 -1.3432
18654TIP3    H277454   2.271   1.295   1.533 -0.2477  0.3152  1.4296
18655TIP3   OH277455   6.805   5.758  17.108 -0.4907  0.3575  0.0286
18655TIP3    H177456   6.756   5.830  17.149 -1.2917  0.4517 -1.0574
18655TIP3    H277457   6.886   5.799  17.078  0.1433  0.2758  1.5287
18656TIP3   OH277458   4.969   2.837  15.965  0.6396  0.3016 -0.2354
18656TIP3    H177459   4.918   2.783  15.905  0.8394  1.5496 -1.5729
18656TIP3    H277460   4.905   2.877  16.023  0.2204  0.7440 -0.9951
18657TIP3   OH277461   6.085   2.555   3.992 -0.3656 -0.2233 -0.3008
18657TIP3    H177462   6.162   2.580   4.042 -0.5723 -0.1025 -0.0359
18657TIP3    H277463   6.096   2.597   3.907 -0.1146 -0.2508 -0.2813
18658TIP3   OH277464   6.371   6.829  11.274 -0.1412 -0.0697 -0.0209
18658TIP3    H177465   6.446   6.885  11.295 -0.2555 -0.0450  0.3159
18658TIP3    H277466   6.393   6.744  11.310  0.1863 -0.3400 -0.8344
18659TIP3   OH277467   5.017   4.071   6.771  0.4476 -0.1073  0.5062
18659TIP3    H177468   4.975   4.054   6.855  0.2227  0.4379  0.5066
18659TIP3    H277469   5.110   4.054   6.787  0.4891  0.5815  1.0254
18660TIP3   OH277470   2.715   5.584   0.965 -0.0235 -0.1548  0.0214
18660TIP3    H177471   2.724   5.629   1.049 -0.1511 -0.8449  0.4066
18660TIP3    H277472   2.736   5.651   0.900 -1.4905  0.8291  0.5138
18661TIP3   OH277473   5.568   3.284   5.435 -0.1534 -0.4868 -0.5055
18661TIP3    H177474   5.609   3.213   5.384  0.6416 -0.3097 -0.1244
18661TIP3    H277475   5.518   3.238   5.503 -0.0047 -0.6985 -0.5345
18662TIP3   OH277476   5.945   4.061  15.192  0.0439 -0.1968  0.6611
18662TIP3    H177477   5.989   4.146  15.180 -1.4517  0.4671 -0.4649
18662TIP3    H277478   5.852   4.083  15.193 -0.6261 -2.1045 -3.2037
18663TIP3   OH277479   4.506   1.524   4.579  0.3182  0.1653  0.4252
18663TIP3    H177480   4.420   1.538   4.618  1.0717  1.5630  1.6320
18663TIP3    H277481   4.495   1.444   4.526 -1.6692  0.2553  0.6379
18664TIP3   OH277482   4.826   6.493   4.417 -0.7500  0.4348  0.1884
18664TIP3    H177483   4.764   6.426   4.446  0.7342 -0.3058  1.7815
18664TIP3    H277484   4.850   6.466   4.328 -0.5379 -0.8905  0.6262
18665TIP3   OH277485   4.794   3.602  17.183 -0.2117 -0.0397  0.1787
18665TIP3    H177486   4.830   3.597  17.094  1.6859 -1.3774  0.9555
18665TIP3    H277487   4.804   3.694  17.207  0.3975  0.0973 -0.5521
18666TIP3   OH277488   5.900   1.437   3.271 -0.0768  0.8885 -0.3358
18666TIP3    H177489   5.915   1.516   3.323 -1.4446 -0.1296  1.7497
18666TIP3    H277490   5.846   1.382   3.327  1.9351 -2.1430 -1.1234
18667TIP3   OH277491   2.038   2.256   0.085 -0.4280 -0.6821 -0.4501
18667TIP3    H177492   2.098   2.229   0.015 -0.8888 -1.2970 -0.6117
18667TIP3    H277493   2.029   2.178   0.140  0.1942 -0.1125  0.4961
18668TIP3   OH277494   4.915   5.740   0.006  0.5244 -0.7696  0.0294
18668TIP3    H177495   4.949   5.662  -0.037 -0.5495 -1.7782  0.9550
18668TIP3    H277496   4.979   5.762   0.073 -0.0674 -1.9937  1.0245
18669TIP3   OH277497   6.026   4.607  15.045 -0.1145  0.3178 -0.1871
18669TIP3    H177498   6.031   4.513  15.028 -1.8929  0.0693  0.5006
18669TIP3    H277499   6.101   4.644  14.998 -0.1866 -1.2737 -1.6284
18670TIP3   OH277500   6.743   2.692  11.865 -0.2667  0.1844 -0.2544
18670TIP3    H177501   6.720   2.728  11.779  1.3894  2.1248  0.0438
18670TIP3    H277502   6.839   2.690  11.865 -0.2270  0.6984  1.7318
18671TIP3   OH277503   4.255   0.794  11.290 -0.4071 -0.5565  0.0622
18671TIP3    H177504   4.180   0.822  11.237 -0.0405 -0.9113 -0.6644
18671TIP3    H277505   4.233   0.821  11.379 -0.6141  0.9088 -0.4134
18672TIP3   OH277506   2.913   6.299  10.616 -0.1012 -0.7339 -0.2374
18672TIP3    H177507   2.986   6.352  10.583 -1.5588  0.8776 -1.0105
18672TIP3    H277508   2.951   6.212  10.631  1.5416 -0.4493 -2.3915
18673TIP3   OH277509   1.110   0.559  13.343 -0.6316 -0.2683  0.8781
18673TIP3    H177510   1.166   0.602  13.278  1.4273  1.9502  3.8726
18673TIP3    H277511   1.078   0.480  13.298  3.1403 -0.5675 -1.8015
18674TIP3   OH277512   1.655   6.119  17.083 -0.4077  0.2217  0.7386
18674TIP3    H177513   1.598   6.149  17.013 -2.1416 -0.0900  1.9713
18674TIP3    H277514   1.744   6.131  17.048 -1.1853  1.2093 -1.0194
18675TIP3   OH277515   3.199   1.395   0.176 -0.5918  0.3445 -0.4153
18675TIP3    H177516   3.180   1.356   0.262 -3.1329  2.0381 -0.0908
18675TIP3    H277517   3.230   1.483   0.197  1.2304 -0.0521 -1.2376
18676TIP3   OH277518   4.686   0.411   1.425 -0.2606  0.4352  0.2389
18676TIP3    H177519   4.599   0.437   1.455 -0.0717  1.1543  0.1699
18676TIP3    H277520   4.714   0.346   1.488 -2.1507 -2.2636 -1.4469
18677TIP3   OH277521   2.093   0.900  16.043 -0.3406 -0.1064  0.4863
18677TIP3    H177522   2.046   0.981  16.023  0.4082  0.3640  0.5721
18677TIP3    H277523   2.033   0.830  16.017 -0.5892  0.4718 -0.5439
18678TIP3   OH277524   5.817   3.695  12.047 -0.8439 -0.0187  0.7379
18678TIP3    H177525   5.893   3.687  12.105 -1.5055  1.4745  1.8721
18678TIP3    H277526   5.791   3.787  12.055 -2.2149 -0.2915 -0.3422
18679TIP3   OH277527   0.075   0.146  16.123 -0.0004 -0.1184 -0.3374
18679TIP3    H177528   0.047   0.082  16.058 -1.6686 -0.5194  0.7435
18679TIP3    H277529   0.144   0.102  16.173  1.9637  0.4997 -2.3115
18680TIP3   OH277530   1.549   4.476   1.495  0.2470  0.1790 -0.1252
18680TIP3    H177531   1.503   4.400   1.459 -0.2708  0.4345 -0.0156
18680TIP3    H277532   1.598   4.442   1.570 -1.0746  0.1861  0.7783
18681TIP3   OH277533   5.929   5.909  12.517  0.2851  0.6371  0.5933
18681TIP3    H177534   5.870   5.978  12.547 -1.3881 -0.6529  0.3949
18681TIP3    H277535   5.965   5.872  12.597  1.2474  1.7451  0.7000
18682TIP3   OH277536   2.710   4.592   4.437 -0.2421  0.2860  0.0913
18682TIP3    H177537   2.802   4.618   4.435 -0.6000  1.5597 -1.6873
18682TIP3    H277538   2.668   4.658   4.493 -0.1053 -0.2044  0.7764
18683TIP3   OH277539   6.147   4.687  12.374  0.2255  0.5108 -0.3456
18683TIP3    H177540   6.149   4.781  12.387  0.4156  0.5198 -0.4326
18683TIP3    H277541   6.084   4.654  12.438  0.9763  0.5734  0.4406
18684TIP3   OH277542   5.689   3.761  14.132  0.2926  0.0027  0.0421
18684TIP3    H177543   5.654   3.830  14.189  0.1757 -0.7633  0.9245
18684TIP3    H277544   5.725   3.808  14.057 -2.6442  0.8440 -0.9731
18685TIP3   OH277545   5.393   3.427   2.574 -0.6635  0.0838  0.1740
18685TIP3    H177546   5.402   3.344   2.527  0.4332 -0.7371  1.7124
18685TIP3    H277547   5.313   3.416   2.626  0.4011 -0.7657  1.7044
18686TIP3   OH277548   2.350   1.034  14.218 -0.6808 -0.2695 -0.2849
18686TIP3    H177549   2.301   0.952  14.218 -0.9241 -0.1280 -1.0233
18686TIP3    H277550   2.305   1.089  14.154 -0.1770  0.2340 -0.2102
18687TIP3   OH277551   2.869   6.413   5.033 -0.1493  0.2930  0.0956
18687TIP3    H177552   2.953   6.392   5.072 -1.2674 -2.5700  1.2259
18687TIP3    H277553   2.813   6.436   5.107 -1.0650 -0.5609 -0.3076
18688TIP3   OH277554   4.561   2.932  11.012 -0.5298  0.3431 -0.3184
18688TIP3    H177555   4.652   2.929  10.983 -0.4347 -1.1300  0.0776
18688TIP3    H277556   4.513   2.877  10.950 -0.8748 -0.1776  0.3998
18689TIP3   OH277557   3.816   3.374   1.575 -0.2833 -0.0975  0.3429
18689TIP3    H177558   3.778   3.459   1.597 -0.2217  0.1782 -0.5820
18689TIP3    H277559   3.742   3.320   1.548 -0.0327  0.5681 -1.8669
18690TIP3   OH277560   3.971   2.393  12.486 -0.3718 -0.8166  0.0513
18690TIP3    H177561   4.059   2.432  12.492 -0.3815 -0.8901  0.8170
18690TIP3    H277562   3.912   2.463  12.515 -0.5116 -0.9672  0.1296
18691TIP3   OH277563   3.832   0.660  14.284 -0.4315 -0.6032  0.2999
18691TIP3    H177564   3.897   0.726  14.310 -1.6850  0.9738 -0.3994
18691TIP3    H277565   3.747   0.701  14.303 -1.2636 -1.8349 -0.5973
18692TIP3   OH277566   5.195   5.420  14.847  0.0535  0.8505 -0.4242
18692TIP3    H177567   5.133   5.430  14.775  0.5584  1.4737 -0.7868
18692TIP3    H277568   5.238   5.336  14.830 -0.8215  0.3135 -0.0523
18693TIP3   OH277569   6.505   3.823  13.142 -0.4342 -0.8130  0.0358
18693TIP3    H177570   6.474   3.836  13.231  2.2657  1.3061  0.8342
18693TIP3    H277571   6.563   3.747  13.147  0.1424 -0.3723  0.2725
18694TIP3   OH277572   1.410   1.475  16.479 -0.1578 -0.2006  0.4454
18694TIP3    H177573   1.359   1.553  16.497  1.1850  0.8102  0.0479
18694TIP3    H277574   1.413   1.470  16.383  0.6244 -0.1333  0.4604
18695TIP3   OH277575   0.019   2.249  15.631 -0.7141  0.0112 -0.7989
18695TIP3    H177576   0.096   2.228  15.683 -0.2951  0.2251 -1.3292
18695TIP3    H277577  -0.037   2.300  15.690 -0.6477 -0.5028 -0.2798
18696TIP3   OH277578   5.959   3.820  16.524 -0.3351  0.0439 -0.1653
18696TIP3    H177579   5.955   3.859  16.611 -0.0351 -0.7271  0.2030
18696TIP3    H277580   5.993   3.732  16.539  0.6357  0.2300 -1.1657
18697TIP3   OH277581   5.510   3.225  13.872 -0.1018 -0.1722 -0.0870
18697TIP3    H177582   5.589   3.274  13.896 -0.7333  0.0117  1.8045
18697TIP3    H277583   5.446   3.293  13.851 -0.4659 -0.2185  0.8273
18698TIP3   OH277584   0.291   2.537   2.032 -0.5956  0.4083 -0.3573
18698TIP3    H177585   0.212   2.585   2.006 -2.8278 -2.4517  0.5674
18698TIP3    H277586   0.283   2.453   1.986  1.9625  0.0193 -0.2186
18699TIP3   OH277587   6.049   5.801  12.722  0.0414  0.1753  0.4292
18699TIP3    H177588   6.140   5.829  12.733 -0.1250  1.1285 -0.5554
18699TIP3    H277589   6.056   5.708  12.698  0.9612  0.9300 -2.6087
18700TIP3   OH277590   1.019   2.741  11.326 -0.2067 -0.2251  0.4188
18700TIP3    H177591   1.091   2.772  11.272 -0.1445  1.5051  1.4112
18700TIP3    H277592   1.054   2.665  11.373  0.2963 -0.6389 -0.6129
18701TIP3   OH277593   2.776   4.236  16.308  0.4111  0.1383  0.5599
18701TIP3    H177594   2.828   4.308  16.272 -1.1454  1.2200  0.4280
18701TIP3    H277595   2.718   4.277  16.372 -1.8366 -0.6527 -0.8491
18702TIP3   OH277596   0.272   2.938  13.294 -0.0125  0.0377  0.1487
18702TIP3    H177597   0.297   2.882  13.367  1.5077  1.1406  0.5136
18702TIP3    H277598   0.256   3.024  13.334  1.1549  0.7351 -0.8175
18703TIP3   OH277599   5.509   1.152   5.288 -0.2985  0.9691  0.4959
18703TIP3    H177600   5.578   1.126   5.228 -0.1070  1.2498  0.5925
18703TIP3    H277601   5.435   1.176   5.231 -0.1077  1.2626  0.3695
18704TIP3   OH277602   1.878   3.877  12.958  0.2633  0.0953 -0.5768
18704TIP3    H177603   1.876   3.836  12.871  0.4727  0.2943 -0.6770
18704TIP3    H277604   1.858   3.806  13.018  1.0849 -0.2568 -0.7095
18705TIP3   OH277605   3.977   2.900  12.729 -0.2414 -0.3465 -0.3126
18705TIP3    H177606   3.919   2.890  12.805  0.9365 -0.8891  0.5382
18705TIP3    H277607   3.918   2.923  12.657 -1.2481  1.5948  1.0379
18706TIP3   OH277608   4.399   6.218  13.035 -0.4881 -0.0836 -0.3056
18706TIP3    H177609   4.442   6.244  12.954  0.2883 -0.7402 -0.1124
18706TIP3    H277610   4.395   6.299  13.087 -1.1557  0.3750 -1.0639
18707TIP3   OH277611   0.146   5.020   2.708 -0.2478 -0.0340  0.6520
18707TIP3    H177612   0.057   5.000   2.679 -1.1371  1.8443  1.8358
18707TIP3    H277613   0.196   5.030   2.627 -1.2032 -0.7564 -0.0504
18708TIP3   OH277614   1.149   4.443   1.425 -0.0384  0.2227  0.2544
18708TIP3    H177615   1.060   4.415   1.445 -0.3802  1.0710 -0.0537
18708TIP3    H277616   1.142   4.537   1.407  0.3036 -0.2680 -3.2398
18709TIP3   OH277617   4.249   5.749   5.527 -0.2167 -0.0691 -0.0177
18709TIP3    H177618   4.173   5.709   5.485 -0.8561  0.3911  0.6615
18709TIP3    H277619   4.275   5.687   5.595 -1.1955  0.6242  1.0218
18710TIP3   OH277620   1.445   4.722   5.468 -0.1690  0.3204  0.4197
18710TIP3    H177621   1.351   4.707   5.474 -0.4304  1.1808 -1.1460
18710TIP3    H277622   1.477   4.653   5.410  0.3732 -0.6548  1.8323
18711TIP3   OH277623   6.461   0.141   1.845 -0.3097 -0.0943  0.3128
18711TIP3    H177624   6.525   0.085   1.801 -0.3818  0.4752 -0.5471
18711TIP3    H277625   6.501   0.228   1.844  0.2914 -0.2719  2.6040
18712TIP3   OH277626   3.655   3.805  13.983 -0.2294 -0.6819 -0.4262
18712TIP3    H177627   3.586   3.828  13.921 -0.1675 -0.7758 -0.5324
18712TIP3    H277628   3.652   3.709  13.987 -0.4440 -0.6600 -0.0393
18713TIP3   OH277629   2.405   6.719   4.446  0.0203 -0.0012  1.2539
18713TIP3    H177630   2.458   6.667   4.508  2.3506 -1.7490 -1.9032
18713TIP3    H277631   2.466   6.786   4.413 -0.5301 -0.3095 -0.4906
18714TIP3   OH277632   6.430   0.979   6.460  0.5092  0.2570  0.0289
18714TIP3    H177633   6.442   0.899   6.511  1.6418  0.4655  0.1286
18714TIP3    H277634   6.519   1.006   6.438  0.2357  2.1500  1.0149
18715TIP3   OH277635   5.702   6.412   5.373  0.1963 -0.0750 -0.6424
18715TIP3    H177636   5.680   6.369   5.456  1.6784  2.2314  1.0791
18715TIP3    H277637   5.618   6.444   5.340 -0.5679 -1.9691 -0.6588
18716TIP3   OH277638   0.521   1.603   1.409  0.0712 -0.2846  0.0429
18716TIP3    H177639   0.592   1.613   1.471  0.8360 -2.5362 -0.4031
18716TIP3    H277640   0.563   1.578   1.327 -1.0996  0.2256 -0.7515
18717TIP3   OH277641   2.255   2.387  14.414 -0.4496  0.0791  0.3136
18717TIP3    H177642   2.214   2.370  14.498  0.9897 -1.7951  0.7249
18717TIP3    H277643   2.280   2.479  14.416 -1.6611  0.3955  1.3594
18718TIP3   OH277644   2.633   0.448   0.346  0.6641  0.3177  0.3361
18718TIP3    H177645   2.553   0.478   0.391 -0.1650  1.6220 -1.8648
18718TIP3    H277646   2.632   0.494   0.263  3.7736  0.3667  0.2298
18719TIP3   OH277647   0.582   5.921  16.897  0.2639 -0.1635  0.5672
18719TIP3    H177648   0.619   5.861  16.961 -0.2107  0.8271  1.8024
18719TIP3    H277649   0.565   5.866  16.820  2.0202 -1.1087  0.8081
18720TIP3   OH277650   6.841   4.519  10.709 -0.2566 -0.0971  0.3328
18720TIP3    H177651   6.868   4.611  10.709 -0.8102  0.1216  2.2706
18720TIP3    H277652   6.749   4.522  10.738 -0.3683 -1.2522  0.1243
18721TIP3   OH277653   5.157   2.911  16.368 -0.1818 -0.2785  0.0151
18721TIP3    H177654   5.168   2.895  16.274 -0.2833  3.8932 -0.8887
18721TIP3    H277655   5.245   2.910  16.403  0.1664  0.8644 -0.7522
18722TIP3   OH277656   5.923   3.736   6.600  0.2331 -0.0704 -0.2934
18722TIP3    H177657   6.005   3.761   6.556 -0.1834 -0.2102 -1.1814
18722TIP3    H277658   5.862   3.806   6.579  0.4781  0.7338  1.5144
18723TIP3   OH277659   3.426   5.734   1.796  0.3330  0.4773 -0.4368
18723TIP3    H177660   3.460   5.777   1.718  1.8366 -1.2627 -0.8069
18723TIP3    H277661   3.503   5.719   1.851 -0.0992 -1.7914 -0.3750
18724TIP3   OH277662   1.275   6.052  15.331  0.8242  0.0742 -0.1239
18724TIP3    H177663   1.199   6.107  15.314  1.4223  1.1978  0.7803
18724TIP3    H277664   1.348   6.096  15.286  0.7895 -1.5932 -1.9807
18725TIP3   OH277665   0.442   3.306  11.403 -0.1576 -0.2562  0.2217
18725TIP3    H177666   0.364   3.259  11.433  0.7086 -2.7498 -1.1994
18725TIP3    H277667   0.507   3.291  11.470 -0.4454  0.6910  0.7427
18726TIP3   OH277668   5.461   3.894   0.637 -0.3855  0.1939 -0.0012
18726TIP3    H177669   5.367   3.911   0.630 -0.3771  0.5069  0.5474
18726TIP3    H277670   5.489   3.946   0.712 -0.3701 -2.2191  1.8144
18727TIP3   OH277671   2.177   0.711   3.566  0.3218 -0.3528  0.2629
18727TIP3    H177672   2.096   0.744   3.529 -1.1604 -1.1413  2.6267
18727TIP3    H277673   2.229   0.789   3.585  1.1345  0.1091 -3.1204
18728TIP3   OH277674   5.699   4.887   1.263  0.0956  0.7049 -0.1843
18728TIP3    H177675   5.725   4.831   1.336 -0.9530  1.6126  0.9407
18728TIP3    H277676   5.781   4.917   1.224  0.7340 -2.4900 -1.6103
18729TIP3   OH277677   4.303   0.282   3.569  0.0727 -0.0625 -0.1498
18729TIP3    H177678   4.248   0.350   3.610  0.6006  0.6184 -0.5625
18729TIP3    H277679   4.240   0.218   3.536 -0.5459  1.1628 -1.4404
18730TIP3   OH277680   2.103   5.774  12.009 -0.5068 -0.4414 -0.5071
18730TIP3    H177681   2.190   5.812  12.010 -0.0953 -1.3356 -1.2826
18730TIP3    H277682   2.064   5.802  12.092  1.6422 -2.5855  1.3919
18731TIP3   OH277683   2.886   6.602   4.068 -0.7140  0.8605 -0.4889
18731TIP3    H177684   2.822   6.555   4.014 -0.1612 -0.2966 -0.1595
18731TIP3    H277685   2.841   6.617   4.151 -0.4277 -0.3778 -0.0858
18732TIP3   OH277686   2.013   3.087   4.603 -0.5847  0.2597 -0.2754
18732TIP3    H177687   2.070   3.164   4.603 -0.2859  0.0576  0.7001
18732TIP3    H277688   2.073   3.013   4.610 -0.8856 -0.0462 -0.8963
18733TIP3   OH277689   0.157   1.939  15.700 -0.2733  0.0750  0.0437
18733TIP3    H177690   0.112   1.969  15.622  1.7959 -0.9425 -1.6451
18733TIP3    H277691   0.110   1.859  15.726 -0.5526  0.0249 -0.5944
18734TIP3   OH277692   6.320   2.826   5.799 -0.2327 -0.3302  0.4349
18734TIP3    H177693   6.363   2.911   5.808  0.5583 -0.7532  0.6911
18734TIP3    H277694   6.373   2.766   5.850 -1.0678 -0.8924  0.6610
18735TIP3   OH277695   1.804   5.953  13.614  0.4648 -0.7032 -0.0312
18735TIP3    H177696   1.766   5.958  13.702  0.4577 -1.2248  0.0028
18735TIP3    H277697   1.807   5.859  13.595 -1.4292 -0.5269 -1.4247
18736TIP3   OH277698   4.171   1.807   2.490 -0.5378  0.1460  0.0476
18736TIP3    H177699   4.173   1.819   2.395 -1.0694 -3.3434 -0.5368
18736TIP3    H277700   4.214   1.723   2.504 -2.4341 -0.4937  2.6757
18737TIP3   OH277701   0.940   6.196   6.211  0.1571 -0.2536 -0.1005
18737TIP3    H177702   0.973   6.130   6.150 -0.5630 -2.0881  1.4086
18737TIP3    H277703   0.870   6.153   6.258  0.4286  1.2106  1.7880
18738TIP3   OH277704   5.050   4.634  15.412 -0.1203  0.0303 -0.2319
18738TIP3    H177705   5.040   4.663  15.322  1.2025 -0.4935 -0.5766
18738TIP3    H277706   5.144   4.622  15.423 -0.1820  0.7627  1.4441
18739TIP3   OH277707   1.748   0.290  13.271  0.1795  0.3815  0.1713
18739TIP3    H177708   1.687   0.347  13.318 -0.2173 -0.9096  1.3118
18739TIP3    H277709   1.691   0.233  13.219  0.2926 -1.1746  1.6316
18740TIP3   OH277710   4.444   4.603   3.602  0.3984 -0.6880  0.0346
18740TIP3    H177711   4.528   4.603   3.556  1.3565  0.8424  1.6601
18740TIP3    H277712   4.402   4.684   3.574  0.4091 -0.4023  0.8403
18741TIP3   OH277713   4.386   3.745  12.554  0.1452  0.3190 -0.1950
18741TIP3    H177714   4.313   3.781  12.503 -0.5510  0.4101  0.8213
18741TIP3    H277715   4.426   3.822  12.595  2.7356  0.6624 -3.0319
18742TIP3   OH277716   5.308   0.432   1.118  0.3084  0.6402 -1.0097
18742TIP3    H177717   5.372   0.415   1.049  1.2488 -0.0592  0.0095
18742TIP3    H277718   5.232   0.380   1.092  0.6028  0.4870 -1.5923
18743TIP3   OH277719   5.319   6.555   4.297 -0.5568  0.2851 -0.3101
18743TIP3    H177720   5.347   6.518   4.213  1.5512 -0.4860  0.6456
18743TIP3    H277721   5.307   6.649   4.279  0.8122  0.3114 -1.2908
18744TIP3   OH277722   3.207   0.780   1.494 -0.0152  0.4511 -0.0296
18744TIP3    H177723   3.164   0.861   1.467 -0.1015  1.6513  3.2675
18744TIP3    H277724   3.227   0.735   1.411 -3.5444  1.8677 -1.8761
18745TIP3   OH277725   5.344   3.155  11.813  0.2746 -0.1974 -0.5259
18745TIP3    H177726   5.389   3.084  11.857  1.2879  0.0044 -1.2151
18745TIP3    H277727   5.272   3.113  11.766 -0.2073 -0.5305  0.4697
18746TIP3   OH277728   3.583   6.524   5.424 -0.2118 -0.1548 -0.0902
18746TIP3    H177729   3.586   6.608   5.470 -0.1845 -0.8342  1.2130
18746TIP3    H277730   3.617   6.543   5.337  1.0733  0.9265  0.6101
18747TIP3   OH277731   3.219   1.351   5.354 -0.0753  0.3549 -0.5677
18747TIP3    H177732   3.150   1.348   5.287 -0.8146 -1.2402  0.2289
18747TIP3    H277733   3.176   1.386   5.432 -0.2799 -1.5410  0.2144
18748TIP3   OH277734   3.374   4.721  13.313 -0.3265  0.2891 -0.3616
18748TIP3    H177735   3.380   4.757  13.401 -0.1631  0.9602 -0.6489
18748TIP3    H277736   3.302   4.769  13.272  0.1618  0.5941 -0.8816
18749TIP3   OH277737   4.916   0.820  16.714 -0.3946 -0.7748 -0.0306
18749TIP3    H177738   4.998   0.850  16.675 -0.4108 -0.8636 -0.1351
18749TIP3    H277739   4.857   0.896  16.707 -0.7608 -1.1459 -1.2504
18750TIP3   OH277740   2.764   1.888   2.612  0.1287 -0.4022 -0.3257
18750TIP3    H177741   2.774   1.963   2.671 -0.9242 -0.2657 -0.2998
18750TIP3    H277742   2.696   1.834   2.652 -0.1347 -0.6430 -1.0689
18751TIP3   OH277743   1.166   4.284  16.017  0.3531  0.8297  0.4961
18751TIP3    H177744   1.237   4.323  16.068 -0.4319  0.8691  1.5810
18751TIP3    H277745   1.090   4.339  16.034  0.4903  2.0408 -2.3226
18752TIP3   OH277746   2.656   4.011   0.336  0.1892 -0.3546  0.1140
18752TIP3    H177747   2.728   3.949   0.339 -0.1828 -0.7765  0.5777
18752TIP3    H277748   2.580   3.957   0.312  0.1750  0.2256 -1.2352
18753TIP3   OH277749   0.842   5.194  16.266 -0.4744 -0.0633  0.2400
18753TIP3    H177750   0.888   5.196  16.182  1.1445  2.3462  1.0568
18753TIP3    H277751   0.817   5.285  16.281 -2.4539 -0.7753  1.5006
18754TIP3   OH277752   2.054   6.798  13.662 -0.0037  0.4340  0.4017
18754TIP3    H177753   2.040   6.714  13.706  1.4949  0.9012  1.8241
18754TIP3    H277754   1.979   6.806  13.602 -0.0736 -1.9941  0.0675
18755TIP3   OH277755   4.281   0.407  13.927  0.3412  0.2055 -0.6944
18755TIP3    H177756   4.273   0.373  13.838  1.2235  2.6089 -1.7926
18755TIP3    H277757   4.195   0.444  13.947 -0.1582 -1.2178 -0.1080
18756TIP3   OH277758   2.989   6.003  13.268 -0.5271 -0.3186  0.1423
18756TIP3    H177759   3.077   5.976  13.240 -0.0697  0.5325  0.7310
18756TIP3    H277760   2.974   5.954  13.349 -0.9548 -1.1094 -0.4021
18757TIP3   OH277761   3.932   0.344  15.434 -0.8028  0.3780  0.2648
18757TIP3    H177762   3.973   0.278  15.490 -0.0189 -0.5059 -1.2904
18757TIP3    H277763   3.839   0.339  15.455 -0.5090  0.2839  1.6777
18758TIP3   OH277764   2.415   6.285  14.796 -0.5082  0.8693  0.3979
18758TIP3    H177765   2.394   6.338  14.872  0.1214  0.6421  0.7370
18758TIP3    H277766   2.422   6.196  14.830 -0.4431  0.7345  0.0360
18759TIP3   OH277767   1.218   6.280   1.965  0.4945  0.7589  0.2262
18759TIP3    H177768   1.250   6.222   2.034  1.4276 -0.5853 -1.2565
18759TIP3    H277769   1.246   6.238   1.884 -0.2240  2.4790 -0.9728
18760TIP3   OH277770   0.213   3.809  13.760  0.2400 -0.0987 -0.4358
18760TIP3    H177771   0.165   3.787  13.680  1.6372 -0.1724 -1.2930
18760TIP3    H277772   0.203   3.733  13.817 -1.9441  0.5142  0.0720
18761TIP3   OH277773   0.274   2.271   2.200 -0.5995  0.6080 -0.5170
18761TIP3    H177774   0.350   2.296   2.147  0.6839  0.8801  1.3621
18761TIP3    H277775   0.300   2.188   2.240 -0.7465  1.3395  1.1498
18762TIP3   OH277776   6.600   5.219  13.973 -0.4567 -1.0243 -0.2024
18762TIP3    H177777   6.646   5.247  13.894 -0.2554 -0.3812  0.1385
18762TIP3    H277778   6.668   5.186  14.031 -0.1937  1.2344  0.8695
18763TIP3   OH277779   1.428   2.593   0.607 -0.1795 -0.2570 -0.4896
18763TIP3    H177780   1.450   2.627   0.520 -1.0106  0.6462 -0.3711
18763TIP3    H277781   1.410   2.500   0.592  1.5965 -0.5584 -0.9294
18764TIP3   OH277782   4.779   1.960  17.022  0.1717  0.2948 -0.2834
18764TIP3    H177783   4.856   1.913  16.989  0.2723  0.3873 -0.1780
18764TIP3    H277784   4.753   2.017  16.949  0.6401  0.8011 -0.0568
18765TIP3   OH277785   3.072   2.225   1.594 -0.4336  0.6935 -0.2606
18765TIP3    H177786   3.086   2.285   1.667  0.0702  1.5264 -1.0186
18765TIP3    H277787   3.134   2.154   1.609 -0.7806  0.5309  0.4513
18766TIP3   OH277788   0.033   4.449   1.552  0.0582  0.0330  0.3398
18766TIP3    H177789   0.051   4.410   1.467  1.1295 -1.0490  1.0377
18766TIP3    H277790   0.117   4.486   1.580 -0.4981  1.2173  0.5300
18767TIP3   OH277791   3.251   4.131  15.810 -0.4553  0.4287  0.2892
18767TIP3    H177792   3.223   4.212  15.769 -2.0594  0.9022  2.1972
18767TIP3    H277793   3.269   4.154  15.901  0.8029 -1.0154  0.4564
18768TIP3   OH277794   1.130   0.982  15.614 -0.0370 -0.6262  0.0097
18768TIP3    H177795   1.045   0.961  15.651  0.2789 -1.0942  0.4978
18768TIP3    H277796   1.181   0.901  15.624  0.9221  0.0830  1.1030
18769TIP3   OH277797   5.807   5.651  16.657  0.2384  0.7560 -0.1713
18769TIP3    H177798   5.763   5.602  16.727  0.2248  1.0716  0.0398
18769TIP3    H277799   5.736   5.688  16.605  0.2312 -0.1608 -0.8454
18770TIP3   OH277800   3.160   4.286   1.020  0.1017  0.2516  0.0942
18770TIP3    H177801   3.098   4.286   0.947 -1.5168  0.8247  1.4125
18770TIP3    H277802   3.209   4.368   1.009  1.0792 -0.4730 -1.2754
18771TIP3   OH277803   0.733   0.043  11.529 -0.0777 -0.2220 -0.1447
18771TIP3    H177804   0.829   0.048  11.537 -0.0072  1.0686 -1.5011
18771TIP3    H277805   0.718  -0.035  11.475  0.2599  0.0938 -0.6983
18772TIP3   OH277806   6.065   2.814  13.277  0.4821 -0.0592 -0.0408
18772TIP3    H177807   6.017   2.774  13.349 -0.7045  0.2648 -0.6171
18772TIP3    H277808   6.065   2.747  13.208  0.2420  0.1842 -0.2853
18773TIP3   OH277809   4.841   3.536  15.901  0.1831 -0.0589  0.0772
18773TIP3    H177810   4.813   3.464  15.958  0.1066  0.5096  0.7761
18773TIP3    H277811   4.921   3.504  15.859  0.0644 -0.6069  0.2661
18774TIP3   OH277812   4.696   2.420  12.706 -0.1164 -0.2367  0.0095
18774TIP3    H177813   4.686   2.515  12.702 -0.3009 -0.2583 -0.0408
18774TIP3    H277814   4.638   2.392  12.777  0.3966 -0.2480  0.4352
18775TIP3   OH277815   3.875   3.631   4.550 -0.3403 -0.0256 -0.4579
18775TIP3    H177816   3.820   3.591   4.617 -0.6900  0.8418 -0.2140
18775TIP3    H277817   3.920   3.702   4.595 -1.7712  1.6075 -1.4700
18776TIP3   OH277818   4.958   5.706  12.846  0.0106  0.4240  0.0992
18776TIP3    H177819   4.889   5.745  12.899 -0.4448  0.1990 -0.3283
18776TIP3    H277820   5.036   5.757  12.868 -0.9250  2.8684 -1.8766
18777TIP3   OH277821   5.489   4.528   2.913 -0.3334 -0.5934  0.1312
18777TIP3    H177822   5.532   4.531   2.999  0.8665  0.8153 -0.4914
18777TIP3    H277823   5.404   4.570   2.927  0.2637  0.5524  0.4282
18778TIP3   OH277824   2.479   3.483  17.102  0.3839  0.3897  0.5873
18778TIP3    H177825   2.390   3.493  17.137  0.7487 -1.8665  2.4199
18778TIP3    H277826   2.490   3.388  17.093  2.3641  0.6635 -0.2967
18779TIP3   OH277827   0.996   0.324   0.929 -0.0557 -0.6698 -0.7610
18779TIP3    H177828   0.902   0.310   0.931 -0.4537  1.6053  0.1908
18779TIP3    H277829   1.030   0.267   0.998 -1.0638  0.1366  0.4569
18780TIP3   OH277830   3.620   3.729   5.356  0.2078  0.0738  0.1892
18780TIP3    H177831   3.611   3.817   5.393 -0.3307 -0.4201  1.2585
18780TIP3    H277832   3.693   3.737   5.294  0.8134  1.0384  0.9909
18781TIP3   OH277833   4.572   2.687  11.182  0.1142  0.0481  0.3642
18781TIP3    H177834   4.480   2.711  11.188 -0.5347 -1.6210 -1.7308
18781TIP3    H277835   4.615   2.737  11.252 -2.3399  0.9195  1.3352
18782TIP3   OH277836   3.061   5.205   4.005 -0.2911 -0.0070  0.2969
18782TIP3    H177837   3.063   5.116   4.040 -1.5542 -0.7123 -1.2597
18782TIP3    H277838   2.985   5.246   4.047  0.8482  0.7165  1.7480
18783TIP3   OH277839   4.269   2.070  11.608 -0.5728 -0.1801  0.4094
18783TIP3    H177840   4.277   1.991  11.554  0.3909  0.3105 -0.2008
18783TIP3    H277841   4.355   2.080  11.649 -0.5873  0.6929  0.2610
18784TIP3   OH277842   1.344   4.852  13.383 -0.4660 -0.1510 -0.3654
18784TIP3    H177843   1.437   4.856  13.402 -0.5029 -1.0948  0.1056
18784TIP3    H277844   1.310   4.785  13.443 -1.1427 -1.0265 -1.6769
18785TIP3   OH277845   6.737   0.969   0.305 -0.8410 -0.4384 -0.1161
18785TIP3    H177846   6.761   0.886   0.346 -0.2528 -0.2303 -0.0269
18785TIP3    H277847   6.651   0.990   0.341 -0.3824 -0.3167  0.9241
18786TIP3   OH277848   1.571   6.058   2.000 -0.2643  0.3075 -0.9449
18786TIP3    H177849   1.658   6.047   1.962 -0.5608 -0.9758 -1.2679
18786TIP3    H277850   1.546   5.971   2.030 -1.8121  0.4652 -1.6721
18787TIP3   OH277851   5.821   5.553   4.201  0.5041 -0.1684  0.8480
18787TIP3    H177852   5.775   5.637   4.196 -0.5961 -0.8219 -1.5486
18787TIP3    H277853   5.872   5.558   4.281 -0.5662  2.2556  1.4615
18788TIP3   OH277854   1.171   2.189   0.205  0.6935 -0.4560 -0.0901
18788TIP3    H177855   1.142   2.229   0.123 -0.9770  1.2141  1.2150
18788TIP3    H277856   1.094   2.196   0.263  1.9804 -1.0759  1.7800
18789TIP3   OH277857   1.778   0.437   1.915 -0.3982  0.0371  0.0948
18789TIP3    H177858   1.856   0.397   1.956  0.0712  0.1757 -0.6500
18789TIP3    H277859   1.809   0.522   1.885 -0.6083 -0.2526 -0.9670
18790TIP3   OH277860   5.826   3.292   3.816  0.2459 -0.3612  0.2485
18790TIP3    H177861   5.836   3.203   3.782  0.9374  0.2208 -1.1627
18790TIP3    H277862   5.828   3.281   3.911 -0.5988 -1.9392  0.1292
18791TIP3   OH277863   4.756   4.158   4.145  0.2615  0.1678 -0.1399
18791TIP3    H177864   4.743   4.231   4.206 -0.3275 -0.0382 -0.0184
18791TIP3    H277865   4.738   4.195   4.059  0.9063  0.4094 -0.1796
18792TIP3   OH277866   2.194   5.330   1.215  0.2637 -0.2611  0.4561
18792TIP3    H177867   2.162   5.277   1.288 -1.1165 -1.4839 -0.9848
18792TIP3    H277868   2.211   5.267   1.145  1.6537  0.8713 -0.2889
18793TIP3   OH277869   4.932   3.918   3.928 -0.0728 -0.6236  0.4137
18793TIP3    H177870   4.971   4.005   3.940 -0.7336 -0.4242  1.2702
18793TIP3    H277871   4.858   3.933   3.869  0.1661 -0.7145  0.0883
18794TIP3   OH277872   2.165   0.412  13.064  0.3021  0.0245 -0.7225
18794TIP3    H177873   2.093   0.454  13.112  0.9747 -0.0096  0.3553
18794TIP3    H277874   2.203   0.483  13.012  0.4874  0.4275 -0.0590
18795TIP3   OH277875   5.421   5.731   0.156  0.3203  0.2411 -0.2160
18795TIP3    H177876   5.416   5.784   0.076  1.5462  0.8192  0.0697
18795TIP3    H277877   5.440   5.794   0.225 -2.0292 -0.0599  0.7834
18796TIP3   OH277878   2.591   0.602   4.490 -0.0181  0.0055 -0.2412
18796TIP3    H177879   2.586   0.627   4.582 -0.5162 -0.0598 -0.2517
18796TIP3    H277880   2.633   0.516   4.492  1.9866  0.9043 -0.2244
18797TIP3   OH277881   6.155   3.414   3.681  0.1321 -0.4375  0.8597
18797TIP3    H177882   6.159   3.353   3.754  2.7413 -0.6179  0.6629
18797TIP3    H277883   6.226   3.476   3.697 -1.0308  1.2289 -0.0998
18798TIP3   OH277884   1.194   4.303  11.714 -0.1532  0.0769  0.1427
18798TIP3    H177885   1.140   4.295  11.792 -1.1896 -1.0111 -0.6661
18798TIP3    H277886   1.282   4.319  11.748 -0.6861  0.2466  1.5088
18799TIP3   OH277887   5.565   4.447  16.125 -0.4441  0.0648 -0.0252
18799TIP3    H177888   5.513   4.417  16.199 -0.8798 -1.4968 -0.9145
18799TIP3    H277889   5.509   4.431  16.049  0.7760 -0.3418 -0.8675
18800TIP3   OH277890   2.842   5.733  14.571 -0.2242 -0.1160 -0.2302
18800TIP3    H177891   2.851   5.710  14.664 -2.3054  1.8155  0.5548
18800TIP3    H277892   2.927   5.770  14.547  0.3140 -0.5336  0.9307
18801TIP3   OH277893   2.836   6.569  13.402 -0.0533 -0.3596  0.0463
18801TIP3    H177894   2.825   6.635  13.334 -0.6515  0.3223  0.7830
18801TIP3    H277895   2.770   6.591  13.468  1.0599 -0.4691  1.2526
18802TIP3   OH277896   3.203   3.667  14.144  0.2999  0.0563 -0.0680
18802TIP3    H177897   3.236   3.610  14.075  0.6533 -1.1324  1.0347
18802TIP3    H277898   3.268   3.737  14.151  1.7273 -1.3050  0.8818
18803TIP3   OH277899   6.022   6.139  13.106  0.5525 -0.1006  0.0433
18803TIP3    H177900   5.980   6.133  13.192 -0.4551  1.1372 -0.3336
18803TIP3    H277901   6.024   6.232  13.087  2.0047 -0.2625 -0.7027
18804TIP3   OH277902   3.095   3.578   2.165  0.0056 -0.3513  0.4890
18804TIP3    H177903   3.190   3.574   2.155 -0.0468  0.1038 -0.3214
18804TIP3    H277904   3.080   3.646   2.230  0.1944  0.7554 -0.5896
18805TIP3   OH277905   2.826   5.944  14.801  0.3011  0.6009 -0.0870
18805TIP3    H177906   2.817   5.849  14.798  1.1705  0.5124 -0.0998
18805TIP3    H277907   2.911   5.959  14.841  0.4112  1.3617 -0.5788
18806TIP3   OH277908   1.676   5.612  12.414  0.1153 -0.2602 -0.0464
18806TIP3    H177909   1.722   5.573  12.488  1.2872 -1.6375 -1.4296
18806TIP3    H277910   1.653   5.538  12.358 -0.3112  0.7747 -1.2839
18807TIP3   OH277911   4.063   0.091   0.523  0.3379 -0.2871 -0.1233
18807TIP3    H177912   3.974   0.074   0.551  0.8185 -0.0818  1.6350
18807TIP3    H277913   4.075   0.185   0.535  0.6478 -0.2276 -0.8219
18808TIP3   OH277914   1.132   4.144  15.717 -0.1870 -0.5287 -0.6515
18808TIP3    H177915   1.045   4.183  15.723  0.6003  1.2277 -0.1372
18808TIP3    H277916   1.127   4.086  15.641 -1.7833 -0.4215 -0.6501
18809TIP3   OH277917   1.725   3.478  15.778  0.4288 -0.6621 -0.1440
18809TIP3    H177918   1.655   3.434  15.826  1.1633 -1.8481 -0.1163
18809TIP3    H277919   1.805   3.434  15.806  1.3599  1.4129  0.6962
18810TIP3   OH277920   2.412   0.929  13.003  0.3404  0.3907 -0.5209
18810TIP3    H177921   2.433   0.928  12.910  1.2252 -0.5291 -0.3367
18810TIP3    H277922   2.370   0.844  13.018  0.9506  0.1861  0.0675
18811TIP3   OH277923   2.068   4.390   1.990  0.1719 -0.1127 -0.2517
18811TIP3    H177924   2.030   4.407   2.076  0.0802 -0.9809 -0.1146
18811TIP3    H277925   2.083   4.477   1.953  0.2776  0.2683  0.6637
18812TIP3   OH277926   2.190   2.922   0.797 -0.5466 -0.2703 -0.5798
18812TIP3    H177927   2.117   2.902   0.739 -0.8823  0.9784 -0.6271
18812TIP3    H277928   2.268   2.915   0.741 -0.7155 -0.7190 -0.7566
18813TIP3   OH277929   2.004   2.688   1.479 -0.2357  0.1005 -0.0542
18813TIP3    H177930   1.982   2.781   1.475  0.7955  0.4133  1.1288
18813TIP3    H277931   1.998   2.658   1.388  0.1645  1.5008 -0.5570
18814TIP3   OH277932   1.474   3.697  11.706  0.1782 -0.1931  0.1267
18814TIP3    H177933   1.550   3.755  11.699 -0.4262  0.5967 -0.0525
18814TIP3    H277934   1.469   3.655  11.620  1.4080 -1.5464  0.6830
18815TIP3   OH277935   2.501   4.582  17.206 -0.0622 -0.2446 -0.0792
18815TIP3    H177936   2.442   4.507  17.205 -0.4745  0.0734 -0.9490
18815TIP3    H277937   2.505   4.610  17.114  1.1565 -0.0365  0.0205
18816TIP3   OH277938   0.428   1.408  12.450  0.3450  0.5114  0.0900
18816TIP3    H177939   0.444   1.366  12.535  1.6183  1.8418  0.5601
18816TIP3    H277940   0.466   1.348  12.386 -1.5605 -1.0209  0.3015
18817TIP3   OH277941   3.915   2.971  12.355  0.2796 -0.0416 -0.2820
18817TIP3    H177942   3.846   3.025  12.316  0.7156 -0.2800 -1.4473
18817TIP3    H277943   3.928   3.007  12.442 -0.5895  0.6740 -0.4336
18818TIP3   OH277944   3.999   3.884   5.900  0.1343  0.1409  0.1538
18818TIP3    H177945   4.042   3.951   5.952  1.2910 -0.7492  0.3836
18818TIP3    H277946   4.069   3.825   5.874 -0.9087 -1.2341  0.3457
18819TIP3   OH277947   2.711   2.276   4.798  0.2639 -0.3501 -0.7397
18819TIP3    H177948   2.757   2.198   4.830 -0.6962 -0.5304  0.2832
18819TIP3    H277949   2.717   2.339   4.871 -1.5388 -0.5806 -0.3368
18820TIP3   OH277950   4.251   0.409  15.074  0.1864 -0.4237  0.7384
18820TIP3    H177951   4.245   0.496  15.112  2.1115 -0.6178  1.6035
18820TIP3    H277952   4.335   0.407  15.029 -0.3042 -1.4924 -0.1909
18821TIP3   OH277953   1.736   4.980   5.582 -0.2534 -0.3013  0.1321
18821TIP3    H177954   1.770   4.901   5.540 -1.2375 -0.6080 -0.1032
18821TIP3    H277955   1.647   4.990   5.548 -0.3110  0.6440  0.5194
18822TIP3   OH277956   6.696   6.766   6.314 -0.7935  0.4566 -0.1507
18822TIP3    H177957   6.639   6.767   6.391 -0.8967 -0.8584 -0.1960
18822TIP3    H277958   6.647   6.816   6.248 -1.4628  0.1702  0.1170
18823TIP3   OH277959   1.047   6.777  11.826  0.5630  0.0957  0.0616
18823TIP3    H177960   1.080   6.759  11.914 -2.4850  0.0914  1.3576
18823TIP3    H277961   0.998   6.859  11.836 -0.9764 -0.6051 -1.2718
18824TIP3   OH277962   3.793   2.753  12.223  0.7645  0.1846 -0.0343
18824TIP3    H177963   3.836   2.811  12.286  0.1254  1.1669 -0.4780
18824TIP3    H277964   3.838   2.769  12.140  0.8188 -0.2235 -0.0860
18825TIP3   OH277965   0.909   6.564   4.307  0.2860 -0.7286 -0.1127
18825TIP3    H177966   0.905   6.653   4.271  0.0084 -0.1023  1.4000
18825TIP3    H277967   0.961   6.515   4.243  2.3313  1.0351  0.0766
18826TIP3   OH277968   0.482   0.993  15.714 -0.0779 -0.0852 -0.1314
18826TIP3    H177969   0.519   1.016  15.628 -1.7589 -0.9141 -1.1331
18826TIP3    H277970   0.480   1.075  15.763 -0.9076  0.8315 -1.6259
18827TIP3   OH277971   0.383   6.690  15.850  0.2274  0.3227 -0.6568
18827TIP3    H177972   0.411   6.755  15.786 -0.7094 -0.0380 -1.4521
18827TIP3    H277973   0.367   6.611  15.799  0.7669 -0.3773  0.2163
18828TIP3   OH277974   6.245   5.370   3.621  0.0910 -0.2027  0.2232
18828TIP3    H177975   6.247   5.317   3.700  1.9181  0.0741  0.3928
18828TIP3    H277976   6.236   5.460   3.653 -1.8334 -0.2593 -0.0232
18829TIP3   OH277977   2.583   0.144   1.266  0.3861 -0.1304  0.3588
18829TIP3    H177978   2.559   0.216   1.208  0.7738 -0.9370 -0.8337
18829TIP3    H277979   2.651   0.097   1.219 -0.4241 -1.7482  0.7511
18830TIP3   OH277980   3.545   3.336  12.106 -0.0283  0.4144  0.3080
18830TIP3    H177981   3.583   3.421  12.129  0.5327 -0.2112  1.8160
18830TIP3    H277982   3.570   3.323  12.014  0.2290  1.6880  0.1772
18831TIP3   OH277983   6.496   3.870  12.876 -0.6939 -0.6667  0.9948
18831TIP3    H177984   6.480   3.866  12.970  0.6516  1.1686  1.3526
18831TIP3    H277985   6.590   3.881  12.868 -0.7878 -0.7359 -0.5855
18832TIP3   OH277986   1.790   6.559  12.303  0.1605 -0.1933  0.2573
18832TIP3    H177987   1.744   6.642  12.290 -0.8084 -0.7021  0.3570
18832TIP3    H277988   1.721   6.493  12.305  0.9306 -1.0325 -0.0120
18833TIP3   OH277989   1.198   0.385  16.102  0.1533 -0.2726 -0.3061
18833TIP3    H177990   1.130   0.452  16.111  0.6270  0.0511  1.1839
18833TIP3    H277991   1.170   0.314  16.160 -1.3579 -2.3499 -3.3121
18834TIP3   OH277992   5.666   4.995  11.145  0.4778 -0.4560 -0.0243
18834TIP3    H177993   5.594   4.936  11.166  1.8212 -2.8010 -1.5755
18834TIP3    H277994   5.649   5.023  11.055  0.2939  0.9384  0.4196
18835TIP3   OH277995   4.703   3.909   1.406 -0.9318  0.2427 -0.7150
18835TIP3    H177996   4.760   3.839   1.376  0.0441  0.1250  1.2210
18835TIP3    H277997   4.634   3.915   1.341  0.2408 -0.9386 -2.1108
18836TIP3   OH277998   2.467   6.373   0.945 -0.3665  0.0014  0.5749
18836TIP3    H177999   2.553   6.409   0.921 -0.6908  1.5505  1.6162
18836TIP3    H278000   2.480   6.335   1.032 -0.3888 -1.1365  0.0972
18837TIP3   OH278001   2.206   3.715   5.385 -0.0779  0.2824 -0.2581
18837TIP3    H178002   2.167   3.778   5.325  0.6111  1.9035  0.9270
18837TIP3    H278003   2.294   3.749   5.403 -0.0358 -0.4843  1.1674
18838TIP3   OH278004   1.282   6.558  12.204 -0.6847 -0.3466 -0.5349
18838TIP3    H178005   1.217   6.521  12.263 -2.4002  0.0880 -2.0583
18838TIP3    H278006   1.237   6.564  12.119  0.4707  2.3530 -1.0706
18839TIP3   OH278007   1.978   6.645  16.208 -0.0693  0.5081 -0.0558
18839TIP3    H178008   1.922   6.631  16.132  0.4982 -0.7119 -0.2771
18839TIP3    H278009   2.032   6.721  16.185 -1.0240  1.1666 -0.1790
18840TIP3   OH278010   6.539   1.115  14.548 -0.1984 -0.1455 -0.2914
18840TIP3    H178011   6.497   1.197  14.522 -0.4950  0.2636  1.3353
18840TIP3    H278012   6.633   1.135  14.547 -0.0882 -0.5815 -2.3677
18841TIP3   OH278013   1.078   1.794   2.173  0.0553 -0.1783 -0.4054
18841TIP3    H178014   1.118   1.842   2.246 -1.2136  0.2293  0.0530
18841TIP3    H278015   1.150   1.743   2.136  1.2015  1.2044 -0.1937
18842TIP3   OH278016   5.093   6.411   6.150 -0.0909 -0.0920 -0.0994
18842TIP3    H178017   5.146   6.338   6.183  0.8811  0.3085 -0.7175
18842TIP3    H278018   5.109   6.483   6.211 -0.3795 -0.1317  0.0281
18843TIP3   OH278019   6.741   1.422  15.839 -0.1653 -0.0624  0.4817
18843TIP3    H178020   6.792   1.454  15.914  0.3824 -0.4818  0.2961
18843TIP3    H278021   6.659   1.393  15.877 -0.8197  1.8262  0.6263
18844TIP3   OH278022   5.865   6.297  15.311 -0.2534 -0.4324  0.0139
18844TIP3    H178023   5.904   6.281  15.225  0.3681 -1.2967  0.4380
18844TIP3    H278024   5.940   6.308  15.370 -0.6358  2.7145  0.0583
18845TIP3   OH278025   2.488   0.402  11.167 -0.2641 -0.2767  0.0498
18845TIP3    H178026   2.546   0.442  11.102 -1.2224 -1.4402 -1.5964
18845TIP3    H278027   2.512   0.309  11.167 -1.0494 -0.4922  0.5212
18846TIP3   OH278028   6.088   4.497  16.682  0.0665  0.8354 -0.0181
18846TIP3    H178029   6.148   4.431  16.648 -1.7541 -0.3799 -1.0998
18846TIP3    H278030   6.132   4.580  16.667  1.1183  0.0501 -1.5614
18847TIP3   OH278031   0.611   6.443  13.518 -0.5713 -0.1405 -0.0350
18847TIP3    H178032   0.693   6.477  13.484  0.0839 -1.5699  0.0396
18847TIP3    H278033   0.575   6.513  13.571  0.2995  0.7171 -0.5544
18848TIP3   OH278034   0.274   2.459  14.605  0.1589  0.3492 -0.3719
18848TIP3    H178035   0.350   2.513  14.626  0.2994  0.3189 -0.7897
18848TIP3    H278036   0.213   2.474  14.677  0.7045  0.0983  0.1451
18849TIP3   OH278037   4.716   5.485  17.001  0.0829 -0.2084 -0.3592
18849TIP3    H178038   4.765   5.562  16.973 -0.0291 -0.4492 -1.2439
18849TIP3    H278039   4.632   5.521  17.032 -0.7721 -0.0957 -2.6409
18850TIP3   OH278040   4.649   2.108   2.023 -0.0031  0.1766  0.5886
18850TIP3    H178041   4.722   2.119   2.083  1.5324  0.6466 -1.2679
18850TIP3    H278042   4.655   2.017   1.994 -0.6505 -0.0085  1.0114
18851TIP3   OH278043   3.823   1.379  11.938  0.3225  0.1856  0.0704
18851TIP3    H178044   3.774   1.308  11.898  0.8537 -0.1158 -0.0599
18851TIP3    H278045   3.894   1.397  11.877 -0.5032  1.6760 -0.5052
18852TIP3   OH278046   5.283   5.200  12.055 -0.0943  0.5138 -0.0831
18852TIP3    H178047   5.313   5.139  11.988 -0.0210  1.4329 -0.9059
18852TIP3    H278048   5.231   5.265  12.007 -0.4956  0.8825  0.8301
18853TIP3   OH278049   3.443   6.319  12.876  0.2769 -0.1054  0.5227
18853TIP3    H178050   3.489   6.235  12.886  0.1033 -0.0225  2.6066
18853TIP3    H278051   3.367   6.311  12.934  0.6094  1.7041  1.2715
18854TIP3   OH278052   4.419   6.153   1.152 -0.0962 -0.7042 -0.0452
18854TIP3    H178053   4.401   6.178   1.242 -0.2873  0.8553 -0.4840
18854TIP3    H278054   4.478   6.220   1.119  0.7131 -1.7559 -0.8208
18855TIP3   OH278055   5.214   1.540   3.340 -0.4839 -1.1598  0.0715
18855TIP3    H178056   5.289   1.584   3.379 -0.3637 -0.3920 -0.9759
18855TIP3    H278057   5.161   1.611   3.302  0.5487 -1.9369 -3.1139
18856TIP3   OH278058   2.634   5.229   3.740  0.4312  0.1983 -0.3103
18856TIP3    H178059   2.621   5.269   3.826  1.3410  0.6486 -0.3728
18856TIP3    H278060   2.720   5.260   3.712  0.2454 -0.1368 -1.2808
18857TIP3   OH278061   1.785   1.390  15.508  0.0105  0.4255  0.3781
18857TIP3    H178062   1.803   1.477  15.470  1.0447 -0.4899 -1.3819
18857TIP3    H278063   1.753   1.339  15.434  0.0301 -0.8659  1.2483
18858TIP3   OH278064   2.954   5.066   3.247  0.0229  0.2901 -0.3362
18858TIP3    H178065   2.920   5.062   3.337 -0.4444 -1.5211 -0.5678
18858TIP3    H278066   2.887   5.116   3.199 -0.0542  0.6888  0.1805
18859TIP3   OH278067   5.569   3.400  15.500 -0.4608  0.2485  0.5126
18859TIP3    H178068   5.559   3.311  15.467 -0.0220 -0.5169  2.3559
18859TIP3    H278069   5.482   3.438  15.493 -1.3082 -1.2336  2.1652
18860TIP3   OH278070   0.682   0.766   4.849 -0.5543  0.1773 -0.4067
18860TIP3    H178071   0.778   0.767   4.850 -0.4776  0.7049 -2.6779
18860TIP3    H278072   0.659   0.680   4.884  0.7119  0.1583  0.4650
18861TIP3   OH278073   1.074   1.666  16.693 -0.5136  0.0407  0.6339
18861TIP3    H178074   1.043   1.608  16.623  1.2274 -0.9395  0.6377
18861TIP3    H278075   1.143   1.617  16.737 -0.1409  1.4672  1.7281
18862TIP3   OH278076   0.697   5.684  16.655  0.2593 -0.1728  0.2235
18862TIP3    H178077   0.695   5.769  16.612  1.8867 -0.9674 -1.5888
18862TIP3    H278078   0.790   5.663  16.662 -0.1008 -1.7480  0.7519
18863TIP3   OH278079   3.246   5.229   0.165  0.4477  0.7917  0.2061
18863TIP3    H178080   3.198   5.147   0.177 -0.1997  1.0321 -0.6322
18863TIP3    H278081   3.264   5.260   0.254 -0.7025  0.5470  0.5355
18864TIP3   OH278082   2.622   1.515   3.611 -0.1468 -0.4117  0.8108
18864TIP3    H178083   2.632   1.441   3.551  0.1982 -0.6250  1.1318
18864TIP3    H278084   2.641   1.592   3.557 -0.2365 -0.5745  0.5465
18865TIP3   OH278085   6.076   4.138  11.650 -0.0572 -0.5783  0.2143
18865TIP3    H178086   6.022   4.120  11.727 -0.7269 -0.2270 -0.1674
18865TIP3    H278087   6.166   4.123  11.680 -0.0295  2.2847  1.8876
18866TIP3   OH278088   2.710   5.494  12.497 -0.0887  0.1958 -0.0303
18866TIP3    H178089   2.691   5.560  12.430  1.6764  0.8988  0.1065
18866TIP3    H278090   2.805   5.495  12.505 -0.1993 -0.5564  1.8283
18867TIP3   OH278091   6.373   1.656   2.840  0.2746 -0.1641 -0.5971
18867TIP3    H178092   6.438   1.592   2.868  0.4967  0.5722  0.6176
18867TIP3    H278093   6.289   1.615   2.861  0.4045 -0.2447 -0.2314
18868TIP3   OH278094   5.389   5.530  12.345  0.1844 -0.6900 -0.2510
18868TIP3    H178095   5.436   5.600  12.390 -0.6939 -1.1982  1.5268
18868TIP3    H278096   5.297   5.557  12.348 -0.0615 -1.4956 -0.3223
18869TIP3   OH278097   4.526   5.390  11.678  0.1881 -0.2986 -0.0757
18869TIP3    H178098   4.578   5.387  11.758  0.1596 -1.2808 -0.0837
18869TIP3    H278099   4.586   5.422  11.611  0.0309  1.2179  0.4508
18870TIP3   OH278100   6.436   3.989  12.616 -0.0612 -0.1912  0.1108
18870TIP3    H178101   6.449   3.954  12.704  1.1435  0.7959  0.3467
18870TIP3    H278102   6.509   4.049  12.603 -0.8962  0.6070 -1.1006
18871TIP3   OH278103   2.653   4.694  15.176  0.3488  0.5632 -0.8866
18871TIP3    H178104   2.596   4.739  15.239 -0.6711  0.2867 -1.5994
18871TIP3    H278105   2.699   4.765  15.131  0.2087  0.8159 -0.6359
18872TIP3   OH278106   6.767   6.480  13.230  0.3942  0.5064 -0.0995
18872TIP3    H178107   6.785   6.408  13.290  1.9926  0.2812 -0.8058
18872TIP3    H278108   6.807   6.557  13.271 -0.3759  0.7891  0.1381
18873TIP3   OH278109   6.732   0.466   0.741 -0.0331  0.2555  0.0321
18873TIP3    H178110   6.827   0.461   0.732  0.1835  1.4955  1.2568
18873TIP3    H278111   6.703   0.516   0.665  0.5868  1.7989  0.7545
18874TIP3   OH278112   0.650   5.377   3.064  0.6325  0.0393  0.2141
18874TIP3    H178113   0.743   5.394   3.049  0.2142 -0.0718 -3.0386
18874TIP3    H278114   0.636   5.289   3.030 -0.6805  0.0211  0.7362
18875TIP3   OH278115   6.070   5.418  15.265  0.2163  0.2108  0.2961
18875TIP3    H178116   6.001   5.470  15.306 -0.6525 -0.9033  0.2922
18875TIP3    H278117   6.135   5.482  15.237 -0.4036  1.2108  1.0795
18876TIP3   OH278118   3.564   4.635   5.334  0.2490  0.2224  0.0684
18876TIP3    H178119   3.528   4.678   5.256  0.6140  2.2563  0.9519
18876TIP3    H278120   3.658   4.633   5.319  0.1516 -1.6948 -0.5949
18877TIP3   OH278121   2.300   6.515  13.087 -0.6834 -0.0433 -0.4084
18877TIP3    H178122   2.251   6.464  13.022  0.1527 -0.2349 -0.9041
18877TIP3    H278123   2.390   6.512  13.056 -0.3282  0.1687  0.5777
18878TIP3   OH278124   3.190   4.957  14.117  0.7446 -0.0781 -0.3535
18878TIP3    H178125   3.156   4.867  14.120 -1.6063  0.7703  1.1350
18878TIP3    H278126   3.126   5.005  14.064 -0.2440  1.4564  2.0629
18879TIP3   OH278127   2.393   4.113   3.107  0.5271  0.0696  0.0480
18879TIP3    H178128   2.361   4.168   3.177  2.3816 -0.3946  1.3480
18879TIP3    H278129   2.429   4.174   3.043 -0.6664  0.4716 -0.2697
18880TIP3   OH278130   0.354   0.459   1.375  0.3780 -0.3994  0.1812
18880TIP3    H178131   0.444   0.433   1.353  0.0290 -0.6300 -1.0327
18880TIP3    H278132   0.331   0.524   1.309 -0.5338 -0.7316  0.1636
18881TIP3   OH278133   2.781   5.590   3.820 -0.1146  0.1073  0.2139
18881TIP3    H178134   2.753   5.570   3.910  1.5894  0.5244  0.8763
18881TIP3    H278135   2.873   5.565   3.818 -0.4033 -0.9934 -1.7965
18882TIP3   OH278136   3.042   0.552   2.642  0.0684 -0.2197 -0.1130
18882TIP3    H178137   3.013   0.556   2.551  1.6810  1.2372 -0.6279
18882TIP3    H278138   2.997   0.476   2.679 -2.0486  0.2380 -1.5938
18883TIP3   OH278139   6.092   5.001   6.722 -0.3762  0.6185 -0.1088
18883TIP3    H178140   6.125   5.082   6.760  0.2575  0.0738  0.5453
18883TIP3    H278141   6.155   4.977   6.654 -0.2678  0.4032  0.0635
18884TIP3   OH278142   0.792   6.233   2.506 -0.2380 -0.3770 -0.6582
18884TIP3    H178143   0.873   6.197   2.544 -0.9281 -2.4799 -1.0354
18884TIP3    H278144   0.822   6.286   2.432  0.8161 -0.7943 -0.5540
18885TIP3   OH278145   0.154   0.330   3.390  0.1342 -0.5280 -0.0727
18885TIP3    H178146   0.104   0.250   3.374  0.6980 -0.7999 -0.5258
18885TIP3    H278147   0.089   0.395   3.414 -0.2717 -1.2832  0.9275
18886TIP3   OH278148   2.282   0.032  14.295 -0.3380  0.3490 -0.2741
18886TIP3    H178149   2.283   0.042  14.200 -0.9229  2.0092 -0.1316
18886TIP3    H278150   2.312   0.117  14.329 -0.2499 -0.1744  1.0295
18887TIP3   OH278151   0.261   6.442  12.175  0.3398 -0.1840 -0.1660
18887TIP3    H178152   0.320   6.511  12.206  0.0185 -0.3411  0.8216
18887TIP3    H278153   0.317   6.386  12.122  1.2027 -0.5760  1.1184
18888TIP3   OH278154   4.978   1.060   1.887  0.1573 -0.2345 -0.6195
18888TIP3    H178155   4.954   1.141   1.931 -1.0289 -0.3917 -0.9500
18888TIP3    H278156   5.073   1.055   1.897  0.3179  1.4415 -1.0350
18889TIP3   OH278157   0.195   3.330   1.757  0.4202 -0.1180 -0.4774
18889TIP3    H178158   0.136   3.303   1.827  0.9371 -0.0294 -0.0032
18889TIP3    H278159   0.282   3.308   1.789  0.6809  0.1368 -0.9968
18890TIP3   OH278160   2.001   3.528  10.758 -0.1089  0.0993  0.2086
18890TIP3    H178161   2.077   3.539  10.701 -1.3065  0.8385 -1.3255
18890TIP3    H278162   1.999   3.434  10.777  0.0846 -0.2454 -1.3386
18891TIP3   OH278163   5.914   1.092  13.299  0.2745 -0.6483  0.1626
18891TIP3    H178164   5.931   1.053  13.213  1.5813  1.6995 -0.7391
18891TIP3    H278165   5.868   1.173  13.280 -1.9259 -1.3811  1.9319
18892TIP3   OH278166   3.054   1.328  12.612  0.1918  0.5892 -0.4584
18892TIP3    H178167   3.032   1.339  12.519  0.1112 -0.0993 -0.5215
18892TIP3    H278168   2.995   1.388  12.658 -0.1264  0.5469 -0.8128
18893TIP3   OH278169   6.424   5.459   0.405  0.5314  0.6093 -0.1796
18893TIP3    H178170   6.460   5.476   0.318  0.0821 -2.7616 -1.1544
18893TIP3    H278171   6.460   5.374   0.430 -0.7615  0.6675  2.1700
18894TIP3   OH278172   0.332   5.126   1.298 -0.2440  0.2382  0.3184
18894TIP3    H178173   0.349   5.036   1.325  0.8187  0.3540  0.0578
18894TIP3    H278174   0.300   5.169   1.378 -2.4078 -0.7508  0.0641
18895TIP3   OH278175   0.773   1.726  12.367  0.1576 -0.1173 -0.0089
18895TIP3    H178176   0.697   1.674  12.340 -2.2923  3.5620 -1.0719
18895TIP3    H278177   0.760   1.739  12.461  0.1867 -0.5014  0.0508
18896TIP3   OH278178   5.875   3.347   4.823 -0.8009  0.4361  0.2997
18896TIP3    H178179   5.807   3.414   4.813 -3.6554 -2.5288 -3.0472
18896TIP3    H278180   5.848   3.298   4.900 -1.9693 -0.1122 -0.4281
18897TIP3   OH278181   2.896   0.223  14.088 -0.0749 -0.0480  0.1264
18897TIP3    H178182   2.943   0.218  14.005  0.3526 -0.1648  0.3738
18897TIP3    H278183   2.835   0.150  14.085  0.8010 -0.8102  0.4355
18898TIP3   OH278184   1.232   0.359   3.616 -0.3302 -0.7676  0.1942
18898TIP3    H178185   1.260   0.301   3.688  2.5181 -2.3596 -1.9970
18898TIP3    H278186   1.305   0.420   3.604 -1.8272  1.1030  0.1764
18899TIP3   OH278187   2.911   2.528   1.277 -0.5212 -0.0974 -0.3634
18899TIP3    H178188   2.839   2.465   1.279 -1.3075  0.7331 -1.5460
18899TIP3    H278189   2.868   2.613   1.268  0.6001  0.4559 -0.6099
18900TIP3   OH278190   5.151   4.873   4.969 -0.2980 -0.2330 -0.2739
18900TIP3    H178191   5.081   4.913   5.021 -0.5906 -0.7977 -0.2321
18900TIP3    H278192   5.156   4.927   4.890 -1.0682 -0.4415 -0.4697
18901TIP3   OH278193   0.581   5.415   5.460  0.1953 -0.0181 -0.5092
18901TIP3    H178194   0.625   5.392   5.378 -0.8796 -0.9938 -0.8331
18901TIP3    H278195   0.526   5.339   5.479  2.8871 -1.3855  2.8736
18902TIP3   OH278196   1.165   5.199  12.852 -0.3785 -0.5829 -0.7416
18902TIP3    H178197   1.239   5.161  12.804 -0.5715  0.2484 -1.7377
18902TIP3    H278198   1.206   5.246  12.924  0.2686  1.3083 -2.2398
18903TIP3   OH278199   1.825   1.619   1.581  0.0761  0.6182  0.2687
18903TIP3    H178200   1.800   1.668   1.660  1.2882 -0.3798  1.3266
18903TIP3    H278201   1.764   1.545   1.578  0.1719  0.5319  0.4149
18904TIP3   OH278202   1.779   5.373  16.011  0.2586  0.5602 -0.3989
18904TIP3    H178203   1.750   5.328  16.090  1.7736 -1.2171 -0.7875
18904TIP3    H278204   1.753   5.464  16.024 -2.2160 -0.2207  0.7896
18905TIP3   OH278205   4.510   4.528  16.555  0.0268  0.8481 -0.6156
18905TIP3    H178206   4.436   4.535  16.494  0.3183 -0.2710 -1.1346
18905TIP3    H278207   4.543   4.439  16.542 -1.2253 -0.2419  2.7486
18906TIP3   OH278208   1.565   0.114   4.973 -1.1333  0.2765 -0.3659
18906TIP3    H178209   1.490   0.148   5.022 -0.8539  0.8036 -0.2994
18906TIP3    H278210   1.604   0.191   4.932 -1.6508 -0.2148 -1.8321
18907TIP3   OH278211   4.274   4.951   4.293  0.3709  0.3287  0.2598
18907TIP3    H178212   4.198   4.966   4.237  1.4790  1.5922 -0.9944
18907TIP3    H278213   4.268   4.859   4.317 -1.1580  0.2179 -0.4041
18908TIP3   OH278214   0.400   5.209   5.000  0.1336 -0.3458  0.0735
18908TIP3    H178215   0.323   5.179   4.951 -0.1890 -0.7722  0.8347
18908TIP3    H278216   0.452   5.130   5.013  0.4805 -0.1380 -0.0318
18909TIP3   OH278217   0.632   4.392  15.715  0.1084  0.0688 -0.0240
18909TIP3    H178218   0.640   4.408  15.809 -3.0536 -0.1818  0.3883
18909TIP3    H278219   0.655   4.476  15.675 -3.4055  1.8680  1.3442
18910TIP3   OH278220   0.401   4.848  15.484 -0.6401 -0.0943 -0.0927
18910TIP3    H178221   0.318   4.849  15.436 -0.4081 -1.0543 -0.5379
18910TIP3    H278222   0.397   4.926  15.539 -1.5394  0.2500 -0.6129
18911TIP3   OH278223   2.836   6.209   3.060  0.2341  0.4065  0.2258
18911TIP3    H178224   2.837   6.288   3.007 -0.8010  1.2917  1.4507
18911TIP3    H278225   2.751   6.211   3.105  0.1999 -1.3741  0.3386
18912TIP3   OH278226   4.227   2.605  14.204 -0.0635 -0.6854  0.1368
18912TIP3    H178227   4.308   2.554  14.203  0.3409 -0.0882  1.3584
18912TIP3    H278228   4.207   2.619  14.111  1.1531 -0.9675 -0.1857
18913TIP3   OH278229   3.164   3.158   0.580  0.2335  0.2994 -0.6664
18913TIP3    H178230   3.158   3.117   0.494  1.2817 -2.6979  0.5441
18913TIP3    H278231   3.074   3.161   0.612  0.2271 -3.1666 -0.0074
18914TIP3   OH278232   4.589   5.522   1.809  0.2273  0.0839  0.2833
18914TIP3    H178233   4.679   5.520   1.841  0.1898  1.6625  0.6093
18914TIP3    H278234   4.545   5.586   1.866 -0.9595 -0.2666 -0.2035
18915TIP3   OH278235   0.349   4.684  15.871 -0.4167 -0.0301  0.4520
18915TIP3    H178236   0.441   4.708  15.858  0.3811 -2.6017  0.8326
18915TIP3    H278237   0.315   4.669  15.783  0.5532 -2.3093  0.3904
18916TIP3   OH278238   1.240   6.369  14.184 -0.3131  0.3658  0.0270
18916TIP3    H178239   1.154   6.350  14.146  0.0649 -1.2708 -0.0491
18916TIP3    H278240   1.301   6.366  14.110 -0.0951  0.9242  0.1773
18917TIP3   OH278241   2.656   6.031   5.832  0.2074 -0.2684 -0.2021
18917TIP3    H178242   2.629   6.079   5.910  0.8379 -0.0923 -0.0875
18917TIP3    H278243   2.630   6.087   5.759  0.2935 -0.0826 -0.0908
18918TIP3   OH278244   2.507   3.644  11.991  0.3648 -0.0239 -0.3002
18918TIP3    H178245   2.595   3.670  11.963  0.4604 -0.1066 -0.0842
18918TIP3    H278246   2.450   3.667  11.918  0.6023 -0.2012 -0.5389
18919TIP3   OH278247   5.321   3.335   2.090  0.4416 -0.4616  0.2342
18919TIP3    H178248   5.305   3.251   2.134  2.3313 -0.6682  0.6016
18919TIP3    H278249   5.416   3.346   2.094  0.2504  1.5866 -0.0411
18920TIP3   OH278250   4.149   4.041  16.706 -0.3204  0.3635 -0.2602
18920TIP3    H178251   4.138   3.962  16.759  0.9779 -0.2617 -0.8808
18920TIP3    H278252   4.068   4.046  16.654  0.8481 -2.5287 -2.6933
18921TIP3   OH278253   3.280   2.064   4.607  0.3687 -0.6687 -0.2327
18921TIP3    H178254   3.201   2.099   4.649  0.3971  1.5481 -1.8550
18921TIP3    H278255   3.351   2.121   4.639  0.7210 -0.3539 -1.5313
18922TIP3   OH278256   6.734   2.772   0.565  0.0948 -0.1412 -0.1079
18922TIP3    H178257   6.697   2.745   0.650 -0.3582  1.6966  0.3146
18922TIP3    H278258   6.660   2.770   0.505  0.3778 -1.2556 -0.4533
18923TIP3   OH278259   2.125   4.787   5.837  0.0049 -0.5805 -0.6973
18923TIP3    H178260   2.123   4.882   5.845  0.1534 -0.6669  0.7139
18923TIP3    H278261   2.064   4.767   5.767  0.8054  0.6152 -1.7861
18924TIP3   OH278262   6.352   6.046  13.042  0.1467  0.6878  0.8304
18924TIP3    H178263   6.329   6.090  12.960 -1.0300  1.5431  1.5986
18924TIP3    H278264   6.381   5.958  13.014 -3.4359 -0.2765 -0.3399
18925TIP3   OH278265   1.519   2.330  16.906  0.0119 -0.0845 -0.1912
18925TIP3    H178266   1.547   2.333  16.997  0.0011  0.6287 -0.2046
18925TIP3    H278267   1.444   2.271  16.905  0.7249 -1.0124  0.0602
18926TIP3   OH278268   5.601   6.692  11.482  0.1522  0.4906 -0.7625
18926TIP3    H178269   5.657   6.769  11.486  2.1654 -0.9583  0.7091
18926TIP3    H278270   5.572   6.678  11.572  0.1300 -0.6587 -0.9244
18927TIP3   OH278271   0.667   0.421  11.349  0.4042 -0.4255  0.0992
18927TIP3    H178272   0.702   0.510  11.351 -0.7136  0.0235  1.9525
18927TIP3    H278273   0.744   0.365  11.349  1.2111  0.5451  2.9854
18928TIP3   OH278274   2.578   5.122   2.469 -0.2239  0.6795 -0.0567
18928TIP3    H178275   2.626   5.195   2.509  0.6806  0.2777 -0.3677
18928TIP3    H278276   2.572   5.057   2.540 -0.8465  0.9695  0.1593
18929TIP3   OH278277   3.508   4.464  15.330  0.4653  0.0301  0.0220
18929TIP3    H178278   3.586   4.496  15.376  1.1847  0.1306 -1.2288
18929TIP3    H278279   3.438   4.523  15.359  1.4797  1.9300 -1.1384
18930TIP3   OH278280   1.855   4.135  15.300 -0.0585 -0.0192 -0.2951
18930TIP3    H178281   1.896   4.188  15.232  0.6629 -0.3640 -0.1369
18930TIP3    H278282   1.897   4.163  15.381  1.7795 -2.1583 -0.4107
18931TIP3   OH278283   5.735   4.138  13.691 -0.1033 -0.4017 -0.2091
18931TIP3    H178284   5.749   4.119  13.598 -2.5649 -0.9165 -0.5440
18931TIP3    H278285   5.798   4.083  13.736  0.3906 -0.9779 -1.5347
18932TIP3   OH278286   6.192   2.804  15.480 -0.0348  0.3432  0.0488
18932TIP3    H178287   6.107   2.775  15.447 -0.8858  1.4552  1.1687
18932TIP3    H278288   6.172   2.878  15.537  1.6691  0.4520  0.5747
18933TIP3   OH278289   4.605   3.282   2.816  0.0002  0.0767 -0.5597
18933TIP3    H178290   4.634   3.267   2.906 -0.2562  1.2890 -0.2571
18933TIP3    H278291   4.514   3.312   2.825 -0.0075  0.2547 -1.2199
18934TIP3   OH278292   2.272   5.896   5.599  0.2210  0.1722 -0.2267
18934TIP3    H178293   2.362   5.913   5.572  0.4136  0.4009  0.5300
18934TIP3    H278294   2.237   5.982   5.622  0.7415 -0.1845  2.2333
18935TIP3   OH278295   6.310   5.586   5.796 -0.2943  0.1339  0.7317
18935TIP3    H178296   6.336   5.659   5.740 -0.5142 -0.1727  0.2256
18935TIP3    H278297   6.215   5.590   5.799 -0.2778  0.2499  1.2268
18936TIP3   OH278298   0.698   1.812   1.812 -0.3246  0.1467 -0.5760
18936TIP3    H178299   0.760   1.878   1.782  1.1275 -0.9573 -0.1581
18936TIP3    H278300   0.612   1.848   1.792  0.3478  2.5926  0.5581
18937TIP3   OH278301   1.330   1.254  11.455 -0.0552  0.2045 -0.3789
18937TIP3    H178302   1.296   1.197  11.387  1.7413 -0.0882 -1.0947
18937TIP3    H278303   1.417   1.219  11.475  0.8404  2.2613 -0.3749
18938TIP3   OH278304   0.140   6.055   5.108  0.7503 -0.4691  0.4474
18938TIP3    H178305   0.118   6.135   5.156 -1.8932 -2.2511  2.5641
18938TIP3    H278306   0.214   6.018   5.156  2.1331  0.7257 -0.6775
18939TIP3   OH278307   1.138   0.957  14.668 -0.1342  0.0897 -0.7866
18939TIP3    H178308   1.225   0.965  14.709 -0.6411 -1.5576  0.7622
18939TIP3    H278309   1.127   0.863  14.656 -1.5827  0.3099 -1.2966
18940TIP3   OH278310   0.932   0.219  12.595 -0.4488  0.8770 -0.1347
18940TIP3    H178311   0.867   0.265  12.541 -0.6700 -0.5041 -1.1162
18940TIP3    H278312   0.879   0.171  12.659 -0.3916  0.0708 -0.6788
18941TIP3   OH278313   2.090   4.880   3.894 -0.6557 -0.1275  0.5763
18941TIP3    H178314   2.089   4.976   3.889 -2.0233 -0.1323  0.0596
18941TIP3    H278315   2.149   4.853   3.824 -1.9863  0.3373 -0.8018
18942TIP3   OH278316   6.790   2.552  13.970 -0.3670  0.5308 -0.2142
18942TIP3    H178317   6.840   2.624  14.008 -0.7432  0.2288  0.9116
18942TIP3    H278318   6.851   2.479  13.966 -0.3051  0.5849 -0.2422
18943TIP3   OH278319   1.175   4.114  14.956  0.0040 -0.2030 -0.0344
18943TIP3    H178320   1.257   4.069  14.973  0.0430 -0.5680 -1.1350
18943TIP3    H278321   1.184   4.198  15.001  0.6165 -0.5963  0.5931
18944TIP3   OH278322   2.703   3.733  12.242  0.3279 -0.0818 -0.5899
18944TIP3    H178323   2.765   3.679  12.192 -0.0481 -0.6861 -0.4109
18944TIP3    H278324   2.726   3.823  12.219  2.0870 -0.2311  0.4039
18945TIP3   OH278325   3.905   1.993  16.811  0.2327 -0.0155  0.0623
18945TIP3    H178326   3.993   1.972  16.779  0.5209  1.1943  0.0147
18945TIP3    H278327   3.899   2.088  16.803 -0.2543  0.1686  2.1412
18946TIP3   OH278328   5.469   2.806  12.951  0.6075  0.2697  0.3890
18946TIP3    H178329   5.415   2.749  13.006  2.1307  0.4278  2.1301
18946TIP3    H278330   5.473   2.889  12.998 -0.2922  1.3724 -1.3551
18947TIP3   OH278331   2.767   2.409   0.566 -0.3564 -0.2645  0.1667
18947TIP3    H178332   2.792   2.469   0.496 -3.0476 -0.3594 -1.0148
18947TIP3    H278333   2.742   2.467   0.638  0.4132 -0.0926  0.3017
18948TIP3   OH278334   3.802   4.220  13.142  0.6782  0.8846 -0.1916
18948TIP3    H178335   3.717   4.240  13.102  0.3408  2.6251  1.2756
18948TIP3    H278336   3.829   4.302  13.184  1.9079 -0.3015  1.4730
18949TIP3   OH278337   5.061   2.912  13.033  0.3068 -0.0145  0.1950
18949TIP3    H178338   5.100   2.956  13.109  2.9173 -2.3253  0.3498
18949TIP3    H278339   4.970   2.897  13.058  0.1059  2.5172  1.2967
18950TIP3   OH278340   4.060   2.517  12.143  0.1059 -0.1791  0.4104
18950TIP3    H178341   4.031   2.607  12.158 -2.2214 -0.9561  0.8580
18950TIP3    H278342   4.115   2.496  12.219  0.4631  0.7682  0.4217
18951TIP3   OH278343   0.474   0.444   4.438  0.2929 -0.2416  0.5585
18951TIP3    H178344   0.393   0.404   4.469  1.5140 -2.1623  1.4275
18951TIP3    H278345   0.521   0.469   4.517  0.5961  0.8169  0.0670
18952TIP3   OH278346   0.823   0.176  16.773  0.3102 -0.6495  0.1762
18952TIP3    H178347   0.827   0.270  16.792  1.7535 -0.0944 -2.3146
18952TIP3    H278348   0.915   0.149  16.769  0.1503 -1.1344 -3.1564
18953TIP3   OH278349   0.277   6.183  17.143  0.6059 -0.0371 -0.0384
18953TIP3    H178350   0.285   6.233  17.224 -0.9362  0.5278 -0.2054
18953TIP3    H278351   0.365   6.149  17.127  0.8611 -0.4332  2.0242
18954TIP3   OH278352   6.799   5.500  14.707 -0.3208 -0.9116 -0.3386
18954TIP3    H178353   6.806   5.474  14.615 -0.3694  1.7747 -1.1648
18954TIP3    H278354   6.884   5.537  14.729 -0.8066 -0.0826  0.2028
18955TIP3   OH278355   1.036   4.408   2.315 -0.1066 -0.3944  0.7149
18955TIP3    H178356   0.961   4.462   2.341 -0.4894 -0.2560 -0.6296
18955TIP3    H278357   1.052   4.430   2.224  0.1402 -2.0701  0.3162
18956TIP3   OH278358   4.628   6.032   3.544  0.0895 -0.5349  0.2009
18956TIP3    H178359   4.604   6.001   3.456  1.0475  0.8571 -0.5952
18956TIP3    H278360   4.634   5.952   3.597 -0.9902 -1.3654 -0.8661
18957TIP3   OH278361   5.829   6.076  13.745  0.1291 -0.0526  0.6361
18957TIP3    H178362   5.757   6.126  13.708  1.0436  0.0330 -1.1415
18957TIP3    H278363   5.893   6.143  13.772  0.5217 -0.1737  0.0398
18958TIP3   OH278364   2.056   1.040   2.401 -0.2771  0.9533 -0.2702
18958TIP3    H178365   2.039   0.959   2.353  0.5958  1.3878 -1.3435
18958TIP3    H278366   2.034   1.019   2.492  0.6892 -0.7378 -0.3871
18959TIP3   OH278367   0.518   2.549   1.264 -0.0821 -0.1773 -0.1333
18959TIP3    H178368   0.445   2.578   1.318 -0.7377  0.6902 -1.4440
18959TIP3    H278369   0.502   2.588   1.178  3.4068  2.5734  0.2250
18960TIP3   OH278370   4.104   2.332   1.181  0.0197  0.6067  0.4344
18960TIP3    H178371   4.176   2.370   1.130  0.6311 -0.0219  0.8005
18960TIP3    H278372   4.063   2.406   1.224 -0.9373  1.2461 -1.4708
18961TIP3   OH278373   2.750   3.190   5.785 -0.2793 -0.0553  0.1371
18961TIP3    H178374   2.681   3.138   5.825 -1.1859  0.6439 -0.4714
18961TIP3    H278375   2.797   3.229   5.859 -1.4117  0.5584  0.5530
18962TIP3   OH278376   5.691   5.786  14.006 -0.3061 -0.1127  0.3311
18962TIP3    H178377   5.654   5.704  14.038 -1.2144  0.1054 -0.1207
18962TIP3    H278378   5.654   5.797  13.919  0.0896  0.6016  0.2428
18963TIP3   OH278379   6.727   0.410   4.981  0.0125  0.4432  0.0309
18963TIP3    H178380   6.707   0.352   5.054 -2.1010  1.4239  0.3150
18963TIP3    H278381   6.814   0.445   5.001 -0.3808  0.4505  1.9262
18964TIP3   OH278382   3.734   1.221  10.491  0.1168  0.0090  0.0138
18964TIP3    H178383   3.814   1.197  10.444  0.0359 -0.4410  0.1095
18964TIP3    H278384   3.712   1.308  10.456 -0.7638 -0.9208 -1.9006
18965TIP3   OH278385   6.187   6.830   3.326  0.0474  0.0883 -0.0572
18965TIP3    H178386   6.228   6.860   3.407  0.9064  0.8986 -0.7730
18965TIP3    H278387   6.169   6.910   3.277 -0.1248 -0.4125 -0.8253
18966TIP3   OH278388   2.824   1.515   2.448 -0.0551 -0.0952 -0.4624
18966TIP3    H178389   2.894   1.516   2.514 -0.6521  0.9203  0.1952
18966TIP3    H278390   2.747   1.488   2.497 -0.4550  0.4207 -0.7943
18967TIP3   OH278391   6.129   3.075  11.846  0.1925 -0.2739 -0.3667
18967TIP3    H178392   6.058   3.122  11.890  1.1814  0.4909  0.4497
18967TIP3    H278393   6.122   3.102  11.755 -0.3533  0.0554 -0.2355
18968TIP3   OH278394   1.633   5.683  11.721  0.3139  0.1589 -0.5712
18968TIP3    H178395   1.709   5.657  11.773  0.0697  1.6963  0.6237
18968TIP3    H278396   1.669   5.708  11.636  1.2674  1.5523  0.2118
18969TIP3   OH278397   1.322   5.907   2.873  0.7576  0.0727 -0.4461
18969TIP3    H178398   1.326   5.814   2.895 -0.6196 -0.0044 -0.4057
18969TIP3    H278399   1.413   5.935   2.872  1.1062 -0.6385  2.2732
18970TIP3   OH278400   3.869   6.560   4.759  0.1487 -0.1094 -0.0103
18970TIP3    H178401   3.948   6.543   4.810 -0.2096  0.9617  0.9348
18970TIP3    H278402   3.900   6.569   4.669  1.2097  0.8995  0.4289
18971TIP3   OH278403   5.388   3.417   6.181 -0.2590 -0.0101 -0.3226
18971TIP3    H178404   5.306   3.396   6.137 -1.0459 -0.1626  1.1357
18971TIP3    H278405   5.420   3.332   6.213  0.6351  0.0088 -1.1303
18972TIP3   OH278406   0.095   5.937  15.029  0.5031 -0.0215  0.5213
18972TIP3    H178407   0.137   5.854  15.056  0.5932  0.0749  0.6838
18972TIP3    H278408   0.126   5.952  14.940  0.2511 -0.3154  0.3834
18973TIP3   OH278409   2.665   4.710   1.339 -0.6915 -0.0650 -0.2154
18973TIP3    H178410   2.670   4.686   1.246  0.5343 -0.4789 -0.0562
18973TIP3    H278411   2.593   4.657   1.373 -0.5387 -0.6105 -0.7242
18974TIP3   OH278412   2.063   2.651  13.260 -0.0850 -0.2879  0.3575
18974TIP3    H178413   2.075   2.589  13.188  0.1145 -1.2714  1.2073
18974TIP3    H278414   2.000   2.608  13.318 -0.0571  0.3774  0.8937
18975TIP3   OH278415   0.808   5.221   5.577 -0.1115 -0.0929  0.1781
18975TIP3    H178416   0.823   5.315   5.569 -1.1750  0.0496 -0.3722
18975TIP3    H278417   0.894   5.184   5.597  0.1684  1.0751  1.2071
18976TIP3   OH278418   5.631   0.182   4.689  0.1357  0.3283 -0.0826
18976TIP3    H178419   5.659   0.155   4.602 -0.3498 -0.7949  0.0920
18976TIP3    H278420   5.629   0.101   4.740  0.1975  0.9382  0.9152
18977TIP3   OH278421   3.566   1.783  13.510 -0.1351  0.3564 -0.0054
18977TIP3    H178422   3.603   1.792  13.598  0.7948 -2.1525 -0.0748
18977TIP3    H278423   3.568   1.690  13.492 -1.0951  0.7200 -2.3970
18978TIP3   OH278424   5.014   5.851  16.419  0.7567 -0.0238 -0.0978
18978TIP3    H178425   4.983   5.792  16.350  0.1495 -0.4600  0.5287
18978TIP3    H278426   5.103   5.821  16.439  0.5684 -0.5284 -0.0074
18979TIP3   OH278427   0.753   1.657   1.553 -0.3308  0.1998  0.2371
18979TIP3    H178428   0.843   1.679   1.531  0.3072 -1.9738  0.4674
18979TIP3    H278429   0.724   1.729   1.610  0.3955  2.1751 -1.7582
18980TIP3   OH278430   6.430   6.424   0.435 -0.1334  0.0757  0.2530
18980TIP3    H178431   6.352   6.371   0.419 -0.1087  0.3455 -0.7794
18980TIP3    H278432   6.397   6.512   0.450  0.0121  0.3574 -1.0040
18981TIP3   OH278433   0.814   4.921  16.136  0.0710  0.2256  0.5396
18981TIP3    H178434   0.847   4.912  16.226  0.7633  1.2051  0.4064
18981TIP3    H278435   0.853   5.003  16.105 -0.4683  0.0902 -0.5281
18982TIP3   OH278436   0.740   4.139  16.629 -0.2460  0.1867 -0.5705
18982TIP3    H178437   0.742   4.182  16.715  0.4675  0.3283 -0.6540
18982TIP3    H278438   0.675   4.189  16.579  1.1359  1.7162 -0.9254
18983TIP3   OH278439   3.969   5.714   2.448  0.1131 -0.2337 -0.0893
18983TIP3    H178440   3.938   5.630   2.483 -0.6681 -0.2818 -0.8454
18983TIP3    H278441   3.925   5.721   2.363  0.2488  0.9005 -0.0717
18984TIP3   OH278442   1.131   0.425  12.661  0.6319 -0.4864  0.2610
18984TIP3    H178443   1.201   0.445  12.599  0.4802  0.4318  0.3700
18984TIP3    H278444   1.096   0.340  12.631  1.0695 -0.4303 -0.4378
18985TIP3   OH278445   4.325   5.730  11.660 -0.2367  0.2776 -0.4743
18985TIP3    H178446   4.262   5.724  11.589 -0.7331 -0.4192  0.0031
18985TIP3    H278447   4.403   5.687  11.627 -0.9488 -1.3823 -0.1175
18986TIP3   OH278448   4.607   0.690   5.389 -0.2364  0.4317  0.1437
18986TIP3    H178449   4.645   0.765   5.344  2.0616  0.2012  1.5225
18986TIP3    H278450   4.550   0.729   5.456 -1.6560  0.8092 -1.2176
18987TIP3   OH278451   2.155   0.706   3.088 -0.1534 -0.1058  0.4079
18987TIP3    H178452   2.095   0.663   3.149 -0.2948  0.8249  0.9474
18987TIP3    H278453   2.242   0.692   3.126  0.1503 -2.4347 -0.9596
18988TIP3   OH278454   6.827   1.912  11.438  0.0399 -0.0350  0.4730
18988TIP3    H178455   6.811   2.006  11.434  0.8216  0.0708 -1.2443
18988TIP3    H278456   6.752   1.877  11.486 -1.1297  1.2895 -0.3034
18989TIP3   OH278457   2.848   1.865  15.551  0.0422  0.5838  0.1033
18989TIP3    H178458   2.894   1.839  15.471 -2.0384 -2.1102 -0.3413
18989TIP3    H278459   2.845   1.785  15.604 -2.9538  0.9378  0.6268
18990TIP3   OH278460   0.242   6.035   3.867 -0.7862  0.0069  0.0056
18990TIP3    H178461   0.333   6.006   3.878 -0.2989  1.2635 -0.5725
18990TIP3    H278462   0.216   6.000   3.783 -0.9293 -0.5845  0.2943
18991TIP3   OH278463   6.592   1.066  12.974  0.7053 -0.1493 -1.0218
18991TIP3    H178464   6.679   1.046  12.939  0.1189 -0.5788 -2.3237
18991TIP3    H278465   6.583   1.008  13.050  1.7330  0.2500 -0.5861
18992TIP3   OH278466   5.536   3.651  14.826 -0.6901  0.2941  0.3282
18992TIP3    H178467   5.587   3.573  14.850 -2.5899 -0.5558  1.8985
18992TIP3    H278468   5.499   3.631  14.741 -1.0944 -0.5099  0.6827
18993TIP3   OH278469   5.601   4.361  13.847  0.1317 -0.0390 -0.4435
18993TIP3    H178470   5.655   4.286  13.822 -0.8738 -1.0064  0.1825
18993TIP3    H278471   5.529   4.323  13.897  0.7216  1.5400  1.7693
18994TIP3   OH278472   0.900   2.837   2.089  0.3651 -0.6254  0.2765
18994TIP3    H178473   0.894   2.927   2.057 -0.2314  0.1524  2.3905
18994TIP3    H278474   0.985   2.807   2.059  0.7967  0.8232 -0.0455
18995TIP3   OH278475   5.283   2.015   5.445 -0.3964  0.4823 -0.2553
18995TIP3    H178476   5.347   2.000   5.515 -0.2906  1.4878 -0.1160
18995TIP3    H278477   5.287   1.936   5.391 -0.2063 -0.1438  0.6575
18996TIP3   OH278478   4.647   1.305  12.269 -0.1118  0.4240 -0.3201
18996TIP3    H178479   4.563   1.275  12.305 -0.8864  0.9393 -1.6186
18996TIP3    H278480   4.641   1.400  12.274  0.8750  0.4551  0.5755
18997TIP3   OH278481   4.150   5.459  13.835 -0.1099  0.5821  0.4522
18997TIP3    H178482   4.056   5.464  13.817 -0.4050  2.2598  2.1931
18997TIP3    H278483   4.185   5.539  13.795  0.3967  0.5347  0.8049
18998TIP3   OH278484   3.437   0.046   3.328 -0.4046  0.6645  0.3353
18998TIP3    H178485   3.451   0.136   3.299  1.3371  0.7453  1.3233
18998TIP3    H278486   3.488  -0.007   3.266 -1.0904  0.3834  0.0040
18999TIP3   OH278487   2.485   2.232   2.351 -0.3318  1.4084  0.0364
18999TIP3    H178488   2.508   2.307   2.297 -0.8574  3.8449  2.9075
18999TIP3    H278489   2.562   2.175   2.348  1.2070  3.4068 -0.1198
19000TIP3   OH278490   4.837   6.113   0.585  0.1132 -0.0558 -0.9787
19000TIP3    H178491   4.793   6.197   0.598 -0.2351 -0.3507 -0.1503
19000TIP3    H278492   4.927   6.136   0.564  0.3128  0.5439  0.3977
19001TIP3   OH278493   5.802   6.656   5.139  0.3947  0.4903  0.1187
19001TIP3    H178494   5.867   6.588   5.157  1.2848  1.1274 -0.5841
19001TIP3    H278495   5.780   6.691   5.225  2.1901  1.3369  0.2889
19002TIP3   OH278496   3.114   0.040   3.714 -0.4219 -0.0773  0.2926
19002TIP3    H178497   3.140   0.116   3.766  1.1270 -0.6723  0.4453
19002TIP3    H278498   3.149   0.058   3.626  1.8115 -1.4959  0.8280
19003TIP3   OH278499   2.196   4.329   1.305  0.7739  0.2805  0.5722
19003TIP3    H178500   2.203   4.250   1.250 -0.4404 -0.2480  1.1457
19003TIP3    H278501   2.216   4.298   1.393 -1.6688  0.1156  1.1495
19004TIP3   OH278502   2.623   6.528   3.789 -0.5293  0.3654 -0.5899
19004TIP3    H178503   2.650   6.619   3.773 -0.5523  0.2970 -1.0252
19004TIP3    H278504   2.685   6.476   3.737 -0.9480  0.1652 -0.8897
19005TIP3   OH278505   1.365   4.006   1.554 -0.1847 -0.3976 -0.2357
19005TIP3    H178506   1.296   4.071   1.569  0.2263 -0.4340  2.2987
19005TIP3    H278507   1.318   3.923   1.544 -0.5925 -0.1389 -0.4720
19006TIP3   OH278508   0.739   3.512  13.222 -0.5883 -0.8711 -0.2010
19006TIP3    H178509   0.749   3.596  13.266  0.1950  0.2218 -2.3137
19006TIP3    H278510   0.719   3.450  13.292 -0.1744  0.8777  1.5456
19007TIP3   OH278511   1.227   0.151   0.254 -0.3987  0.1848 -0.2574
19007TIP3    H178512   1.206   0.127   0.164 -0.5257  2.1552 -0.8083
19007TIP3    H278513   1.145   0.181   0.292 -0.2985 -0.3989  0.4539
19008TIP3   OH278514   0.274   2.062  12.057  0.0476  0.7385  0.1196
19008TIP3    H178515   0.203   2.071  12.120 -1.0653  1.4017 -1.1794
19008TIP3    H278516   0.256   1.980  12.012  0.1688  0.8492 -0.1340
19009TIP3   OH278517   0.359   0.109   4.096 -0.0023 -0.4139 -0.0411
19009TIP3    H178518   0.399   0.023   4.088 -3.0243 -2.0480  0.8674
19009TIP3    H278519   0.268   0.096   4.069 -0.9015  2.1964  1.3262
19010TIP3   OH278520   0.002   0.896   3.018 -0.2399  0.0988  0.6993
19010TIP3    H178521   0.061   0.952   2.966  0.0354 -0.8359 -0.0357
19010TIP3    H278522  -0.028   0.830   2.956 -0.8013 -0.3858  1.4760
19011TIP3   OH278523   3.762   1.515   0.692 -0.1513  0.6849  0.0290
19011TIP3    H178524   3.701   1.509   0.619 -1.1423  1.4702  0.7711
19011TIP3    H278525   3.707   1.521   0.770  0.8847 -0.1976  0.8695
19012TIP3   OH278526   0.803   3.793   3.672  0.3445  0.0718 -0.4078
19012TIP3    H178527   0.718   3.800   3.628 -0.4731 -0.8930  0.9493
19012TIP3    H278528   0.825   3.884   3.695  0.0851  0.4187 -1.4854
19013TIP3   OH278529   5.583   4.817  11.571  0.7481  0.1720  0.3529
19013TIP3    H178530   5.529   4.772  11.636  2.6412 -2.4214  0.2717
19013TIP3    H278531   5.598   4.904  11.608 -1.0933 -0.0099  1.6696
19014TIP3   OH278532   3.702   0.152  12.371  0.4116 -0.1353  0.0989
19014TIP3    H178533   3.654   0.111  12.443  0.6746 -0.8704 -0.1403
19014TIP3    H278534   3.635   0.198  12.321  0.1024 -0.3468  0.3174
19015TIP3   OH278535   6.213   0.142  11.121 -0.6772  0.3106  0.0965
19015TIP3    H178536   6.138   0.140  11.182 -0.0276 -1.1953  0.9145
19015TIP3    H278537   6.280   0.089  11.165  0.6540  1.1085 -0.9104
19016TIP3   OH278538   4.249   5.350   5.056 -0.3145 -0.0328 -0.3724
19016TIP3    H178539   4.186   5.279   5.053 -0.6028  0.2089 -0.0919
19016TIP3    H278540   4.196   5.429   5.061  0.0013  0.1165  1.0911
19017TIP3   OH278541   4.782   4.003   4.700  0.3574  0.3247 -0.5323
19017TIP3    H178542   4.777   4.025   4.607  0.8022  1.9469 -0.1950
19017TIP3    H278543   4.865   4.041   4.730  0.8622 -1.3142  0.2579
19018TIP3   OH278544   3.850   3.460  16.381 -0.0338  0.0470  0.1981
19018TIP3    H178545   3.806   3.376  16.363 -0.0814 -0.1478  1.2078
19018TIP3    H278546   3.875   3.492  16.294  1.9058 -2.0412 -0.1054
19019TIP3   OH278547   4.076   3.559  16.507 -0.0436  0.2035 -0.3662
19019TIP3    H178548   4.063   3.651  16.529 -3.4176 -0.2286 -0.0897
19019TIP3    H278549   3.996   3.533  16.462  1.2900 -2.3310 -1.4852
19020TIP3   OH278550   2.688   6.001   2.100 -0.1328  0.6397  0.3339
19020TIP3    H178551   2.657   5.965   2.183 -1.6340 -2.2805 -1.3228
19020TIP3    H278552   2.772   5.957   2.085 -1.6533 -2.0109 -1.3662
19021TIP3   OH278553   4.836   4.177   2.929 -0.0518 -0.5664 -0.0591
19021TIP3    H178554   4.781   4.221   2.864  0.7483  0.5650 -0.0076
19021TIP3    H278555   4.777   4.157   3.001 -0.6425 -0.4482 -0.4993
19022TIP3   OH278556   6.294   3.628   5.242 -0.5116  0.2952 -0.3072
19022TIP3    H178557   6.255   3.707   5.281 -1.4935 -0.4309  0.2123
19022TIP3    H278558   6.388   3.643   5.249 -0.5728 -0.2210  3.3257
19023TIP3   OH278559   5.146   0.246   3.705 -0.0824  0.0334 -0.2209
19023TIP3    H178560   5.161   0.160   3.666 -1.0141 -0.3164  0.1693
19023TIP3    H278561   5.155   0.232   3.799 -0.5065  0.3055 -0.1368
19024TIP3   OH278562   0.222   2.093  15.378  0.0233  0.6216 -0.0872
19024TIP3    H178563   0.208   2.176  15.425  0.3961  0.8286 -0.3368
19024TIP3    H278564   0.281   2.116  15.306 -0.3507  0.2579 -0.5164
19025TIP3   OH278565   1.511   6.219  12.418  0.5150 -0.4337 -0.1844
19025TIP3    H178566   1.459   6.141  12.436  0.3954 -0.5089 -0.8437
19025TIP3    H278567   1.599   6.197  12.448  0.2083 -0.3547  0.8152
19026TIP3   OH278568   4.226   2.378  16.682 -0.1448  0.5359  0.1396
19026TIP3    H178569   4.154   2.421  16.728  1.0551  2.9837 -0.0561
19026TIP3    H278570   4.185   2.336  16.607 -1.5056  0.9011  0.6460
19027TIP3   OH278571   4.896   3.764   1.556 -0.0592  0.2662 -0.4959
19027TIP3    H178572   4.880   3.852   1.523  1.1788  0.1420 -1.5644
19027TIP3    H278573   4.857   3.762   1.643 -3.2149  0.7400 -1.7849
19028TIP3   OH278574   1.738   5.573   0.318  0.0603  0.3304  0.9297
19028TIP3    H178575   1.806   5.617   0.370  2.2041 -2.4312  0.7169
19028TIP3    H278576   1.762   5.590   0.227 -0.3544  0.5012  0.8529
19029TIP3   OH278577   4.583   3.299  10.547  0.0095  0.0523  0.2477
19029TIP3    H178578   4.497   3.280  10.509 -0.0220  1.0776 -0.2284
19029TIP3    H278579   4.640   3.230  10.513 -0.7586 -1.0375  1.1182
19030TIP3   OH278580   0.781   6.444   6.180  0.1349 -0.7579  0.0729
19030TIP3    H178581   0.816   6.528   6.153 -1.9875  0.5497  1.0929
19030TIP3    H278582   0.778   6.392   6.100  0.1721  0.6557 -0.8769
19031TIP3   OH278583   4.031   6.084   0.924 -0.2589 -0.2711 -1.0408
19031TIP3    H178584   3.963   6.031   0.964  0.3654 -1.0734 -1.0134
19031TIP3    H278585   4.058   6.035   0.846  1.0956 -0.5645 -0.4118
19032TIP3   OH278586   2.700   5.975   6.166 -0.4135  0.1278  0.2402
19032TIP3    H178587   2.769   5.946   6.106 -1.3217 -0.4593 -0.5691
19032TIP3    H278588   2.714   6.069   6.175  1.2254 -0.1671  1.0924
19033TIP3   OH278589   6.370   1.939  14.190 -0.0638 -0.0439 -0.0006
19033TIP3    H178590   6.436   1.991  14.144 -0.0382 -1.6299 -1.8888
19033TIP3    H278591   6.420   1.890  14.255  0.5415 -0.6903 -0.9302
19034TIP3   OH278592   3.452   5.279  16.676  0.7038  0.4084 -0.3704
19034TIP3    H178593   3.379   5.341  16.674  0.7249  0.4160 -0.8814
19034TIP3    H278594   3.411   5.193  16.672  0.6639  0.3768  0.5318
19035TIP3   OH278595   1.229   5.897  16.584  0.2970 -0.3834 -0.4166
19035TIP3    H178596   1.255   5.959  16.652 -1.4755  0.5001 -0.4832
19035TIP3    H278597   1.231   5.949  16.503 -1.2943 -0.3686 -0.4626
19036TIP3   OH278598   2.177   0.487  17.045  0.2076 -0.2593  0.6958
19036TIP3    H178599   2.208   0.568  17.084  2.5459 -1.0215  0.5591
19036TIP3    H278600   2.244   0.422  17.068 -1.9485 -2.3665  1.4713
19037TIP3   OH278601   1.663   0.943  13.755  0.5145 -0.1584 -0.1114
19037TIP3    H178602   1.620   0.894  13.684  1.1307  0.7424 -1.1431
19037TIP3    H278603   1.661   1.034  13.725  2.1913  0.0368  0.2855
19038TIP3   OH278604   2.873   6.809   2.356 -0.3953 -0.4533  0.6557
19038TIP3    H178605   2.803   6.789   2.419 -0.6491  1.0998  0.9078
19038TIP3    H278606   2.874   6.904   2.351  0.9564 -0.4868 -0.2182
19039TIP3   OH278607   5.519   4.226  15.408  0.1725 -0.4513 -0.3077
19039TIP3    H178608   5.544   4.286  15.338 -0.0184 -1.6974 -1.4779
19039TIP3    H278609   5.598   4.216  15.461  0.4498  0.1437 -0.5961
19040TIP3   OH278610   1.676   4.519  15.857  0.4116  0.1253  0.2947
19040TIP3    H178611   1.653   4.611  15.871 -2.1777 -0.3787 -0.0657
19040TIP3    H278612   1.626   4.472  15.924 -1.0486 -1.2261 -1.6270
19041TIP3   OH278613   6.148   6.670  12.355 -0.2491 -0.4768  0.3531
19041TIP3    H178614   6.157   6.686  12.449 -2.7305  0.0134  0.5533
19041TIP3    H278615   6.230   6.626  12.331 -0.1846 -2.0517  3.0430
19042TIP3   OH278616   2.963   1.386   5.139 -0.0925 -0.2504  0.3421
19042TIP3    H178617   3.003   1.392   5.052 -1.3599 -0.7969 -0.3090
19042TIP3    H278618   2.924   1.298   5.141  1.0076 -0.7482  1.9710
19043TIP3   OH278619   5.871   1.024   6.130 -0.3360  0.2932 -0.3951
19043TIP3    H178620   5.950   1.068   6.159 -0.3566 -0.9440  1.7731
19043TIP3    H278621   5.892   0.931   6.135 -1.4383 -0.0215 -1.2844
19044TIP3   OH278622   5.957   2.681  15.403  0.2894  0.1418  0.5018
19044TIP3    H178623   5.970   2.594  15.441 -0.2886  0.2120  0.8716
19044TIP3    H278624   5.862   2.692  15.401  0.3307  0.3690 -0.4593
19045TIP3   OH278625   4.697   0.922   5.302  0.1561 -0.2449  0.7727
19045TIP3    H178626   4.676   0.892   5.214  1.9983  1.5535 -0.3409
19045TIP3    H278627   4.743   1.005   5.290  0.3076  0.1619  3.4468
19046TIP3   OH278628   1.152   4.395   5.667  0.0678  0.0968  0.2485
19046TIP3    H178629   1.140   4.341   5.589 -2.8112  1.1741 -0.1719
19046TIP3    H278630   1.105   4.349   5.736  2.3855 -0.7247  1.4042
19047TIP3   OH278631   1.337   2.418  10.590  0.0444 -0.1538  0.0343
19047TIP3    H178632   1.394   2.423  10.667  1.1565 -0.9427 -0.7023
19047TIP3    H278633   1.334   2.325  10.568  0.8834  0.1738 -1.6634
19048TIP3   OH278634   0.440   4.141   4.863  0.0424 -0.4045  0.0768
19048TIP3    H178635   0.491   4.065   4.836 -1.4984 -0.8848 -1.6981
19048TIP3    H278636   0.460   4.152   4.956  2.9276 -0.8608 -0.3972
19049TIP3   OH278637   2.975   5.672  13.098  0.1029  0.0745 -0.0397
19049TIP3    H178638   3.034   5.646  13.169  0.2414  0.7880  0.1152
19049TIP3    H278639   2.888   5.666  13.136  0.0966 -0.5908 -0.1440
19050TIP3   OH278640   0.661   2.233  11.285 -0.0042 -0.6674 -0.2882
19050TIP3    H178641   0.715   2.205  11.359  1.9002 -0.3945 -1.5006
19050TIP3    H278642   0.699   2.317  11.258 -0.7904 -0.6512 -1.4411
19051TIP3   OH278643   5.773   2.294   2.695  0.1314 -0.1293  0.3151
19051TIP3    H178644   5.757   2.336   2.610  0.0892 -0.7114  0.0284
19051TIP3    H278645   5.857   2.331   2.724  0.3473 -0.2254 -0.1744
19052TIP3   OH278646   1.946   1.995  11.652  0.8975 -0.5883  0.2520
19052TIP3    H178647   1.866   1.966  11.696 -0.2388  1.4395 -0.3411
19052TIP3    H278648   1.999   2.032  11.722 -0.1994  1.1563  0.2068
19053TIP3   OH278649   6.343   2.663   2.189  0.5011 -0.0537 -0.2694
19053TIP3    H178650   6.362   2.660   2.282  2.0085  1.0273 -0.4978
19053TIP3    H278651   6.252   2.692   2.184  1.0687  2.2063  0.8937
19054TIP3   OH278652   0.924   1.983   5.566 -0.7243 -0.1166  0.2831
19054TIP3    H178653   0.873   1.912   5.605 -1.0934 -0.6944 -1.1865
19054TIP3    H278654   0.868   2.060   5.571 -0.3698  0.0708  1.7809
19055TIP3   OH278655   4.933   5.694   2.452 -0.0363  0.2775 -0.2309
19055TIP3    H178656   4.961   5.733   2.369  0.7409  0.2519  0.0145
19055TIP3    H278657   4.908   5.604   2.429 -2.2281  0.9771 -0.8734
19056TIP3   OH278658   5.658   0.141   6.255  0.2174  0.1441 -0.5824
19056TIP3    H178659   5.663   0.140   6.160 -0.7764  2.2408 -0.7194
19056TIP3    H278660   5.627   0.229   6.277 -1.1359 -0.7704  1.5921
19057TIP3   OH278661   0.756   4.145  12.985 -0.1347 -0.0137 -0.7147
19057TIP3    H178662   0.741   4.063  13.033  1.0897  0.7775  1.1308
19057TIP3    H278663   0.808   4.198  13.045 -1.1317  2.2501 -1.7513
19058TIP3   OH278664   2.389   2.187   4.483  0.4215  0.1696 -0.0558
19058TIP3    H178665   2.447   2.113   4.500  0.6700  0.4566  0.3808
19058TIP3    H278666   2.438   2.264   4.512 -0.6748  0.2980  1.6145
19059TIP3   OH278667   2.863   3.716  15.822 -0.5218 -0.2986  0.0263
19059TIP3    H178668   2.878   3.622  15.822 -1.7384 -0.5381 -2.0078
19059TIP3    H278669   2.948   3.754  15.798 -0.2219 -0.9071  0.1102
19060TIP3   OH278670   1.366   3.918   0.973  0.4219  0.0087 -0.2245
19060TIP3    H178671   1.289   3.887   0.925 -1.4511  1.7355  1.4769
19060TIP3    H278672   1.380   4.006   0.940  0.4422  0.4117  0.8237
19061TIP3   OH278673   4.109   0.569  11.735 -0.2085  0.1739 -0.0903
19061TIP3    H178674   4.186   0.566  11.792  0.1191 -0.7356 -0.5423
19061TIP3    H278675   4.036   0.545  11.791  0.1036 -0.6601 -0.0200
19062TIP3   OH278676   6.091   1.560  14.882  0.2300 -0.2632 -0.1928
19062TIP3    H178677   6.064   1.488  14.826  0.6192 -0.7795  0.2822
19062TIP3    H278678   6.158   1.606  14.832 -0.6953  0.3620 -0.9068
19063TIP3   OH278679   4.972   4.066  12.513  0.8052 -0.5656  0.0747
19063TIP3    H178680   5.047   4.020  12.475  0.0876 -1.7053 -0.0161
19063TIP3    H278681   4.963   4.028  12.601 -0.2902 -1.2256 -0.2953
19064TIP3   OH278682   5.582   6.547   1.098  0.2357  0.1700 -0.0356
19064TIP3    H178683   5.644   6.486   1.138 -0.6515 -0.2292  0.7740
19064TIP3    H278684   5.625   6.575   1.017  0.3204 -2.1278 -0.8535
19065TIP3   OH278685   4.902   5.162   4.529 -0.0586  0.1930  0.0383
19065TIP3    H178686   4.872   5.242   4.573 -0.8257  0.2298 -0.5280
19065TIP3    H278687   4.959   5.193   4.460 -0.4247  0.2637 -0.2362
19066TIP3   OH278688   5.812   5.293   4.071  0.0498  0.2416 -0.3734
19066TIP3    H178689   5.877   5.279   4.141  2.2460  2.5874 -1.7794
19066TIP3    H278690   5.783   5.383   4.082 -1.7216 -0.2308 -0.8567
19067TIP3   OH278691   6.067   6.043  11.396 -0.6215  0.2160 -0.0265
19067TIP3    H178692   6.034   6.094  11.470  1.3684  1.2747  0.1831
19067TIP3    H278693   6.003   5.972  11.387 -1.2214  0.3391  2.3722
19068TIP3   OH278694   2.863   2.275   1.146  0.1786 -0.1195  0.0660
19068TIP3    H178695   2.853   2.252   1.238  0.7953  2.3343  0.8209
19068TIP3    H278696   2.773   2.280   1.113 -0.3015  2.2394  1.4822
19069TIP3   OH278697   5.020   5.316  12.605 -0.1963 -0.2905 -0.5996
19069TIP3    H178698   4.956   5.247  12.588  0.3807 -0.8979 -0.3757
19069TIP3    H278699   5.088   5.273  12.658 -1.1369  1.1145  1.9097
19070TIP3   OH278700   2.122   0.807  12.744 -0.1225 -0.2232 -0.0493
19070TIP3    H178701   2.134   0.714  12.764  0.5082 -0.0950  0.1918
19070TIP3    H278702   2.035   0.828  12.777 -1.0276 -1.1546 -1.7042
19071TIP3   OH278703   0.832   2.276   2.331 -0.0218 -0.2810  0.1450
19071TIP3    H178704   0.856   2.255   2.241  2.7782 -2.2667  1.1876
19071TIP3    H278705   0.743   2.310   2.326  0.0018 -0.4364 -3.3130
19072TIP3   OH278706   3.622   4.364   2.924 -0.1055 -0.1480  0.3139
19072TIP3    H178707   3.575   4.348   2.842 -1.2744  1.9430  0.5236
19072TIP3    H278708   3.657   4.278   2.948 -2.2611 -1.4267 -0.8197
19073TIP3   OH278709   2.328   0.249   0.637  0.3254 -0.1169  0.0837
19073TIP3    H178710   2.262   0.248   0.568 -0.8558 -1.5686  1.1779
19073TIP3    H278711   2.410   0.270   0.591 -0.5801 -0.0606 -1.5832
19074TIP3   OH278712   3.421   4.827  13.603 -0.7413  0.2230 -0.1169
19074TIP3    H178713   3.379   4.907  13.572  0.7192  0.5908 -1.2389
19074TIP3    H278714   3.442   4.844  13.695 -0.0840  1.2823 -0.4530
19075TIP3   OH278715   1.576   1.165  12.605  0.4102  0.0486  0.3459
19075TIP3    H178716   1.492   1.139  12.565  0.6245  1.1707 -0.8772
19075TIP3    H278717   1.558   1.249  12.647  0.7518 -0.0505  0.6962
19076TIP3   OH278718   1.373   5.890  14.638 -0.6914  0.0889  0.1320
19076TIP3    H178719   1.461   5.864  14.666 -1.6332 -1.0367  2.2665
19076TIP3    H278720   1.335   5.809  14.603 -0.8776  0.5867 -0.8414
19077TIP3   OH278721   3.747   0.073  15.103 -0.1474  0.4294  0.3640
19077TIP3    H178722   3.700   0.153  15.083 -0.8233 -0.1180 -0.3101
19077TIP3    H278723   3.834   0.086  15.066 -0.5635  0.4742 -0.6369
19078TIP3   OH278724   1.055   3.147   5.173  0.5621  0.0135  0.1902
19078TIP3    H178725   1.055   3.208   5.100  1.6633 -0.6638 -0.3936
19078TIP3    H278726   1.146   3.142   5.202  0.3307 -0.5957  0.8721
19079TIP3   OH278727   0.957   4.837   5.300  0.2695  0.1773  0.3453
19079TIP3    H178728   1.036   4.874   5.260  0.0067  0.4025  0.0212
19079TIP3    H278729   0.933   4.765   5.242 -0.0497  0.4330  0.1555
19080TIP3   OH278730   6.221   0.245   4.890 -0.2664 -0.3250 -0.2934
19080TIP3    H178731   6.235   0.150   4.886 -0.3678 -0.3678  0.3057
19080TIP3    H278732   6.154   0.262   4.824  1.4050 -0.3286 -2.1138
19081TIP3   OH278733   2.333   6.810   0.640  0.1741 -0.5362  0.2152
19081TIP3    H178734   2.421   6.782   0.667  1.0690  0.9357 -1.0396
19081TIP3    H278735   2.330   6.903   0.660 -0.3902 -0.1569 -1.4798
19082TIP3   OH278736   3.858   6.629   0.032 -0.1331 -0.1703 -0.2149
19082TIP3    H178737   3.863   6.663  -0.057 -1.8289 -0.8320 -0.6029
19082TIP3    H278738   3.828   6.539   0.021 -0.2335 -0.2969  1.0254
19083TIP3   OH278739   0.416   0.193  16.164 -0.2477 -0.4251  0.5751
19083TIP3    H178740   0.370   0.129  16.219  1.1929 -0.2144  2.1107
19083TIP3    H278741   0.458   0.252  16.226  0.4632  0.5620 -0.7920
19084TIP3   OH278742   6.106   3.553   4.920 -0.4589  0.1310 -0.1010
19084TIP3    H178743   6.060   3.488   4.972 -1.2817  0.6239 -0.1944
19084TIP3    H278744   6.057   3.634   4.933  0.6366  0.7857  0.1418
19085TIP3   OH278745   0.249   1.742   5.612 -0.3370  0.4473 -0.2387
19085TIP3    H178746   0.248   1.675   5.680  0.5563  0.2736 -0.3858
19085TIP3    H278747   0.175   1.799   5.634 -0.0219  0.4476  0.9408
19086TIP3   OH278748   2.465   2.548  16.475  0.1228 -0.0276  0.2140
19086TIP3    H178749   2.415   2.498  16.540 -0.0198  0.1355  0.2325
19086TIP3    H278750   2.556   2.542  16.504 -0.0651  1.0350  1.0994
19087TIP3   OH278751   4.475   1.689   3.053  0.3097  0.3051 -0.0475
19087TIP3    H178752   4.517   1.645   2.979  2.1162  0.8823  0.5757
19087TIP3    H278753   4.391   1.645   3.063  1.1476 -1.5672 -0.7682
19088TIP3   OH278754   2.140   1.621   2.791  0.1631 -0.8590  0.0126
19088TIP3    H178755   2.124   1.531   2.764  1.0045 -0.6758 -1.1697
19088TIP3    H278756   2.141   1.671   2.709  0.5582  0.0852  0.5793
19089TIP3   OH278757   3.444   4.601  15.643  0.0559 -0.2835 -0.0110
19089TIP3    H178758   3.497   4.680  15.654 -1.0777  0.1689  3.0669
19089TIP3    H278759   3.378   4.626  15.578 -0.3964  1.4057  1.0424
19090TIP3   OH278760   6.356   1.405  12.452  0.6108 -0.7702  0.2203
19090TIP3    H178761   6.265   1.385  12.475  0.1595 -0.1890 -0.9823
19090TIP3    H278762   6.404   1.394  12.534 -0.5999 -0.7499  0.9626
19091TIP3   OH278763   4.924   4.793  13.222  0.2664 -0.1980  0.3280
19091TIP3    H178764   5.005   4.836  13.248 -0.3980  1.4370 -0.1777
19091TIP3    H278765   4.947   4.740  13.146  1.0283 -0.4778  0.7468
19092TIP3   OH278766   4.788   0.890  12.091 -0.4421  0.1298 -0.1065
19092TIP3    H178767   4.768   0.800  12.119 -0.9787  0.2957  0.0630
19092TIP3    H278768   4.703   0.933  12.090 -0.1193  0.7894  0.3319
19093TIP3   OH278769   2.872   6.277  11.044  0.2050 -0.1808 -0.2049
19093TIP3    H178770   2.892   6.312  11.130 -0.5575 -0.0124 -0.0912
19093TIP3    H278771   2.955   6.240  11.013  0.0680 -1.8736  1.3445
19094TIP3   OH278772   1.725   5.810  11.514  0.0697  0.5245 -0.0212
19094TIP3    H178773   1.819   5.795  11.525  0.0280  0.3055  0.0274
19094TIP3    H278774   1.714   5.818  11.419 -0.3642 -2.8208 -0.3571
19095TIP3   OH278775   1.604   0.489  15.506  0.2716 -0.1629 -0.1179
19095TIP3    H178776   1.579   0.576  15.537  1.5367  0.6215 -1.2081
19095TIP3    H278777   1.522   0.441  15.501 -0.5308  1.1484 -0.0352
19096TIP3   OH278778   3.090   5.885   4.295 -0.0264  0.3566 -0.6196
19096TIP3    H178779   3.122   5.963   4.250 -1.4227  0.2819 -1.8007
19096TIP3    H278780   3.039   5.920   4.369  2.0993  0.4787  0.8861
19097TIP3   OH278781   5.137   5.759  14.917 -0.1019  0.1873  0.0428
19097TIP3    H178782   5.207   5.759  14.851  0.3178  0.3243  0.4871
19097TIP3    H278783   5.090   5.677  14.901 -0.7886  0.7989 -1.2519
19098TIP3   OH278784   3.563   4.513  12.634  0.3241  0.0055 -0.5165
19098TIP3    H178785   3.508   4.538  12.560 -1.2830  1.5304  1.0655
19098TIP3    H278786   3.507   4.528  12.711  2.5289  0.3975  1.1202
19099TIP3   OH278787   2.205   1.362  12.052  0.4367  0.2139 -0.4736
19099TIP3    H178788   2.238   1.310  11.978 -0.1351  0.0775 -0.6313
19099TIP3    H278789   2.110   1.360  12.043  0.2762 -1.1592  1.1913
19100TIP3   OH278790   4.551   0.736   3.957  0.0183  0.1177  0.6957
19100TIP3    H178791   4.581   0.645   3.962 -1.0677 -0.3139 -0.1935
19100TIP3    H278792   4.607   0.783   4.019  1.2873 -0.9563  0.4158
19101TIP3   OH278793   5.729   6.236   2.668  0.5976 -0.1906 -0.5127
19101TIP3    H178794   5.736   6.180   2.590 -0.4154 -0.8106 -0.1656
19101TIP3    H278795   5.695   6.179   2.736  0.6599  0.5668  0.1643
19102TIP3   OH278796   4.977   2.650  10.496 -1.1143 -0.8561 -0.2122
19102TIP3    H178797   4.885   2.658  10.519 -0.8415 -1.3867  1.1755
19102TIP3    H278798   5.003   2.563  10.528  0.0560 -0.3958  0.1563
19103TIP3   OH278799   5.542   4.178   3.593 -0.5004 -0.3351  0.3387
19103TIP3    H178800   5.476   4.140   3.651 -1.3957  2.8385  1.5785
19103TIP3    H278801   5.620   4.123   3.605 -1.8453 -2.0589  1.5338
19104TIP3   OH278802   0.284   6.474  15.161  0.0136  0.4637 -0.0166
19104TIP3    H178803   0.293   6.501  15.070  0.4661 -0.5999 -0.2972
19104TIP3    H278804   0.368   6.434  15.183 -1.5174 -3.5952 -0.6275
19105TIP3   OH278805   0.163   3.835  12.914 -0.4399  0.0686 -0.9463
19105TIP3    H178806   0.211   3.910  12.880  0.4058 -1.3636 -3.1167
19105TIP3    H278807   0.231   3.770  12.933 -1.0820  0.0050  1.5642
19106TIP3   OH278808   1.355   5.135   1.307 -0.4948  0.2233  0.5771
19106TIP3    H178809   1.375   5.066   1.370  0.1030 -1.7481 -1.6152
19106TIP3    H278810   1.266   5.162   1.329 -1.2775 -2.2197  0.7245
19107TIP3   OH278811   5.629   0.133  15.793  0.3239  0.2978  0.1152
19107TIP3    H178812   5.548   0.178  15.819  0.6633  0.0873  1.6365
19107TIP3    H278813   5.699   0.186  15.831  1.0811  1.6631 -2.9405
19108TIP3   OH278814   3.682   6.362   4.478  0.2909 -0.6382  0.1221
19108TIP3    H178815   3.721   6.438   4.521 -0.5909  0.2787 -0.6436
19108TIP3    H278816   3.706   6.372   4.386 -2.5755  0.6047 -0.6206
19109TIP3   OH278817   1.401   4.677   0.550 -0.7945  0.1463 -0.1140
19109TIP3    H178818   1.445   4.723   0.621  1.0636  0.0846 -1.1395
19109TIP3    H278819   1.468   4.669   0.482 -2.5984  0.6541 -2.0963
19110TIP3   OH278820   1.488   4.217  16.914 -0.8070  0.7666 -0.4767
19110TIP3    H178821   1.560   4.268  16.876  0.2113 -0.4361 -0.2339
19110TIP3    H278822   1.409   4.264  16.889  0.0566  1.9958 -0.9576
19111TIP3   OH278823   2.683   2.475  15.212 -0.0460  0.1303 -0.2590
19111TIP3    H178824   2.624   2.543  15.245 -0.1332 -0.0131 -0.1109
19111TIP3    H278825   2.769   2.515  15.213 -0.1454  0.3528 -0.5044
19112TIP3   OH278826   3.037   5.855   0.050 -0.1401 -0.0868  0.4063
19112TIP3    H178827   3.047   5.940   0.008  0.3678  0.2498  1.1891
19112TIP3    H278828   3.012   5.875   0.140  3.4920 -0.5859  1.7047
19113TIP3   OH278829   6.211   2.321  14.105  0.1134 -0.4557  0.2321
19113TIP3    H178830   6.287   2.370  14.138 -0.1205  0.0161  0.0749
19113TIP3    H278831   6.174   2.377  14.037 -0.5214 -0.5646  0.4776
19114TIP3   OH278832   1.871   0.608  12.683 -0.0817  0.1794  0.7397
19114TIP3    H178833   1.930   0.643  12.617 -0.3983  0.9306  0.8500
19114TIP3    H278834   1.788   0.651  12.667 -0.3254 -0.0897  1.2466
19115TIP3   OH278835   4.325   3.128  12.870 -0.1159 -0.0037 -0.1847
19115TIP3    H178836   4.259   3.127  12.801 -1.5807  0.6789  1.1225
19115TIP3    H278837   4.383   3.055  12.849 -0.5619  0.1301 -2.0563
19116TIP3   OH278838   0.581   6.706  12.438 -0.1993 -0.3606  0.8526
19116TIP3    H178839   0.491   6.680  12.455 -0.2389 -0.2015  0.8798
19116TIP3    H278840   0.589   6.793  12.476 -0.8375  0.8325 -1.5769
19117TIP3   OH278841   2.094   2.168   3.184  0.6730  0.5909  0.4782
19117TIP3    H178842   2.055   2.100   3.240 -0.0795  0.5750 -0.0524
19117TIP3    H278843   2.021   2.227   3.165  0.7381  0.1983 -1.0919
19118TIP3   OH278844   5.819   3.225   4.068  0.1472 -0.4323  0.9213
19118TIP3    H178845   5.903   3.218   4.112  0.0819 -0.7935  0.9977
19118TIP3    H278846   5.763   3.272   4.130 -0.1529 -1.5722  1.5561
19119TIP3   OH278847   4.111   5.268  12.017 -0.2726 -0.6041  0.1681
19119TIP3    H178848   4.132   5.341  12.075  1.0891  0.6916 -1.8133
19119TIP3    H278849   4.122   5.190  12.071 -0.0141  0.5671  1.8820
19120TIP3   OH278850   3.976   3.252  14.817  0.0244  0.6193 -0.2092
19120TIP3    H178851   3.960   3.315  14.746 -0.9935  0.6789  0.0701
19120TIP3    H278852   3.900   3.195  14.817 -1.4759  2.3723  2.6769
19121TIP3   OH278853   3.166   2.464  12.464 -0.4184 -0.4539  0.0401
19121TIP3    H178854   3.111   2.465  12.542  0.6116  0.5615  0.7817
19121TIP3    H278855   3.256   2.460  12.497  0.0795  0.8612 -1.0205
19122TIP3   OH278856   5.027   6.803  12.302 -0.0753 -0.5307 -0.2071
19122TIP3    H178857   4.952   6.767  12.348 -0.4572 -0.0340 -0.4229
19122TIP3    H278858   5.093   6.734  12.304 -0.2721 -0.7028  0.6239
19123TIP3   OH278859   1.299   2.754  15.049 -0.2016 -0.3321 -0.2072
19123TIP3    H178860   1.322   2.735  15.140  0.1863  1.7896  0.1914
19123TIP3    H278861   1.216   2.708  15.035  0.6981 -2.3048  0.5678
19124TIP3   OH278862   6.579   6.124  17.169  0.2209  0.4749  0.8317
19124TIP3    H178863   6.613   6.203  17.210 -1.6261  1.4834  0.5268
19124TIP3    H278864   6.489   6.146  17.145  1.0998 -0.0598 -3.7524
19125TIP3   OH278865   0.353   1.355   1.130 -0.4748 -0.5612  0.0991
19125TIP3    H178866   0.356   1.336   1.224 -0.1584 -0.2259  0.1602
19125TIP3    H278867   0.309   1.440   1.124  0.3910 -0.1126  0.0210
19126TIP3   OH278868   5.386   4.447  11.962 -0.3403 -0.0255 -0.4120
19126TIP3    H178869   5.409   4.363  12.002 -0.3045  0.4730  0.6277
19126TIP3    H278870   5.415   4.513  12.025 -0.4743  0.7707 -1.1652
19127TIP3   OH278871   3.089   0.013  14.189  0.0255 -0.0932  0.1369
19127TIP3    H178872   3.018  -0.051  14.188  0.4885 -0.6405 -1.6208
19127TIP3    H278873   3.045   0.098  14.177 -0.5086 -0.1629  1.4828
19128TIP3   OH278874   3.723   6.053   2.045 -0.5454  0.7443  0.0734
19128TIP3    H178875   3.667   5.978   2.066  1.7226 -1.4770 -1.2169
19128TIP3    H278876   3.752   6.086   2.131 -0.3487 -0.9040  0.6849
19129TIP3   OH278877   4.147   3.377  14.184 -0.0713  0.0380 -0.1600
19129TIP3    H178878   4.140   3.409  14.274  0.4858  1.6657 -0.6568
19129TIP3    H278879   4.057   3.356  14.160 -0.2344 -0.3766  0.7539
19130TIP3   OH278880   3.786   0.678   5.504  0.0982 -0.4029  0.5553
19130TIP3    H178881   3.732   0.681   5.425 -0.2728 -2.2218  0.6956
19130TIP3    H278882   3.872   0.650   5.474 -0.0339 -1.0662  0.7870
19131TIP3   OH278883   6.227   0.398  10.926 -0.3188 -0.1531 -0.9626
19131TIP3    H178884   6.258   0.479  10.885  0.5349 -0.1642 -0.3663
19131TIP3    H278885   6.148   0.425  10.973  2.0731  1.3569  2.6172
19132TIP3   OH278886   1.975   3.651   0.773  0.3168  0.3093  0.3696
19132TIP3    H178887   1.964   3.619   0.863  1.6665 -0.5559  0.2563
19132TIP3    H278888   1.888   3.684   0.749 -1.5293 -3.8922  0.2903
19133TIP3   OH278889   2.479   0.992   4.598 -0.7560 -0.0419 -0.1184
19133TIP3    H178890   2.494   0.977   4.505  0.6727 -2.2386  0.3863
19133TIP3    H278891   2.417   0.923   4.623 -0.2662 -0.1682  0.7724
19134TIP3   OH278892   6.395   4.736  15.953 -0.0786 -0.8396  0.3973
19134TIP3    H178893   6.379   4.686  16.033  0.4777 -1.7950 -0.0699
19134TIP3    H278894   6.490   4.749  15.952 -0.0183 -1.2705 -0.3441
19135TIP3   OH278895   4.142   4.729   2.925 -0.1897 -0.0834  0.5238
19135TIP3    H178896   4.088   4.658   2.892 -2.0070  0.3093  2.4604
19135TIP3    H278897   4.116   4.805   2.873  0.3725 -0.3893 -0.2378
19136TIP3   OH278898   5.531   6.066  15.746 -0.1212  0.5860 -0.4418
19136TIP3    H178899   5.614   6.099  15.713  0.0401  0.9953  0.3374
19136TIP3    H278900   5.481   6.040  15.668  1.2435 -0.9173 -0.8750
19137TIP3   OH278901   2.878   6.615  11.000 -0.1111  0.1773 -0.0774
19137TIP3    H178902   2.785   6.604  10.980 -0.1207 -1.9437  0.8251
19137TIP3    H278903   2.922   6.550  10.946  0.7074  0.1874  0.5615
19138TIP3   OH278904   2.949   5.105  15.698 -0.0779 -1.2662  0.1892
19138TIP3    H178905   2.976   5.032  15.642 -1.8759 -1.4164 -0.5444
19138TIP3    H278906   3.029   5.157  15.709  0.7783 -2.2941 -0.8798
19139TIP3   OH278907   3.226   3.608  10.733  0.6652 -0.0627  0.6414
19139TIP3    H178908   3.216   3.553  10.811 -1.2553  1.0531  1.2372
19139TIP3    H278909   3.315   3.644  10.741  1.2911 -1.6201  1.1750
19140TIP3   OH278910   1.992   5.242   2.295  0.7356  0.0393  0.2560
19140TIP3    H178911   2.033   5.300   2.231 -1.3030  1.1522 -0.1311
19140TIP3    H278912   1.935   5.186   2.243  2.3696 -2.1514  0.6704
19141TIP3   OH278913   1.693   4.479   0.782 -0.2470 -0.0442  0.0927
19141TIP3    H178914   1.708   4.472   0.688 -0.0207 -2.0750  0.2292
19141TIP3    H278915   1.722   4.567   0.805 -0.1587  0.4303 -1.6981
19142TIP3   OH278916   0.219   5.618  14.752  0.2577 -0.6374  0.0763
19142TIP3    H178917   0.205   5.711  14.769 -0.1276 -0.7101  0.1517
19142TIP3    H278918   0.288   5.616  14.686 -1.0706 -0.2249 -1.3856
19143TIP3   OH278919   2.964   5.520  16.625 -0.5616 -0.1351  0.0710
19143TIP3    H178920   3.018   5.597  16.636  1.7550 -1.5803 -0.5559
19143TIP3    H278921   2.966   5.476  16.710 -0.5686 -0.2945 -0.0103
19144TIP3   OH278922   3.107   3.860  15.774 -0.2574  0.6226  0.6705
19144TIP3    H178923   3.122   3.853  15.680 -0.4982 -0.2762  0.6926
19144TIP3    H278924   3.148   3.943  15.799 -1.3075  1.5129 -0.4422
19145TIP3   OH278925   6.706   0.022  11.079  0.3104 -0.0485  0.2026
19145TIP3    H178926   6.705  -0.074  11.083 -0.0130 -0.1277 -1.2616
19145TIP3    H278927   6.688   0.050  11.169  2.4912 -1.3324  1.1272
19146TIP3   OH278928   4.296   3.680   1.548 -0.2819  0.3023 -0.5268
19146TIP3    H178929   4.375   3.729   1.567  0.5861 -0.6020 -1.6384
19146TIP3    H278930   4.301   3.603   1.605 -1.5224  1.3204  1.0440
19147TIP3   OH278931   2.539   6.509  16.163 -0.2423  0.9933  0.1303
19147TIP3    H178932   2.446   6.527  16.154 -0.5984 -0.6563  0.2328
19147TIP3    H278933   2.544   6.441  16.230  1.1689  2.1937  1.2888
19148TIP3   OH278934   5.386   4.543   4.302 -0.1521 -0.3170 -0.0274
19148TIP3    H178935   5.355   4.456   4.275 -0.8911  0.4586 -1.8447
19148TIP3    H278936   5.314   4.602   4.280  0.9637  0.9727 -0.3789
19149TIP3   OH278937   5.981   2.157   6.656 -0.2555 -0.5852 -0.2453
19149TIP3    H178938   5.938   2.225   6.604 -2.2370 -0.0195  1.9689
19149TIP3    H278939   6.043   2.204   6.711  0.1905 -0.9117 -0.4566
19150TIP3   OH278940   0.568   0.523  13.237  0.6062 -0.2337 -0.1833
19150TIP3    H178941   0.538   0.432  13.231  2.6341 -0.9476 -0.2170
19150TIP3    H278942   0.561   0.544  13.330 -0.5428 -0.1616 -0.2738
19151TIP3   OH278943   5.851   4.193  12.303 -0.4185  0.4467  0.2215
19151TIP3    H178944   5.901   4.273  12.288  2.4256 -0.4754  3.6415
19151TIP3    H278945   5.784   4.218  12.366 -2.0001  0.8304 -1.5169
19152TIP3   OH278946   3.343   1.477   5.683  0.1806  0.8121  0.6308
19152TIP3    H178947   3.278   1.545   5.698  0.0951  0.3872  2.4537
19152TIP3    H278948   3.382   1.462   5.769  1.1318 -0.4947  0.0084
19153TIP3   OH278949   1.479   3.187  13.613  0.4834 -0.3180  0.4913
19153TIP3    H178950   1.488   3.134  13.693  0.9686  0.6020  1.0781
19153TIP3    H278951   1.386   3.183  13.592  0.4440 -1.0506  0.7683
19154TIP3   OH278952   6.060   4.323   4.951 -0.5456  0.7299  0.6101
19154TIP3    H178953   6.090   4.276   4.874 -2.1496 -0.6248  0.7598
19154TIP3    H278954   6.118   4.295   5.022  0.5555  1.5287  0.0524
19155TIP3   OH278955   4.922   1.756  15.445  0.5498  0.0453 -0.0665
19155TIP3    H178956   4.948   1.814  15.374  1.6873 -0.2558  0.0799
19155TIP3    H278957   4.998   1.699  15.459  0.2322 -0.1213  1.1554
19156TIP3   OH278958   2.151   4.992  14.962  0.9565 -0.6625  0.2451
19156TIP3    H178959   2.205   4.917  14.987 -0.0443 -1.0500  1.3660
19156TIP3    H278960   2.079   4.954  14.912  1.6378 -0.1562 -1.1908
19157TIP3   OH278961   1.939   6.138  16.071  0.4931 -0.6230  0.3917
19157TIP3    H178962   1.938   6.191  15.992 -0.8232 -2.1245 -0.6403
19157TIP3    H278963   1.933   6.201  16.142  1.2075  0.7237 -0.6932
19158TIP3   OH278964   3.592   4.554  13.280 -0.3998 -0.2044  0.0910
19158TIP3    H178965   3.519   4.604  13.316  0.7698  2.5405 -1.0794
19158TIP3    H278966   3.576   4.554  13.185  1.5967  1.4445 -0.3134
19159TIP3   OH278967   2.945   4.338   1.169 -0.2398 -0.1337 -0.2871
19159TIP3    H178968   3.018   4.280   1.148 -1.1018 -0.0215 -4.2713
19159TIP3    H278969   2.982   4.426   1.165 -0.2665 -0.1442 -0.8466
19160TIP3   OH278970   5.696   0.320  12.718  0.5002  0.0544 -0.2994
19160TIP3    H178971   5.769   0.298  12.777  1.1463  1.7869 -0.3927
19160TIP3    H278972   5.737   0.371  12.648 -0.7308  0.5503 -0.6743
19161TIP3   OH278973   1.013   6.473   0.299  0.1461 -0.0324 -0.5976
19161TIP3    H178974   0.975   6.502   0.217  1.1334 -2.4594 -2.0246
19161TIP3    H278975   1.108   6.472   0.283  0.2619 -4.0353 -0.9207
19162TIP3   OH278976   1.146   3.840   1.487  0.2875  0.4548 -0.0906
19162TIP3    H178977   1.148   3.864   1.394 -1.9840  0.4910 -0.1651
19162TIP3    H278978   1.090   3.906   1.528  1.4249  0.5704  1.3934
19163TIP3   OH278979   4.120   6.526  14.559  0.0885 -0.3279 -0.1470
19163TIP3    H178980   4.030   6.543  14.586  0.7279  1.9536  0.8421
19163TIP3    H278981   4.115   6.515  14.464 -1.3423 -1.4386  0.0179
19164TIP3   OH278982   4.153   4.575  13.638  0.9730  0.7487 -0.3240
19164TIP3    H178983   4.142   4.641  13.570 -0.2216  0.8930 -0.0118
19164TIP3    H278984   4.070   4.575  13.686  1.3093 -0.2822  0.3031
19165TIP3   OH278985   1.042   4.024  16.493  0.6124 -0.1409  0.1674
19165TIP3    H178986   1.051   4.118  16.503 -1.8059  0.5587 -2.7456
19165TIP3    H278987   1.130   3.989  16.508  2.7639  3.1396 -3.2395
19166TIP3   OH278988   4.292   3.843   4.728 -0.2053 -0.4601 -0.1927
19166TIP3    H178989   4.375   3.892   4.733 -0.7593  0.3979  1.6923
19166TIP3    H278990   4.315   3.761   4.684  1.2843  0.4370 -1.1798
19167TIP3   OH278991   4.866   6.455  15.815  0.6754  0.4778  0.4475
19167TIP3    H178992   4.799   6.517  15.843  1.4242  0.9871  1.1838
19167TIP3    H278993   4.945   6.508  15.803  0.8955 -0.0660 -0.6609
19168TIP3   OH278994   3.598   1.531  14.765  0.3023 -0.4313 -0.2847
19168TIP3    H178995   3.621   1.447  14.724 -1.1412 -1.7706  1.4728
19168TIP3    H278996   3.577   1.589  14.692 -1.3706 -2.4511 -1.5065
19169TIP3   OH278997   6.705   6.138  11.931  0.2469  0.5695  0.2132
19169TIP3    H178998   6.741   6.125  11.844 -0.8142 -0.9006 -0.0521
19169TIP3    H278999   6.688   6.050  11.964 -2.6704  1.0998  0.4523
19170TIP3   OH279000   5.559   4.935  14.078  0.6691  0.3571  0.2704
19170TIP3    H179001   5.642   4.930  14.126  0.7806  0.6440  0.1113
19170TIP3    H279002   5.556   5.024  14.044  0.6437  0.1269 -0.3507
19171TIP3   OH279003   0.155   5.829   1.980 -0.6523  0.8403 -0.5018
19171TIP3    H179004   0.076   5.781   1.955  0.1793  0.1374 -1.8851
19171TIP3    H279005   0.136   5.921   1.960 -1.6385  0.8951  0.5817
19172TIP3   OH279006   3.686   6.658   5.215 -0.3518 -0.0733  0.7443
19172TIP3    H179007   3.742   6.735   5.231  0.4435 -0.5384  0.2886
19172TIP3    H279008   3.614   6.691   5.162  0.1916  0.2963  0.2224
19173TIP3   OH279009   1.794   4.993  10.623 -0.0751 -0.3511 -0.2796
19173TIP3    H179010   1.827   5.082  10.613  0.7169 -0.7510 -1.5124
19173TIP3    H279011   1.709   4.994  10.579  1.0228 -0.7658 -2.5555
19174TIP3   OH279012   5.104   6.512   4.519  0.1316 -0.4135 -0.0670
19174TIP3    H179013   5.130   6.593   4.474  0.3866  1.3399  2.9519
19174TIP3    H279014   5.014   6.497   4.491  0.6008 -0.0266 -1.9023
19175TIP3   OH279015   3.647   6.631  14.740 -0.2173  0.5908 -0.0219
19175TIP3    H179016   3.726   6.597  14.698 -0.6197  0.9063 -1.0619
19175TIP3    H279017   3.652   6.598  14.830  0.4740 -0.4234 -0.4100
19176TIP3   OH279018   5.764   5.061  12.554 -0.0889  0.0664  0.0349
19176TIP3    H179019   5.795   4.994  12.493 -0.4735  2.2539 -2.7533
19176TIP3    H279020   5.797   5.143  12.519 -1.1823  1.5719  2.2814
19177TIP3   OH279021   5.834   6.520  15.693 -0.2425 -0.2009  0.0295
19177TIP3    H179022   5.890   6.444  15.704 -2.0119 -1.4097  1.2209
19177TIP3    H279023   5.802   6.513  15.603  1.1095  0.2625 -0.5129
19178TIP3   OH279024   1.288   2.959   1.673  0.6726  0.2673 -0.3625
19178TIP3    H179025   1.355   3.026   1.685  0.4317  0.3945  0.3199
19178TIP3    H279026   1.224   2.999   1.615 -0.2319  1.2081  1.2254
19179TIP3   OH279027   6.276   3.187  16.387  0.3740 -0.3374  0.1273
19179TIP3    H179028   6.362   3.161  16.354  0.7238  0.5294  0.3156
19179TIP3    H279029   6.275   3.283  16.379  0.5452 -0.0551  2.7720
19180TIP3   OH279030   5.872   0.477   3.078 -0.0898  0.0559  0.3206
19180TIP3    H179031   5.811   0.549   3.065 -2.2731 -1.6554  0.4340
19180TIP3    H279032   5.853   0.416   3.007 -0.7362 -1.9248  2.0688
19181TIP3   OH279033   3.442   0.631   0.299 -0.6867  0.0859  0.0504
19181TIP3    H179034   3.428   0.590   0.214  0.0171  0.6626 -0.3504
19181TIP3    H279035   3.463   0.558   0.358 -1.0743 -0.3015 -0.2809
19182TIP3   OH279036   6.519   1.458   2.968  0.1664 -0.4538 -0.4340
19182TIP3    H179037   6.609   1.440   2.994 -1.0041 -3.2084  2.2922
19182TIP3    H279038   6.467   1.389   3.010 -3.5469  2.5692  0.5484
19183TIP3   OH279039   1.022   1.837   4.417 -0.6803 -0.0353  0.6335
19183TIP3    H179040   1.049   1.752   4.453 -0.6069 -0.8141 -1.1760
19183TIP3    H279041   1.097   1.865   4.365 -1.4490  0.1890 -0.3727
19184TIP3   OH279042   3.936   1.403   0.477 -0.3789 -0.0493 -0.2356
19184TIP3    H179043   3.884   1.327   0.502 -2.2350  1.4418  0.7021
19184TIP3    H279044   3.873   1.475   0.472  1.3344  1.4961 -0.8269
19185TIP3   OH279045   6.250   5.597  17.101 -0.1779  0.6411  0.5541
19185TIP3    H179046   6.179   5.551  17.146 -0.3448  1.3949  1.0939
19185TIP3    H279047   6.222   5.602  17.010  0.1644 -0.9084  0.3324
19186TIP3   OH279048   6.492   4.900  13.433  0.1934 -0.4856  0.3700
19186TIP3    H179049   6.527   4.960  13.500  2.1833  0.0599 -1.0368
19186TIP3    H279050   6.544   4.820  13.444 -1.3577 -1.4115  1.2019
19187TIP3   OH279051   5.349   3.020   3.512 -0.7526  0.5038 -0.1874
19187TIP3    H179052   5.305   3.061   3.586 -1.3309 -0.7312  0.1723
19187TIP3    H279053   5.291   2.948   3.487 -0.0629  0.2869 -1.1973
19188TIP3   OH279054   0.148   5.535  15.083 -0.1170  0.3497 -0.1172
19188TIP3    H179055   0.213   5.603  15.066  1.2706 -0.8188  0.3435
19188TIP3    H279056   0.199   5.457  15.104 -1.6372 -0.0799  2.5356
19189TIP3   OH279057   0.162   1.070  11.389 -0.1180  0.0629  0.3360
19189TIP3    H179058   0.120   1.150  11.419 -0.4731 -0.3077  0.8513
19189TIP3    H279059   0.240   1.061  11.444 -0.8834 -0.7297  1.3318
19190TIP3   OH279060   4.573   1.667  13.278 -0.9211 -0.4165  0.5973
19190TIP3    H179061   4.635   1.686  13.348 -0.2838 -3.0796  0.8717
19190TIP3    H279062   4.600   1.724  13.206  0.6744 -0.1753  1.3433
19191TIP3   OH279063   1.142   3.067  15.621  0.1525 -0.1885  0.0249
19191TIP3    H179064   1.114   3.158  15.627 -2.7398 -1.0670  2.6599
19191TIP3    H279065   1.180   3.059  15.533 -0.3982  3.2655 -0.6762
19192TIP3   OH279066   2.814   3.995  16.189 -0.1690  0.3853  0.3602
19192TIP3    H179067   2.811   4.001  16.094 -1.6433 -1.3366  0.2320
19192TIP3    H279068   2.814   4.086  16.219 -1.3331  0.9649 -1.2527
19193TIP3   OH279069   4.461   4.628   0.129  0.3615  0.1138 -0.6054
19193TIP3    H179070   4.465   4.587   0.042  1.4674 -0.4358 -0.3210
19193TIP3    H279071   4.384   4.589   0.170  0.3718 -0.3401 -0.9997
19194TIP3   OH279072   5.162   4.043  12.862 -0.3646  0.0193  0.0756
19194TIP3    H179073   5.185   4.044  12.769 -0.5617  0.2471  0.0295
19194TIP3    H279074   5.235   3.996  12.904 -1.4053 -2.2551 -0.4986
19195TIP3   OH279075   2.873   4.406   3.230  0.4820  0.2169  0.4123
19195TIP3    H179076   2.788   4.362   3.229  0.1150  0.8814  0.9515
19195TIP3    H279077   2.928   4.348   3.283  0.8540 -1.0357 -1.2720
19196TIP3   OH279078   3.034   1.499   0.933  0.3389  0.4421  0.7966
19196TIP3    H179079   2.988   1.582   0.919 -0.0538  0.1042  0.0056
19196TIP3    H279080   2.965   1.437   0.957  0.0807 -0.4430 -1.9230
19197TIP3   OH279081   6.406   2.794   3.812 -0.3267  0.6961  0.3288
19197TIP3    H179082   6.460   2.837   3.746 -0.2356  0.8637  0.5115
19197TIP3    H279083   6.468   2.766   3.879 -0.1942 -0.9151 -0.3977
19198TIP3   OH279084   2.049   6.141  11.114  0.5781  0.3187 -1.2003
19198TIP3    H179085   2.003   6.155  11.031 -0.4641 -1.9818 -1.1053
19198TIP3    H279086   2.139   6.122  11.089  0.1468 -0.9156 -1.8878
19199TIP3   OH279087   6.184   0.406   3.200  0.4870  0.5351  0.2264
19199TIP3    H179088   6.171   0.483   3.145 -1.7445 -0.2338 -0.4195
19199TIP3    H279089   6.141   0.427   3.283  0.2755  0.1768  0.2131
19200TIP3   OH279090   3.727   6.605   6.282  0.0492 -0.1691  0.1571
19200TIP3    H179091   3.648   6.633   6.235 -1.2696 -2.2001  1.0098
19200TIP3    H279092   3.729   6.510   6.271  0.5522 -0.5491  2.8462
19201TIP3   OH279093   1.233   3.549   0.880 -0.1443 -0.8686 -0.3382
19201TIP3    H179094   1.283   3.482   0.929 -1.3485 -1.2602  0.4164
19201TIP3    H279095   1.201   3.608   0.948  1.6295  1.0459 -1.0705
19202TIP3   OH279096   4.482   4.138   0.423 -0.6037  0.0313 -0.6939
19202TIP3    H179097   4.546   4.067   0.430 -1.5102 -0.6396  1.5727
19202TIP3    H279098   4.468   4.148   0.329  0.7480 -1.6858 -1.1320
19203TIP3   OH279099   2.255   5.150   2.354  0.5802 -0.0154 -0.7465
19203TIP3    H179100   2.175   5.195   2.381  0.8976 -0.6832  1.5045
19203TIP3    H279101   2.312   5.155   2.431  1.2317 -2.8561 -0.9437
19204TIP3   OH279102   0.150   2.175   0.296  0.4298 -0.2893 -0.2290
19204TIP3    H179103   0.187   2.255   0.335  0.3677  0.2609 -1.2569
19204TIP3    H279104   0.225   2.130   0.258  0.0760  0.9478 -2.5282
19205TIP3   OH279105   4.264   1.329   4.896  0.3824 -0.7351 -0.0159
19205TIP3    H179106   4.277   1.397   4.962  1.1606 -1.2565  0.3959
19205TIP3    H279107   4.242   1.251   4.947  0.8160 -1.1005 -0.3781
19206TIP3   OH279108   5.907   1.610   0.298 -0.6029 -0.3897 -0.1365
19206TIP3    H179109   5.838   1.671   0.270 -2.0716 -0.1959  3.3966
19206TIP3    H279110   5.860   1.537   0.337  1.1778 -1.0314  0.9066
19207TIP3   OH279111   5.146   5.303  13.329 -0.0866 -0.1004 -0.9936
19207TIP3    H179112   5.223   5.247  13.336 -0.8516 -1.1076 -0.4320
19207TIP3    H279113   5.174   5.387  13.367  0.3138 -0.8866  0.5095
19208TIP3   OH279114   5.511   2.067   1.769  0.0268  0.2565  0.0551
19208TIP3    H179115   5.520   2.162   1.767  0.7928  0.2177  0.8246
19208TIP3    H279116   5.422   2.050   1.739 -0.2714  1.2429  0.3628
19209TIP3   OH279117   1.163   6.064   3.656 -0.3484  0.3928  0.5034
19209TIP3    H179118   1.135   6.098   3.571  2.1982  1.6244  0.0487
19209TIP3    H279119   1.142   6.133   3.718 -0.1746  0.4528  0.4956
19210TIP3   OH279120   6.746   4.112  14.836  0.0860  0.0109 -0.0903
19210TIP3    H179121   6.772   4.082  14.749  0.9251  1.9358 -0.5363
19210TIP3    H279122   6.780   4.044  14.895 -1.5537 -1.9628 -1.2762
19211TIP3   OH279123   1.902   3.810  10.688  0.2367  0.2614 -0.0139
19211TIP3    H179124   1.928   3.768  10.606 -2.8105 -0.7566 -0.5729
19211TIP3    H279125   1.909   3.904  10.671 -0.1296  0.0517 -1.3725
19212TIP3   OH279126   1.696   6.777  12.587  0.3148 -0.1157  0.7199
19212TIP3    H179127   1.768   6.714  12.581  1.8240  1.6114 -0.2640
19212TIP3    H279128   1.667   6.772  12.679  0.6854 -1.8590  0.7818
19213TIP3   OH279129   2.052   6.720  15.112 -0.3049 -0.3374 -0.2754
19213TIP3    H179130   2.020   6.645  15.163 -0.6339 -1.3690 -1.9441
19213TIP3    H279131   2.142   6.733  15.142 -1.6958  2.0039  3.8119
19214TIP3   OH279132   1.177   4.180   1.948 -0.2713  0.3108 -0.0559
19214TIP3    H179133   1.254   4.206   1.999 -0.8254  1.5272  0.1977
19214TIP3    H279134   1.199   4.201   1.858  0.2877 -0.8260 -0.2042
19215TIP3   OH279135   0.662   1.421  13.780  0.2890  0.2411  0.1274
19215TIP3    H179136   0.630   1.341  13.821 -0.1056  0.2185 -0.2152
19215TIP3    H279137   0.595   1.442  13.714  1.3624 -0.2396 -1.1610
19216TIP3   OH279138   5.276   3.441  17.023  0.1638 -0.1050  0.1548
19216TIP3    H179139   5.256   3.354  17.057 -0.8150  0.6938  1.7665
19216TIP3    H279140   5.351   3.470  17.076 -1.0828  0.9731  1.4304
19217TIP3   OH279141   0.866   3.668  11.782  0.5847 -0.4066 -0.1086
19217TIP3    H179142   0.814   3.704  11.854  1.0158  2.0309 -0.9118
19217TIP3    H279143   0.952   3.652  11.820  0.7420  0.6474  0.0119
19218TIP3   OH279144   2.309   3.375   4.979 -0.7806  0.6752 -0.2757
19218TIP3    H179145   2.286   3.282   4.979  0.2091  0.4081  0.3997
19218TIP3    H279146   2.262   3.412   5.054 -0.0670  0.4043  0.3195
19219TIP3   OH279147   3.368   5.911   2.254 -0.4862  0.0280  0.8445
19219TIP3    H179148   3.377   5.964   2.334 -2.9159 -0.5241  1.5710
19219TIP3    H279149   3.299   5.848   2.275  0.0273 -1.2813 -1.1371
19220TIP3   OH279150   3.940   4.742   4.804 -0.1270 -0.2040 -0.3720
19220TIP3    H179151   3.907   4.724   4.892  4.9277 -0.7351  1.7433
19220TIP3    H279152   3.936   4.657   4.759  0.8630 -0.9516  0.8629
19221TIP3   OH279153   5.242   2.016   0.339  0.4096 -0.0427  0.0752
19221TIP3    H179154   5.337   2.028   0.334  0.6424 -1.7256 -0.0220
19221TIP3    H279155   5.207   2.081   0.277  1.6939 -1.3794 -2.1786
19222TIP3   OH279156   6.551   0.805   6.237  0.5799 -0.1703 -0.0091
19222TIP3    H179157   6.506   0.729   6.200 -0.6459 -0.0773  1.2562
19222TIP3    H279158   6.641   0.796   6.206  0.1577 -1.4261 -0.9541
19223TIP3   OH279159   0.737   1.057   0.363 -0.0829 -0.1002  0.1437
19223TIP3    H179160   0.718   1.090   0.275  2.0199  0.1818 -0.2725
19223TIP3    H279161   0.711   1.128   0.421  2.7720  1.7279 -0.6263
19224TIP3   OH279162   0.660   5.645   0.507 -0.0794  0.1871  0.0728
19224TIP3    H179163   0.642   5.734   0.538  1.0549  0.8194 -1.0159
19224TIP3    H279164   0.574   5.604   0.499 -0.5941  1.0881  0.8529
19225TIP3   OH279165   0.199   1.313   3.047 -0.5010  0.0048 -0.5116
19225TIP3    H179166   0.240   1.248   3.104 -0.2640  0.2246 -0.4264
19225TIP3    H279167   0.233   1.397   3.080 -0.9294  0.1807 -0.5122
19226TIP3   OH279168   2.735   6.622   3.032 -0.0652  0.6708 -0.0017
19226TIP3    H179169   2.716   6.696   3.090 -0.2021 -0.7890  1.9076
19226TIP3    H279170   2.679   6.552   3.063 -0.4054 -0.0998 -2.1748
19227TIP3   OH279171   1.860   4.182   4.124  0.0146  0.1733  0.4889
19227TIP3    H179172   1.784   4.158   4.177 -0.6619 -2.5408 -1.4734
19227TIP3    H279173   1.922   4.111   4.137 -0.5702 -1.1795 -2.8527
19228TIP3   OH279174   5.114   6.624  13.744  0.4128 -0.5125 -0.4309
19228TIP3    H179175   5.087   6.588  13.829 -0.3948 -0.5832 -0.7142
19228TIP3    H279176   5.055   6.584  13.681  0.0425  0.6797 -0.8514
19229TIP3   OH279177   2.377   2.267  16.916  0.0475 -0.0640  0.4938
19229TIP3    H179178   2.406   2.342  16.969 -0.2255 -0.1479  0.7629
19229TIP3    H279179   2.339   2.206  16.979  1.3718 -0.9900  0.4440
19230TIP3   OH279180   5.111   5.206   5.071  0.5414 -0.2576  0.9585
19230TIP3    H179181   5.096   5.243   5.158  1.0469 -0.1917  1.0184
19230TIP3    H279182   5.065   5.122   5.072  0.1796 -0.0566  1.1419
19231TIP3   OH279183   1.017   2.089  13.792 -0.4180  0.1847  0.5513
19231TIP3    H179184   1.088   2.027  13.810 -0.9363 -2.2142 -4.1474
19231TIP3    H279185   0.938   2.042  13.816 -0.6677  0.7940  0.9422
19232TIP3   OH279186   6.172   0.370   6.150  0.5653 -0.1696  0.5262
19232TIP3    H179187   6.264   0.376   6.177  0.2019  2.4999  1.4955
19232TIP3    H279188   6.164   0.435   6.080 -0.9326  0.9325  1.6635
19233TIP3   OH279189   3.061   2.943  15.436 -0.4237 -0.4279 -0.6749
19233TIP3    H179190   3.127   3.012  15.447  0.0723 -0.8057 -1.1960
19233TIP3    H279191   3.035   2.949  15.344 -0.5932 -0.7399 -0.6495
19234TIP3   OH279192   5.108   6.334  11.780  0.1581  0.0327 -0.5041
19234TIP3    H179193   5.180   6.272  11.766 -0.5745 -0.9691  0.0257
19234TIP3    H279194   5.033   6.292  11.739 -0.8195 -0.4125  1.6067
19235TIP3   OH279195   3.540   0.615   2.155 -0.0988  0.1786  0.5000
19235TIP3    H179196   3.570   0.576   2.237 -0.4920  2.1167  1.6055
19235TIP3    H279197   3.464   0.563   2.130  1.3838 -1.9472  0.0295
19236TIP3   OH279198   5.790   4.757  11.412  0.2552  0.3328  0.6316
19236TIP3    H179199   5.818   4.846  11.392  0.0097  0.6385  1.5834
19236TIP3    H279200   5.709   4.768  11.462  0.3185 -0.4186  0.9158
19237TIP3   OH279201   4.494   3.204   1.552 -0.5595 -0.4183 -0.1191
19237TIP3    H179202   4.556   3.238   1.616 -1.1029 -2.1591  1.4289
19237TIP3    H279203   4.449   3.133   1.598 -0.8017 -1.9420 -2.5225
19238TIP3   OH279204   0.872   6.046   2.868 -0.9502  0.7208  0.6541
19238TIP3    H179205   0.789   6.003   2.888 -1.0467  0.6422  0.0862
19238TIP3    H279206   0.938   5.980   2.886 -1.2341 -0.9337 -3.4166
19239TIP3   OH279207   0.575   2.002   5.954 -0.0542  0.6401  0.3262
19239TIP3    H179208   0.548   2.035   5.868 -1.3172 -0.6752  0.1705
19239TIP3    H279209   0.610   2.079   5.999 -0.1634  1.5384 -1.0532
19240TIP3   OH279210   3.915   4.890   0.893 -0.8832 -0.5147 -0.0224
19240TIP3    H179211   3.954   4.883   0.806  1.3374  0.1263  0.8264
19240TIP3    H279212   3.986   4.863   0.952 -1.6811  0.9045  1.6663
19241TIP3   OH279213   2.466   2.615   5.769  0.4243 -0.4332  0.7564
19241TIP3    H179214   2.433   2.549   5.830 -0.3109  1.0308  2.0324
19241TIP3    H279215   2.537   2.659   5.817  0.7430 -0.1303  0.0302
19242TIP3   OH279216   5.158   1.931   4.472 -0.5241 -0.5085  0.4490
19242TIP3    H179217   5.105   1.882   4.409 -0.6629 -0.2520  0.3634
19242TIP3    H279218   5.243   1.887   4.471 -1.0380 -1.5773  1.3725
19243TIP3   OH279219   3.867   4.571  16.338  0.2305 -0.4660  0.0911
19243TIP3    H179220   3.792   4.547  16.282  0.5207 -2.0388  0.3364
19243TIP3    H279221   3.829   4.582  16.425  0.2697 -1.3212  0.2277
19244TIP3   OH279222   6.342   1.713   5.902 -0.3285  0.1259 -0.4866
19244TIP3    H179223   6.324   1.675   5.988  1.0949 -1.9169 -1.0202
19244TIP3    H279224   6.357   1.638   5.845  1.6566  1.4545 -1.8569
19245TIP3   OH279225   1.584   3.338  11.248 -0.3875  0.0064 -0.3837
19245TIP3    H179226   1.511   3.291  11.210 -0.3765 -0.1917 -0.1656
19245TIP3    H279227   1.592   3.418  11.196  0.4206 -0.8306 -1.6018
19246TIP3   OH279228   1.974   4.930  15.516 -0.0655  0.1236  0.0357
19246TIP3    H179229   2.053   4.923  15.570 -0.1284  0.3628  0.1593
19246TIP3    H279230   1.949   5.022  15.522 -1.2563 -0.2516  1.2715
19247TIP3   OH279231   3.433   3.957  16.368  0.5768 -0.5804 -0.0318
19247TIP3    H179232   3.373   3.883  16.365  1.4908 -1.3129 -1.5919
19247TIP3    H279233   3.418   3.997  16.454  0.0850 -2.5867  0.8734
19248TIP3   OH279234   3.145   4.905   3.151  0.6364 -0.2792  0.7936
19248TIP3    H179235   3.104   4.818   3.147  0.0380  0.0200  0.1944
19248TIP3    H279236   3.076   4.962   3.184  0.8965  0.0466  0.7746
19249TIP3   OH279237   5.974   2.537   4.584  0.0906  0.2658 -0.2264
19249TIP3    H179238   6.044   2.597   4.557 -1.8757  2.0687 -1.7132
19249TIP3    H279239   5.900   2.595   4.603 -1.3968 -1.6189 -0.0581
19250TIP3   OH279240   5.922   6.730  10.354  0.6823 -0.5956  0.1707
19250TIP3    H179241   5.962   6.743  10.268  0.7156 -0.5630  0.1911
19250TIP3    H279242   5.829   6.748  10.341  0.7930  0.1210  0.2979
19251TIP3   OH279243   4.242   0.922   4.701 -0.2455  0.0663  0.2335
19251TIP3    H179244   4.300   0.981   4.653 -0.5476  0.1235 -0.0625
19251TIP3    H279245   4.243   0.955   4.790 -2.1437  1.8912 -0.3353
19252TIP3   OH279246   0.168   3.816  16.431 -0.0484  0.1119 -0.9217
19252TIP3    H179247   0.145   3.888  16.372 -1.0333 -0.3359 -1.1008
19252TIP3    H279248   0.113   3.829  16.508  3.0245  2.1925  1.1406
19253TIP3   OH279249   2.408   3.299  13.656 -0.4465 -0.2711  0.5573
19253TIP3    H179250   2.469   3.256  13.596 -0.7112 -0.7011  0.5928
19253TIP3    H279251   2.376   3.228  13.712 -1.6342 -0.2047 -0.0124
19254TIP3   OH279252   0.418   2.721  14.193  0.1999 -0.1120  0.2490
19254TIP3    H179253   0.373   2.703  14.110  2.0523  0.1176 -0.8566
19254TIP3    H279254   0.481   2.650  14.202  1.1408  0.7374  0.5962
19255TIP3   OH279255   6.453   5.152  11.288  0.1914  0.0129  0.1086
19255TIP3    H179256   6.530   5.209  11.291  1.5631 -1.5550 -1.9447
19255TIP3    H279257   6.455   5.114  11.200 -1.7626 -1.7029  0.7143
19256TIP3   OH279258   5.944   0.700  15.175 -0.1180 -0.1452  0.1015
19256TIP3    H179259   5.942   0.796  15.182  0.5956 -0.1904  1.2054
19256TIP3    H279260   5.956   0.670  15.265 -0.1761 -1.2741 -0.2558
19257TIP3   OH279261   3.902   6.338  13.039 -0.3653 -0.4168 -0.1140
19257TIP3    H179262   3.855   6.402  13.093 -0.9099 -1.4842  0.7134
19257TIP3    H279263   3.959   6.391  12.983  0.1818  0.7406  1.4743
19258TIP3   OH279264   4.165   1.530  14.072 -0.2126  0.3669  0.3139
19258TIP3    H179265   4.136   1.463  14.010 -0.4015 -0.1631  0.9726
19258TIP3    H279266   4.130   1.503  14.156  0.3268  0.9049  0.7221
19259TIP3   OH279267   4.512   3.882  15.532 -0.2824 -0.1430  0.5753
19259TIP3    H179268   4.464   3.952  15.576  0.7576  1.1558 -0.2778
19259TIP3    H279269   4.604   3.903  15.547  0.0981 -2.1645  1.5552
19260TIP3   OH279270   1.329   4.396  13.155 -0.0178  0.4378 -0.6286
19260TIP3    H179271   1.381   4.400  13.074  0.4927  0.1866 -0.3179
19260TIP3    H279272   1.367   4.462  13.212 -0.3204  0.5515 -0.5560
19261TIP3   OH279273   4.760   5.436  10.863 -0.1527  0.5447 -0.0482
19261TIP3    H179274   4.757   5.530  10.848 -4.5701  0.5419 -0.4668
19261TIP3    H279275   4.785   5.398  10.779  0.6479  1.2560 -0.1456
19262TIP3   OH279276   4.796   4.608  10.769 -0.3479  0.1948 -0.3592
19262TIP3    H179277   4.707   4.585  10.795  1.1120 -2.7422  2.8904
19262TIP3    H279278   4.828   4.664  10.840  0.8860 -0.2393 -0.5466
19263TIP3   OH279279   0.526   0.282   1.638  0.4856 -0.5694 -0.8072
19263TIP3    H179280   0.591   0.275   1.708  0.4298 -0.2556 -0.7212
19263TIP3    H279281   0.461   0.344   1.672  0.2486 -0.7261 -0.9744
19264TIP3   OH279282   3.565   1.090  11.577 -0.2499 -0.4012  0.0460
19264TIP3    H179283   3.562   1.003  11.538  1.7565 -0.8274  0.7594
19264TIP3    H279284   3.473   1.110  11.597 -0.7749 -2.2369 -0.3158
19265TIP3   OH279285   5.026   4.917   2.828  0.5784 -0.4792 -0.2938
19265TIP3    H179286   5.044   4.883   2.740 -0.4210 -0.4202 -0.5300
19265TIP3    H279287   5.084   4.866   2.885  1.2595 -0.4942 -0.9851
19266TIP3   OH279288   2.651   0.462  13.603 -0.6815 -0.0411  0.3817
19266TIP3    H179289   2.607   0.537  13.643 -0.0194  1.1727 -1.0746
19266TIP3    H279290   2.739   0.464  13.638 -1.2026 -1.3656  1.8679
19267TIP3   OH279291   2.420   4.957   0.518 -0.1922 -0.0161 -0.0759
19267TIP3    H179292   2.468   4.922   0.593  2.4747  0.1157 -1.5651
19267TIP3    H279293   2.416   4.884   0.456 -1.8127  0.0461 -0.0902
19268TIP3   OH279294   6.246   3.780   0.692 -0.1350  0.3940  0.0734
19268TIP3    H179295   6.155   3.795   0.714  0.0187 -0.2491  1.2384
19268TIP3    H279296   6.260   3.830   0.612 -1.9817 -0.9686 -1.1792
19269TIP3   OH279297   3.893   0.086   2.493 -0.4403 -0.5706  0.6674
19269TIP3    H179298   3.957   0.018   2.470  1.6147  1.2183  0.8085
19269TIP3    H279299   3.810   0.055   2.456  1.2111 -1.3110 -2.7188
19270TIP3   OH279300   1.501   1.769  13.960 -0.9956 -0.1560  0.5888
19270TIP3    H179301   1.466   1.771  13.871 -0.9967 -0.3835  0.5841
19270TIP3    H279302   1.536   1.681  13.970  3.4061  1.1708 -0.8438
19271TIP3   OH279303   1.194   6.677   2.448  0.2701  0.4177 -0.0569
19271TIP3    H179304   1.208   6.752   2.506 -0.8487  2.0013 -1.7316
19271TIP3    H279305   1.101   6.658   2.455 -0.2161  1.5928 -2.3285
19272TIP3   OH279306   1.668   6.756  12.853  0.5991 -0.3679  0.2642
19272TIP3    H179307   1.592   6.716  12.895 -0.5513  0.1796 -1.1711
19272TIP3    H279308   1.736   6.757  12.920 -0.9366 -0.0958  1.8868
19273TIP3   OH279309   1.089   0.169   1.643 -0.1785  0.5476  0.1949
19273TIP3    H179310   1.091   0.087   1.693 -0.0682  1.3500  1.5582
19273TIP3    H279311   1.043   0.147   1.562 -1.1641 -0.5991  1.0325
19274TIP3   OH279312   1.374   2.269   4.706 -0.1533  0.3326 -0.3320
19274TIP3    H179313   1.377   2.355   4.664  1.4640 -0.3309 -1.7034
19274TIP3    H279314   1.321   2.215   4.648  0.2306 -0.0214 -0.3570
19275TIP3   OH279315   3.047   6.222   0.981  0.1817 -0.3504 -0.5248
19275TIP3    H179316   3.019   6.288   0.918 -0.0213 -0.3806 -0.4668
19275TIP3    H279317   2.993   6.145   0.961 -0.5228 -0.0807  0.2610
19276TIP3   OH279318   1.386   4.467   5.307 -0.1138  0.0847  0.4198
19276TIP3    H179319   1.436   4.429   5.379 -0.1382  1.7618  1.3784
19276TIP3    H279320   1.325   4.398   5.281  1.5529 -1.4064  0.3387
19277TIP3   OH279321   4.569   3.272   6.354 -0.0250  0.3243  0.7856
19277TIP3    H179322   4.653   3.229   6.341 -1.3114 -2.0920 -0.1372
19277TIP3    H279323   4.520   3.213   6.411 -1.7826  0.6519 -0.3001
19278TIP3   OH279324   1.167   0.378  11.387  0.6574 -0.0171  0.3851
19278TIP3    H179325   1.252   0.376  11.342  1.2281  0.7489  1.3986
19278TIP3    H279326   1.186   0.355  11.477 -0.0527  1.1314  0.8541
19279TIP3   OH279327   5.959   0.245   2.573  0.0298 -0.3840 -0.0781
19279TIP3    H179328   5.967   0.297   2.493  0.7819 -0.2396  0.0761
19279TIP3    H279329   6.046   0.251   2.613  0.5089 -2.6556 -0.6036
19280TIP3   OH279330   1.777   6.324  14.689  0.2835 -0.2071  0.3871
19280TIP3    H179331   1.787   6.404  14.638 -2.8309 -0.0832 -0.2282
19280TIP3    H279332   1.809   6.346  14.776 -1.3016  2.0764  0.4901
19281TIP3   OH279333   6.248   5.931   4.973 -0.6181 -0.5288 -0.0045
19281TIP3    H179334   6.271   5.952   4.883 -3.2120  0.8127 -0.4354
19281TIP3    H279335   6.189   5.856   4.967 -3.0382  1.2429  0.2279
19282TIP3   OH279336   2.091   6.452  16.427 -0.2762 -0.5014 -0.0691
19282TIP3    H179337   2.180   6.441  16.394 -0.4752 -1.2347 -0.3681
19282TIP3    H279338   2.061   6.534  16.387  1.6107  2.0009  3.0671
19283TIP3   OH279339   2.674   2.486  14.309 -0.4689 -0.0726 -0.5964
19283TIP3    H179340   2.689   2.519  14.398 -0.2227 -1.2038 -0.1998
19283TIP3    H279341   2.748   2.518  14.259 -0.9968  1.2150 -0.5924
19284TIP3   OH279342   1.919   0.329   0.810 -0.8691 -0.2507  0.0482
19284TIP3    H179343   1.964   0.271   0.872  0.4291 -1.1286 -1.6037
19284TIP3    H279344   1.947   0.297   0.724 -1.2182  1.9913 -0.9654
19285TIP3   OH279345   5.016   4.271   4.122  0.3529 -0.2609  0.2024
19285TIP3    H179346   4.926   4.238   4.116  0.2246  0.0634  0.3206
19285TIP3    H279347   5.069   4.193   4.133  0.0599 -0.4380  0.3909
19286TIP3   OH279348   3.142   0.321   3.626 -0.0860  0.3296 -0.2163
19286TIP3    H179349   3.154   0.237   3.581  0.0447 -0.1290  0.6571
19286TIP3    H279350   3.108   0.380   3.559 -0.8610 -0.6118 -0.6661
19287TIP3   OH279351   4.940   2.817  11.221 -0.0916  0.5495 -0.4895
19287TIP3    H179352   5.023   2.841  11.264  0.1373  0.8058 -1.0638
19287TIP3    H279353   4.966   2.762  11.148 -0.5780 -0.9704  0.4528
19288TIP3   OH279354   4.991   3.874  14.095  0.4438 -0.1736 -0.0980
19288TIP3    H179355   5.007   3.954  14.045 -2.5297 -0.7010 -2.1967
19288TIP3    H279356   5.052   3.810  14.059  2.4341  0.8903  1.1912
19289TIP3   OH279357   4.747   5.430  16.269 -0.2606 -0.0204 -0.8411
19289TIP3    H179358   4.698   5.395  16.196 -1.3741 -1.0721  0.3571
19289TIP3    H279359   4.762   5.355  16.326 -0.5259  0.9758  0.6063
19290TIP3   OH279360   4.114   3.217   1.685  0.2744  0.5060 -0.4376
19290TIP3    H179361   4.152   3.144   1.635  1.0680 -0.2914  1.2264
19290TIP3    H279362   4.167   3.221   1.764 -0.0514  2.6427 -0.2751
19291TIP3   OH279363   0.273   6.477  16.922 -0.1833 -0.4825 -0.0825
19291TIP3    H179364   0.222   6.441  16.849 -0.7520  1.2300 -0.5642
19291TIP3    H279365   0.362   6.486  16.887 -0.8339  2.1062 -1.2669
19292TIP3   OH279366   0.420   3.362  13.087  0.0188  0.2665 -0.1218
19292TIP3    H179367   0.429   3.270  13.111  1.2869  0.9599  2.3960
19292TIP3    H279368   0.462   3.368  13.001  2.6815 -1.0266  0.9483
19293TIP3   OH279369   5.043   2.098  17.037 -0.2875 -0.5444 -0.2556
19293TIP3    H179370   4.965   2.153  17.042  0.7931  1.2363 -1.4932
19293TIP3    H279371   5.020   2.027  16.978 -0.7530  0.3838 -1.2097
19294TIP3   OH279372   6.544   0.386  12.757 -0.0393  0.2932  0.1413
19294TIP3    H179373   6.566   0.366  12.666 -0.3761 -1.6615  0.4492
19294TIP3    H279374   6.449   0.375  12.761 -0.1438  1.2640  0.5401
19295TIP3   OH279375   0.722   4.607  13.484 -0.4377  0.3880  0.1591
19295TIP3    H179376   0.818   4.606  13.485 -0.3862 -0.3149 -1.6046
19295TIP3    H279377   0.699   4.699  13.482  0.2119  0.5573  0.0834
19296TIP3   OH279378   6.615   1.706  14.617 -0.4114  0.0398 -0.5126
19296TIP3    H179379   6.584   1.770  14.681  0.2818  0.6055 -0.7237
19296TIP3    H279380   6.590   1.621  14.653 -0.7483  0.3937  0.1063
19297TIP3   OH279381   3.511   1.968   3.142 -0.5909  0.0203  0.3175
19297TIP3    H179382   3.544   1.885   3.176 -0.2563  0.0740  0.1272
19297TIP3    H279383   3.552   1.977   3.056 -1.4099 -0.1022 -0.0962
19298TIP3   OH279384   2.932   5.649   1.826 -0.2896 -0.0833  0.7017
19298TIP3    H179385   3.016   5.672   1.788 -2.1097  2.5829 -2.1457
19298TIP3    H279386   2.949   5.640   1.920  2.7378  2.5832  0.5459
19299TIP3   OH279387   3.512   6.812   1.333 -0.6838 -0.0045 -0.3204
19299TIP3    H179388   3.492   6.890   1.281 -1.0823  0.2997  0.2691
19299TIP3    H279389   3.436   6.755   1.321 -0.2614 -0.4307 -0.9830
19300TIP3   OH279390   2.369   6.796   2.050 -0.4218 -0.0579  0.3055
19300TIP3    H179391   2.400   6.744   2.124  1.8588  0.8075  0.0295
19300TIP3    H279392   2.371   6.737   1.975 -1.0855 -0.4609  0.5950
19301TIP3   OH279393   3.735   4.305   5.283 -0.1505 -0.6596 -0.3650
19301TIP3    H179394   3.660   4.309   5.343 -0.5408 -2.6576 -0.6601
19301TIP3    H279395   3.703   4.255   5.208  1.2321 -0.8253 -0.8666
19302TIP3   OH279396   3.125   0.401  12.897  0.6378  0.0349 -0.5902
19302TIP3    H179397   3.120   0.319  12.947  2.6786  0.1750 -0.0800
19302TIP3    H279398   3.037   0.438  12.904 -0.0115 -1.5294  0.1636
19303TIP3   OH279399   1.878   0.095   2.659  0.0231 -0.2140 -0.2016
19303TIP3    H179400   1.892   0.149   2.738  0.4531  0.8659 -0.9868
19303TIP3    H279401   1.911   0.009   2.684 -0.5911 -0.1165  1.0648
19304TIP3   OH279402   5.981   0.645   4.965  0.4258  0.8264  0.3625
19304TIP3    H179403   5.971   0.725   5.017 -1.0335  1.8420 -1.3567
19304TIP3    H279404   6.045   0.668   4.897  1.5111 -0.1420  1.0247
19305TIP3   OH279405   3.791   5.398  16.896 -0.0568 -0.1421  0.6038
19305TIP3    H179406   3.744   5.436  16.822  1.1402  0.5162  0.1423
19305TIP3    H279407   3.776   5.459  16.968  0.3088  0.2140  0.3818
19306TIP3   OH279408   1.651   0.923  12.734 -0.2493 -0.0213 -0.0057
19306TIP3    H179409   1.634   0.997  12.676 -0.4502 -0.6407 -0.7512
19306TIP3    H279410   1.657   0.848  12.676  3.7302 -0.1202  0.2659
19307TIP3   OH279411   6.823   6.249  12.542 -0.0346 -0.1394  0.1017
19307TIP3    H179412   6.734   6.260  12.508 -0.7692 -2.2881  1.0958
19307TIP3    H279413   6.879   6.247  12.465 -1.2074 -1.3529 -0.7754
19308TIP3   OH279414   0.595   6.253  11.403 -0.2411  0.0568  0.1061
19308TIP3    H179415   0.534   6.224  11.335  1.8444 -2.7400 -0.7630
19308TIP3    H279416   0.676   6.269  11.356  0.5374  0.6973  1.6238
19309TIP3   OH279417   4.798   6.771  15.063 -0.2265 -0.3449  0.3823
19309TIP3    H179418   4.737   6.750  15.134  0.5952 -1.0426  0.9098
19309TIP3    H279419   4.802   6.867  15.064 -0.7570 -0.3169  0.8217
19310TIP3   OH279420   1.313   1.339   4.513 -0.2911 -0.4988 -0.1829
19310TIP3    H179421   1.239   1.395   4.488 -2.7288 -1.9028  3.2049
19310TIP3    H279422   1.380   1.401   4.544 -0.9653  0.7070 -1.0457
19311TIP3   OH279423   0.579   5.102  13.127  0.5124 -0.2894  0.0944
19311TIP3    H179424   0.512   5.169  13.109 -0.3339 -1.1171  0.0986
19311TIP3    H279425   0.653   5.126  13.071 -0.3136 -0.1539 -0.9572
19312TIP3   OH279426   3.009   5.860   0.464  0.3501  0.4759  0.3861
19312TIP3    H179427   3.014   5.937   0.407  0.2932 -0.2235 -0.6052
19312TIP3    H279428   2.920   5.827   0.451  0.4508  0.1092  0.6214
19313TIP3   OH279429   6.306   4.057   1.801 -0.0254  0.0301 -0.0947
19313TIP3    H179430   6.311   4.020   1.713  2.3941 -1.0741  0.4419
19313TIP3    H279431   6.360   4.135   1.798  1.2190 -0.7698  0.7269
19314TIP3   OH279432   1.024   3.679   5.122 -0.2367  0.7234  0.1961
19314TIP3    H179433   1.040   3.706   5.213  0.2429  0.6702  0.1316
19314TIP3    H279434   0.950   3.619   5.128 -0.7010  1.3153  0.4570
19315TIP3   OH279435   0.202   0.432  12.700  1.0165  0.4434 -0.5813
19315TIP3    H179436   0.245   0.371  12.640 -0.4408  0.3415 -1.5943
19315TIP3    H279437   0.241   0.414  12.785 -0.7118 -3.3458 -0.4055
19316TIP3   OH279438   3.121   2.145  12.808 -0.5908 -0.1646 -0.2237
19316TIP3    H179439   3.061   2.106  12.871 -0.0497 -0.2612  0.2265
19316TIP3    H279440   3.077   2.133  12.723 -1.7139  0.7014  0.2034
19317TIP3   OH279441   2.076   0.194  12.359 -0.2755  0.9069  0.1831
19317TIP3    H179442   2.086   0.126  12.293 -1.0694  2.1312 -1.2744
19317TIP3    H279443   2.077   0.147  12.443  0.3940 -0.7319 -0.6969
19318TIP3   OH279444   1.465   5.699   0.158  0.3773  0.1453  0.1386
19318TIP3    H179445   1.505   5.773   0.112  0.5529  0.8657  1.3993
19318TIP3    H279446   1.373   5.725   0.169  0.4439  0.2072  0.5970
19319TIP3   OH279447   2.297   0.570  12.550  0.2969  0.0011  0.2824
19319TIP3    H179448   2.389   0.596  12.554  0.9932 -1.6827 -2.3287
19319TIP3    H279449   2.296   0.481  12.586 -0.1847 -0.2068 -0.2331
19320TIP3   OH279450   6.671   0.706   1.535  0.5067 -0.4850  0.3379
19320TIP3    H179451   6.648   0.629   1.587  1.2735 -1.0986 -0.2138
19320TIP3    H279452   6.710   0.766   1.598 -1.2516  0.0084  1.0259
19321TIP3   OH279453   5.471   2.136   4.163  0.0181  0.2119 -0.3943
19321TIP3    H179454   5.503   2.180   4.084  2.1733 -1.6205 -0.6398
19321TIP3    H279455   5.404   2.195   4.197 -0.3131  1.5481 -3.0342
19322TIP3   OH279456   0.601   1.388  17.091 -0.0701 -0.5031  0.3778
19322TIP3    H179457   0.558   1.471  17.073  0.0816 -0.8954 -2.0943
19322TIP3    H279458   0.694   1.408  17.088 -0.0035 -0.2965  2.4577
19323TIP3   OH279459   0.138   5.918  14.521 -0.3580 -0.6915  0.1501
19323TIP3    H179460   0.169   5.926  14.431 -0.3595 -1.1254  0.1108
19323TIP3    H279461   0.083   5.996  14.534  0.0349 -0.3751 -0.0636
19324TIP3   OH279462   6.436   3.676  12.497 -0.0416 -0.2276  0.8456
19324TIP3    H179463   6.363   3.698  12.555  0.8516 -0.8188  2.2473
19324TIP3    H279464   6.455   3.584  12.516  0.6448 -0.2731  0.0087
19325TIP3   OH279465   0.707   4.896   1.689 -0.4980  0.0585  0.4497
19325TIP3    H179466   0.648   4.972   1.687 -0.2438  0.2532 -1.8386
19325TIP3    H279467   0.649   4.820   1.685 -0.8476 -0.0643  4.0643
19326TIP3   OH279468   0.159   4.931  11.651 -0.2156  0.1414  0.0994
19326TIP3    H179469   0.240   4.980  11.632  0.2184 -1.0318 -1.2472
19326TIP3    H279470   0.172   4.898  11.739  0.9761 -0.3573 -0.2381
19327TIP3   OH279471   2.313   2.683   2.429  0.1249 -0.5870  0.1039
19327TIP3    H179472   2.392   2.629   2.430 -0.0563 -0.8507  0.2318
19327TIP3    H279473   2.328   2.748   2.498  0.1384 -0.7717  0.2764
19328TIP3   OH279474   2.187   2.636   1.734 -0.2160  0.0992  0.0963
19328TIP3    H179475   2.143   2.691   1.669 -0.4430  0.2940  0.4168
19328TIP3    H279476   2.188   2.549   1.693 -0.5523  0.1745 -0.0781
19329TIP3   OH279477   1.802   1.868  13.447  0.5178  0.0954 -0.3558
19329TIP3    H179478   1.782   1.943  13.391 -1.2481  0.2865  0.4594
19329TIP3    H279479   1.759   1.794  13.404 -0.5143  0.1724  0.5049
19330TIP3   OH279480   0.496   0.852   5.532 -0.6348  0.3231  0.5508
19330TIP3    H179481   0.583   0.816   5.552 -0.9571 -1.3341 -0.8179
19330TIP3    H279482   0.503   0.886   5.443 -1.0248  1.4860  0.9452
19331TIP3   OH279483   2.644   2.979  16.787  0.0215  0.2925 -0.0503
19331TIP3    H179484   2.702   3.005  16.716 -0.4687  0.9754 -0.2158
19331TIP3    H279485   2.589   3.056  16.802  1.0995  0.7218  2.0889
19332TIP3   OH279486   1.438   1.693   3.140  0.3472 -0.2549 -0.0740
19332TIP3    H179487   1.530   1.718   3.149  0.5913 -0.3103 -1.9672
19332TIP3    H279488   1.440   1.597   3.143  0.0809 -0.2365  1.7752
19333TIP3   OH279489   6.070   1.999   0.775  0.7002 -0.1307 -0.5354
19333TIP3    H179490   6.070   1.951   0.858  1.5304 -1.1808 -1.1162
19333TIP3    H279491   5.982   1.989   0.740  0.2477  0.5898  0.3561
19334TIP3   OH279492   1.956   1.327   4.658 -0.2423  0.7168 -0.1892
19334TIP3    H179493   1.896   1.253   4.668 -2.4225  2.3543 -0.5558
19334TIP3    H279494   1.901   1.399   4.628  1.6411  2.7303  0.9064
19335TIP3   OH279495   2.518   2.682   5.426 -0.2199 -0.4011 -0.2033
19335TIP3    H179496   2.433   2.660   5.465  0.6095 -0.0336  1.9085
19335TIP3    H279497   2.495   2.729   5.346 -2.1282  2.3753  1.7782
19336TIP3   OH279498   6.308   0.353   0.942 -0.1085 -0.1660  0.3214
19336TIP3    H179499   6.380   0.415   0.958 -0.3136  0.4371 -0.9306
19336TIP3    H279500   6.340   0.270   0.978 -0.2894  0.8691  3.0840
19337TIP3   OH279501   6.196   3.565   4.654 -0.3977 -0.2553  0.1902
19337TIP3    H179502   6.146   3.565   4.735 -0.3393  3.2730  0.4057
19337TIP3    H279503   6.131   3.553   4.585 -1.0703  0.6548  0.6428
19338TIP3   OH279504   3.463   1.653   1.266 -0.5277  0.3332 -0.1643
19338TIP3    H179505   3.408   1.695   1.200  0.4930  2.7626  0.4000
19338TIP3    H279506   3.402   1.627   1.335 -1.2125  0.9532 -0.5200
19339TIP3   OH279507   4.234   3.939   4.991 -0.4059  0.4328  0.3577
19339TIP3    H179508   4.243   3.911   4.900  2.1586  0.9444  0.3985
19339TIP3    H279509   4.207   4.031   4.985 -0.1317  0.4984  0.1087
19340TIP3   OH279510   5.770   4.283   0.436 -0.0072 -0.3790 -0.0163
19340TIP3    H179511   5.771   4.312   0.528 -0.7330  2.9761 -0.9356
19340TIP3    H279512   5.678   4.271   0.416  0.1584 -1.2337 -0.2788
19341TIP3   OH279513   6.551   6.725  13.304 -0.4289 -0.1633  0.1780
19341TIP3    H179514   6.579   6.798  13.359 -1.4488  0.5214 -0.1810
19341TIP3    H279515   6.560   6.648  13.360 -1.7651  0.5539  1.4572
19342TIP3   OH279516   6.437   6.797  14.126  0.4225  0.0497 -0.2290
19342TIP3    H179517   6.407   6.712  14.158  0.4098  0.3568  0.5864
19342TIP3    H279518   6.387   6.861  14.177 -0.9014  0.5725 -2.0507
19343TIP3   OH279519   1.296   4.462  15.840 -0.4835  0.0448 -0.5334
19343TIP3    H179520   1.236   4.392  15.866 -0.2894  0.4387  1.1391
19343TIP3    H279521   1.350   4.423  15.772 -0.7524 -1.2657 -0.0318
19344TIP3   OH279522   4.110   1.270   4.677  0.4390  0.0810 -0.6828
19344TIP3    H179523   4.156   1.311   4.751  0.0106 -1.1773  0.3134
19344TIP3    H279524   4.174   1.209   4.640 -0.4466 -2.0000  0.9776
19345TIP3   OH279525   6.580   5.684  12.088 -0.4039  0.0167  0.4292
19345TIP3    H179526   6.539   5.602  12.116  0.4116  0.0188  1.6778
19345TIP3    H279527   6.653   5.696  12.148  0.5509  0.7672 -0.8376
19346TIP3   OH279528   6.203   5.288  10.600 -0.4816 -0.3639 -0.7838
19346TIP3    H179529   6.118   5.296  10.644 -1.3723 -1.9914 -2.1167
19346TIP3    H279530   6.184   5.245  10.517  1.7324 -1.3276 -0.8714
19347TIP3   OH279531   5.121   5.584  12.641  0.2690 -0.0876  0.7964
19347TIP3    H179532   5.087   5.498  12.615 -0.7380  0.5987 -0.2991
19347TIP3    H279533   5.058   5.616  12.706 -0.1456  0.3981  0.1644
19348TIP3   OH279534   3.853   5.573  15.921 -0.0614  0.3994 -0.2625
19348TIP3    H179535   3.888   5.644  15.974  0.9693 -0.2180 -0.0914
19348TIP3    H279536   3.819   5.511  15.986 -2.8013  1.5902 -0.4332
19349TIP3   OH279537   2.839   4.842   3.506 -0.4564 -0.2480  0.3622
19349TIP3    H179538   2.887   4.812   3.584  0.1084 -0.3911 -0.0368
19349TIP3    H279539   2.868   4.784   3.436 -1.8040 -0.8427  0.2720
19350TIP3   OH279540   4.383   0.185   1.038 -0.0576 -0.1954  0.4616
19350TIP3    H179541   4.361   0.245   0.967  1.4368  0.8114  0.8094
19350TIP3    H279542   4.338   0.220   1.115  0.6682  0.3994  0.6251
19351TIP3   OH279543   0.671   2.834  14.626  0.2498  0.2254 -0.3783
19351TIP3    H179544   0.650   2.878  14.543 -0.6706  0.3228 -0.1076
19351TIP3    H279545   0.592   2.783  14.646  0.0345  1.0399  0.9783
19352TIP3   OH279546   2.260   4.635   2.576 -0.0976 -0.3082  0.2952
19352TIP3    H179547   2.337   4.677   2.614  0.8733 -1.8308  0.0826
19352TIP3    H279548   2.295   4.567   2.518 -1.5893 -1.2191  0.3982
19353TIP3   OH279549   6.327   3.752  14.207 -0.1772 -0.0081 -0.6774
19353TIP3    H179550   6.273   3.832  14.203  0.1437  0.1640 -1.7789
19353TIP3    H279551   6.417   3.784  14.205 -0.0459 -0.4064 -1.5126
19354TIP3   OH279552   3.385   0.666   1.853  0.0264  0.1647  0.3505
19354TIP3    H179553   3.305   0.616   1.863 -0.5713 -0.0323 -3.6971
19354TIP3    H279554   3.367   0.750   1.896 -1.3426 -0.7552  1.6587
19355TIP3   OH279555   5.570   0.242   2.281 -0.1429  0.3202  0.5924
19355TIP3    H179556   5.583   0.155   2.317 -1.7004  0.0734  0.6201
19355TIP3    H279557   5.501   0.231   2.215  0.0712  1.4163  0.1653
19356TIP3   OH279558   6.501   4.388   2.908  0.5003 -0.2506 -0.0113
19356TIP3    H179559   6.440   4.446   2.955  2.1368  2.8097 -1.3225
19356TIP3    H279560   6.444   4.326   2.863 -1.3914  0.0381  1.7911
19357TIP3   OH279561   1.883   1.616  17.045 -0.6223  0.0983 -0.3752
19357TIP3    H179562   1.937   1.650  16.973  2.1755  2.9721  2.7470
19357TIP3    H279563   1.822   1.686  17.065 -1.5051 -0.7445 -0.0268
19358TIP3   OH279564   5.222   5.681   1.038  0.5689 -0.3321 -0.9691
19358TIP3    H179565   5.233   5.590   1.010 -0.6374 -0.9902  0.5885
19358TIP3    H279566   5.128   5.695   1.038  0.5316 -0.1125  1.7926
19359TIP3   OH279567   4.472   2.334   4.810  0.4708 -0.3374 -0.1621
19359TIP3    H179568   4.535   2.380   4.865  0.4302  2.4155 -2.1622
19359TIP3    H279569   4.523   2.268   4.764  1.7596  1.1433 -0.9605
19360TIP3   OH279570   1.324   1.189  14.248 -0.1498 -0.1841 -0.2959
19360TIP3    H179571   1.287   1.104  14.228  0.4591 -0.3666 -0.6915
19360TIP3    H279572   1.331   1.191  14.344 -0.2444 -0.5440 -0.2821
19361TIP3   OH279573   3.022   4.816   3.966 -0.2761 -0.2028 -0.1913
19361TIP3    H179574   3.108   4.810   4.009 -1.3363 -0.6035  2.0252
19361TIP3    H279575   2.974   4.882   4.017 -1.2813  0.0761 -1.4446
19362TIP3   OH279576   3.615   0.970  14.879  0.4183 -0.0830  0.3036
19362TIP3    H179577   3.602   0.981  14.784 -0.3513 -0.5056  0.3462
19362TIP3    H279578   3.710   0.963  14.890  0.6135  1.2873 -0.2805
19363TIP3   OH279579   1.033   0.336  12.104 -0.3415 -0.0085  0.1080
19363TIP3    H179580   0.981   0.368  12.030  1.6560  2.1067 -0.5029
19363TIP3    H279581   1.090   0.270  12.066 -2.7385 -2.7275  0.8816
19364TIP3   OH279582   3.413   0.595   2.521  0.1580 -0.3047  0.5414
19364TIP3    H179583   3.496   0.555   2.497 -1.1642 -2.8762 -0.0998
19364TIP3    H279584   3.349   0.524   2.514 -2.3366  1.8530 -0.2566
19365TIP3   OH279585   0.548   6.082   2.536 -0.3640  0.4980  0.4917
19365TIP3    H179586   0.639   6.112   2.526 -0.4300  0.7185  0.5448
19365TIP3    H279587   0.540   6.009   2.475 -0.5759  1.4026 -0.5860
19366TIP3   OH279588   6.656   0.857  11.467  0.7705  0.1070  0.0958
19366TIP3    H179589   6.567   0.831  11.492  0.0277  1.9592 -0.4579
19366TIP3    H279590   6.711   0.826  11.539 -0.3054 -1.0863  0.4384
19367TIP3   OH279591   6.494   1.826  14.409  0.5156  0.3162  0.4595
19367TIP3    H179592   6.402   1.799  14.411 -0.2127  2.5248 -0.3118
19367TIP3    H279593   6.532   1.787  14.487 -1.3401  0.2216  1.3807
19368TIP3   OH279594   1.751   0.007  15.014  0.0697 -0.5057  0.2164
19368TIP3    H179595   1.700   0.086  15.001  0.0164 -0.2959  1.5663
19368TIP3    H279596   1.687  -0.064  15.011 -0.0732 -0.3791  0.2725
19369TIP3   OH279597   6.379   4.388   4.144  0.2999  0.2970  0.1972
19369TIP3    H179598   6.473   4.375   4.129  0.3297  0.8265 -0.1130
19369TIP3    H279599   6.353   4.447   4.074 -0.6851 -1.4272 -0.9704
19370TIP3   OH279600   1.335   0.792   2.616 -0.4220 -0.4281 -0.1278
19370TIP3    H179601   1.385   0.739   2.554 -0.1743 -1.5749  1.0020
19370TIP3    H279602   1.252   0.809   2.571  0.7873  1.2353 -1.8933
19371TIP3   OH279603   2.759   3.767  11.894 -0.0108 -0.1667 -0.1829
19371TIP3    H179604   2.744   3.861  11.905 -1.4090 -0.2212 -1.3008
19371TIP3    H279605   2.805   3.759  11.810  0.9029 -0.4354  0.3314
19372TIP3   OH279606   2.046   6.625   4.915 -0.4095  0.1021 -0.2477
19372TIP3    H179607   2.127   6.586   4.884  0.2287  2.4354 -1.7774
19372TIP3    H279608   1.977   6.574   4.873  0.2941 -1.0081 -0.0729
19373TIP3   OH279609   1.472   4.233   1.417  0.3717  0.5007 -0.5683
19373TIP3    H179610   1.493   4.213   1.326  0.9675 -1.1812 -0.1128
19373TIP3    H279611   1.435   4.151   1.451 -0.3405  1.2659  0.5661
19374TIP3   OH279612   2.972   4.179   5.659  0.4554 -0.3765 -0.3678
19374TIP3    H179613   3.051   4.219   5.623  0.2607  1.5602  1.2212
19374TIP3    H279614   2.998   4.148   5.746 -0.8627  1.8596  0.9161
19375TIP3   OH279615   3.762   4.678   5.697  0.2753  0.2294  0.7311
19375TIP3    H179616   3.831   4.620   5.730 -0.5210 -1.1538  0.0049
19375TIP3    H279617   3.780   4.762   5.740  2.8680  0.1419 -0.0227
19376TIP3   OH279618   4.812   3.539   4.597  0.2823 -0.3644  0.3333
19376TIP3    H179619   4.841   3.451   4.622  0.7546 -0.1590  0.5148
19376TIP3    H279620   4.823   3.591   4.676 -0.3477 -0.2214  0.3304
19377TIP3   OH279621   1.080   0.356   4.528  0.0674 -0.2117  0.1075
19377TIP3    H179622   1.172   0.372   4.508  0.4176 -1.8952  0.2206
19377TIP3    H279623   1.037   0.349   4.442  0.2533 -0.4652  0.0335
19378TIP3   OH279624   1.686   4.096   1.997 -0.0789  0.5261 -0.3893
19378TIP3    H179625   1.753   4.029   2.010 -0.7013  0.4187  2.9367
19378TIP3    H279626   1.636   4.065   1.921  1.4770 -1.1810 -0.7890
19379TIP3   OH279627   3.139   6.806  11.974  0.1206 -1.0464 -0.0643
19379TIP3    H179628   3.182   6.809  11.888  0.6312 -1.2576  0.1814
19379TIP3    H279629   3.051   6.839  11.957 -0.0410 -1.8188 -0.8367
19380TIP3   OH279630   1.062   5.494   0.854  0.1682  0.6714 -0.5728
19380TIP3    H179631   1.155   5.505   0.832  0.3928  0.1543  0.0774
19380TIP3    H279632   1.023   5.580   0.838  1.5234  2.0801  2.8538
19381TIP3   OH279633   1.854   5.861  16.045  0.3128  0.3144  0.2078
19381TIP3    H179634   1.939   5.821  16.029  0.1611 -0.0788  0.3581
19381TIP3    H279635   1.872   5.955  16.052  1.1361  0.0281  2.8395
19382TIP3   OH279636   5.399   3.518   3.723  0.2987  0.4540  0.4871
19382TIP3    H179637   5.447   3.435   3.722  0.2518  0.4273  0.4409
19382TIP3    H279638   5.417   3.558   3.638 -0.5471 -0.0102  0.0764
19383TIP3   OH279639   0.594   4.442   5.623  0.2324  0.1625 -0.5282
19383TIP3    H179640   0.569   4.424   5.714  0.3226 -2.2169 -0.9214
19383TIP3    H279641   0.685   4.472   5.629  1.7019 -3.8174 -0.0089
19384TIP3   OH279642   6.164   0.082   2.856  0.4185 -0.1386 -0.3917
19384TIP3    H179643   6.217   0.062   2.779 -0.7075 -0.4165 -1.1166
19384TIP3    H279644   6.222   0.133   2.913  0.8647  1.3015 -2.0414
19385TIP3   OH279645   1.756   3.269  15.289  0.6652  0.2786  0.2854
19385TIP3    H179646   1.802   3.353  15.288  1.0644  0.0849  1.2620
19385TIP3    H279647   1.709   3.267  15.372  0.6898 -0.4776  0.2922
19386TIP3   OH279648   1.191   0.423   1.592  0.2705  0.2914  0.2484
19386TIP3    H179649   1.183   0.328   1.601 -0.3007  0.3777  0.7604
19386TIP3    H279650   1.209   0.437   1.499  0.5226 -0.3248  0.1989
19387TIP3   OH279651   3.923   1.591   4.189  0.1664 -0.6924  0.0769
19387TIP3    H179652   3.885   1.526   4.249 -2.2281 -0.3877 -1.0100
19387TIP3    H279653   3.869   1.669   4.200  0.3143 -0.2915 -1.7261
19388TIP3   OH279654   3.623   5.667   0.903  0.0733 -0.8633 -0.1235
19388TIP3    H179655   3.691   5.705   0.847  1.2412 -1.1004  1.0902
19388TIP3    H279656   3.555   5.640   0.842  0.4494  0.6066 -1.2635
19389TIP3   OH279657   4.976   3.278  16.580 -0.3943  0.4572  0.1106
19389TIP3    H179658   4.981   3.340  16.653  2.8462 -0.1994  0.6017
19389TIP3    H279659   4.889   3.292  16.542 -0.3893  4.1776  1.1266
19390TIP3   OH279660   0.449   3.643  17.049 -0.5964 -1.1008  0.1070
19390TIP3    H179661   0.475   3.569  17.104  0.4318 -1.8839 -1.3691
19390TIP3    H279662   0.526   3.701  17.049 -0.2946 -1.4827 -1.0911
19391TIP3   OH279663   2.874   3.022   1.053 -0.0192  0.1400  0.3243
19391TIP3    H179664   2.837   2.950   1.002  0.8330 -0.0023 -0.1115
19391TIP3    H279665   2.799   3.060   1.098 -0.8339  0.3391 -1.1224
19392TIP3   OH279666   0.046   6.431   5.875 -0.3007 -0.0883  0.3053
19392TIP3    H179667  -0.044   6.413   5.903 -0.3900  0.5611  0.4517
19392TIP3    H279668   0.037   6.496   5.806  0.1384  1.1015  1.3466
19393TIP3   OH279669   6.193   2.013  15.176  0.0733 -0.1911  0.4757
19393TIP3    H179670   6.221   2.103  15.191 -0.4251 -0.0608  0.6320
19393TIP3    H279671   6.134   1.993  15.249 -1.8746  0.2294 -0.9024
19394TIP3   OH279672   4.397   1.738   0.788 -0.1104 -0.5958  0.8788
19394TIP3    H179673   4.325   1.703   0.841  0.0141 -2.2878  0.0058
19394TIP3    H279674   4.415   1.669   0.724  0.2339  1.0449 -0.8994
19395TIP3   OH279675   5.700   4.308   2.615 -0.1303  0.5461  0.0758
19395TIP3    H179676   5.646   4.386   2.628  0.1597  0.5070  1.6804
19395TIP3    H279677   5.787   4.334   2.643 -0.3075 -0.7152  1.9731
19396TIP3   OH279678   4.765   3.746   2.900  0.1577  0.3571 -0.2728
19396TIP3    H179679   4.749   3.691   2.823 -0.0273  0.4768 -0.3201
19396TIP3    H279680   4.844   3.795   2.878  0.4469 -0.0409 -0.1462
19397TIP3   OH279681   1.236   4.039  12.958 -0.2130  0.1014 -0.4456
19397TIP3    H179682   1.287   3.994  13.025 -0.6295 -0.5652 -0.5641
19397TIP3    H279683   1.250   4.132  12.975  1.0606 -0.0667 -0.4989
19398TIP3   OH279684   3.268   6.427   3.293  0.0859  0.5674  0.4253
19398TIP3    H179685   3.259   6.359   3.359 -1.3575  0.7073  0.3931
19398TIP3    H279686   3.227   6.390   3.215  0.8773  0.7949 -0.1093
19399TIP3   OH279687   0.658   5.689  12.811 -0.6498  0.0329 -0.3208
19399TIP3    H179688   0.585   5.699  12.872 -0.4085  1.5178 -0.2209
19399TIP3    H279689   0.705   5.772  12.818  0.7168 -0.6824 -0.8130
19400TIP3   OH279690   2.962   0.072  11.476  0.3287  0.8628  0.0811
19400TIP3    H179691   2.905  -0.004  11.464  2.5464 -0.8753  0.0175
19400TIP3    H279692   2.953   0.122  11.395 -0.3907  0.1568 -0.2913
19401TIP3   OH279693   3.863   3.933  16.277  0.1335 -0.9383 -0.2103
19401TIP3    H179694   3.787   3.948  16.220 -0.0646  0.2573  0.3563
19401TIP3    H279695   3.928   3.997  16.247 -0.7457  1.2780  2.2787
19402TIP3   OH279696   3.229   0.283   1.289 -0.3777 -0.0698  0.0228
19402TIP3    H179697   3.315   0.254   1.258 -0.8157 -1.5752  0.1289
19402TIP3    H279698   3.183   0.202   1.311 -1.1870  0.8067  1.7091
19403TIP3   OH279699   5.315   0.515  15.016 -0.2186  0.8243 -0.3091
19403TIP3    H179700   5.266   0.556  15.087 -0.0960  1.3714 -0.5358
19403TIP3    H279701   5.352   0.588  14.967 -0.7323  0.4755 -1.2417
19404TIP3   OH279702   4.905   2.790   0.574 -0.2618  0.6835 -0.8327
19404TIP3    H179703   4.862   2.809   0.491 -0.5221  1.1088 -0.6043
19404TIP3    H279704   4.952   2.871   0.595 -0.7933  0.8347 -0.2022
19405TIP3   OH279705   0.960   6.440  12.598  0.1006 -0.1659  0.3432
19405TIP3    H179706   0.888   6.438  12.536 -0.0665 -2.6413  0.5103
19405TIP3    H279707   0.989   6.531  12.599 -2.1137  0.6100 -0.7467
19406TIP3   OH279708   5.495   0.966   0.576 -0.0280 -0.2976 -0.4109
19406TIP3    H179709   5.548   0.902   0.623 -1.2437 -0.7463  0.4021
19406TIP3    H279710   5.414   0.920   0.555 -0.8766  0.9132  0.0627
19407TIP3   OH279711   6.093   1.694   3.789 -0.1092 -0.1157  0.1342
19407TIP3    H179712   6.049   1.618   3.751 -0.2851 -0.1324  0.3638
19407TIP3    H279713   6.027   1.732   3.848 -0.0757  0.3034 -0.0971
19408TIP3   OH279714   5.006   0.884  15.073 -0.3571  0.2636 -0.4179
19408TIP3    H179715   4.960   0.943  15.012 -1.2125 -0.4329 -0.4712
19408TIP3    H279716   4.959   0.801  15.065  0.0717 -0.0818  0.5505
19409TIP3   OH279717   1.334   3.394   3.266  0.0554 -0.2453 -0.2484
19409TIP3    H179718   1.394   3.321   3.252 -0.5387 -1.1277  1.5489
19409TIP3    H279719   1.264   3.381   3.201  0.2501 -0.9489 -0.3187
19410TIP3   OH279720   2.766   4.115   2.443  0.3756 -0.1737 -0.6349
19410TIP3    H179721   2.832   4.053   2.413 -0.1297 -0.9718 -0.1282
19410TIP3    H279722   2.815   4.176   2.500  1.7936  2.5969 -4.3800
19411TIP3   OH279723   3.223   6.156  13.333 -0.2276  0.1711 -0.1819
19411TIP3    H179724   3.136   6.116  13.327 -0.2934  0.0443  1.2074
19411TIP3    H279725   3.282   6.083  13.353  0.3155  0.1655 -1.6448
19412TIP3   OH279726   4.331   0.636   4.568 -0.2178  0.2800 -0.0695
19412TIP3    H179727   4.272   0.704   4.600 -0.3216 -0.1722  0.6974
19412TIP3    H279728   4.284   0.597   4.494 -0.6714  0.2448  0.2345
19413TIP3   OH279729   5.896   1.197   2.569  0.5500 -0.6092 -0.1590
19413TIP3    H179730   5.816   1.202   2.516 -0.5595  0.1604  1.5136
19413TIP3    H279731   5.865   1.176   2.657  1.9738  1.4845  0.9380
19414TIP3   OH279732   5.415   4.975  14.925 -0.3507  0.7991 -0.4480
19414TIP3    H179733   5.348   4.907  14.919  2.8014 -2.6248  0.0323
19414TIP3    H279734   5.442   4.974  15.017  1.2863  1.0602 -0.8887
19415TIP3   OH279735   2.702   3.963  13.172 -0.1328  0.0450 -0.1202
19415TIP3    H179736   2.695   3.953  13.077  1.7983 -1.1770 -0.2017
19415TIP3    H279737   2.614   3.948  13.205 -0.5209 -1.2176 -1.6088
19416TIP3   OH279738   0.652   5.682   0.819 -0.3366 -0.0945 -0.1534
19416TIP3    H179739   0.573   5.662   0.768 -2.1909  0.8055  2.1605
19416TIP3    H279740   0.681   5.597   0.853  1.0225 -0.7336 -2.6497
19417TIP3   OH279741   1.325   2.618   6.495  0.3046  0.4379  0.5662
19417TIP3    H179742   1.325   2.714   6.500  0.4854  0.4039  1.4475
19417TIP3    H279743   1.413   2.595   6.467  0.1562  0.5326 -0.0018
19418TIP3   OH279744   2.233   1.635   0.029 -0.0748 -0.2475 -0.1172
19418TIP3    H179745   2.166   1.573  -0.001 -0.2189 -0.1324 -0.0368
19418TIP3    H279746   2.280   1.588   0.097  0.0725 -0.4101 -0.3297
19419TIP3   OH279747   5.700   5.505  15.402  0.2994  0.1994  0.0561
19419TIP3    H179748   5.752   5.577  15.365 -0.1639  0.2005 -0.6023
19419TIP3    H279749   5.647   5.547  15.470  1.8842  0.0267  1.4772
19420TIP3   OH279750   2.345   6.608   3.744 -0.0548 -0.5590 -0.2772
19420TIP3    H179751   2.437   6.583   3.740  0.6486  1.5916  0.7589
19420TIP3    H279752   2.344   6.701   3.721 -2.1964 -0.8577 -1.7885
19421TIP3   OH279753   0.456   4.088  12.365 -0.4019 -0.1335  0.7077
19421TIP3    H179754   0.516   4.147  12.410 -2.0670  1.4060  1.0409
19421TIP3    H279755   0.374   4.137  12.359 -0.6460 -0.7255 -2.9297
19422TIP3   OH279756   3.287   6.058  12.426 -0.0042  0.4429  0.4993
19422TIP3    H179757   3.206   6.010  12.408  1.5508 -2.0655 -0.2553
19422TIP3    H279758   3.307   6.103  12.344 -0.7043  1.2480  0.7558
19423TIP3   OH279759   6.220   1.593   5.451 -0.2166 -0.2278 -0.1444
19423TIP3    H179760   6.310   1.620   5.438 -0.4350  0.1590 -0.8852
19423TIP3    H279761   6.207   1.599   5.546  0.6215 -0.5931 -0.0016
19424TIP3   OH279762   2.326   0.032  13.551  0.6999  0.0737 -0.0579
19424TIP3    H179763   2.396  -0.005  13.603 -1.3887 -1.1741  2.0507
19424TIP3    H279764   2.246  -0.009  13.584 -1.1332  1.8741 -1.8876
19425TIP3   OH279765   5.522   0.505  12.264 -0.2412 -0.1007 -0.0800
19425TIP3    H179766   5.603   0.551  12.289 -0.4242 -0.0899  0.5151
19425TIP3    H279767   5.552   0.432  12.209 -0.0175  1.1794 -1.7207
19426TIP3   OH279768   1.797   1.108  13.295 -0.1749  0.2419 -0.3984
19426TIP3    H179769   1.709   1.140  13.316 -0.9181 -0.7229 -1.9002
19426TIP3    H279770   1.811   1.132  13.204  1.2173  0.5291 -0.1434
19427TIP3   OH279771   4.532   0.560   2.702 -0.3857  0.4906  0.7244
19427TIP3    H179772   4.539   0.622   2.775 -0.6260 -0.2202  1.3728
19427TIP3    H279773   4.585   0.485   2.730 -0.1156  0.3869 -0.0388
19428TIP3   OH279774   2.457   1.157   4.820 -0.5375  0.0201  0.5987
19428TIP3    H179775   2.535   1.170   4.874 -1.1814 -0.0827  1.5823
19428TIP3    H279776   2.488   1.111   4.743  0.2971 -0.4934  1.2295
19429TIP3   OH279777   3.058   2.657   1.468  0.6110  0.4511  0.1319
19429TIP3    H179778   3.026   2.592   1.406 -0.0059 -0.7517  1.6568
19429TIP3    H279779   3.078   2.734   1.414 -0.2910 -0.3999 -1.4814
19430TIP3   OH279780   3.469   0.326   3.372  0.4114 -0.4321 -0.0653
19430TIP3    H179781   3.373   0.324   3.373  0.4198 -0.9597  1.0372
19430TIP3    H279782   3.490   0.409   3.330 -0.5252 -0.2774 -0.2625
19431TIP3   OH279783   5.654   5.653  16.431 -0.5232 -0.4060 -0.1657
19431TIP3    H179784   5.562   5.639  16.455 -0.7024 -1.1730 -1.2206
19431TIP3    H279785   5.673   5.584  16.368  0.6260  0.0824 -0.3803
19432TIP3   OH279786   3.061   0.309   6.129 -0.0239  0.3076  0.6335
19432TIP3    H179787   3.003   0.349   6.194 -0.4026  0.0730  0.4429
19432TIP3    H279788   3.077   0.221   6.162 -1.1189 -0.2035 -0.1377
19433TIP3   OH279789   5.765   6.147  15.623  0.0642  0.3308  0.5729
19433TIP3    H179790   5.849   6.105  15.610 -0.4551 -0.6433  0.2948
19433TIP3    H279791   5.756   6.206  15.548  0.1744 -0.1087  0.2125
19434TIP3   OH279792   4.710   0.397   1.999 -0.1863  0.0834  0.2436
19434TIP3    H179793   4.759   0.477   1.982  0.5015 -0.6643 -1.5767
19434TIP3    H279794   4.659   0.416   2.078 -0.4189  2.4695 -0.3961
19435TIP3   OH279795   6.187   3.800   3.800  0.6795  0.7619 -0.3040
19435TIP3    H179796   6.262   3.846   3.839 -1.1338  0.7869  3.7239
19435TIP3    H279797   6.213   3.708   3.800  0.4494  0.6114  2.2353
19436TIP3   OH279798   3.301   1.171  16.882 -0.0371 -0.1461  0.2925
19436TIP3    H179799   3.380   1.128  16.915 -0.2123  0.2474  1.2800
19436TIP3    H279800   3.334   1.244  16.829  0.2591 -1.3953 -1.3400
19437TIP3   OH279801   1.557   5.028   4.381  0.1042 -0.3169  0.1150
19437TIP3    H179802   1.475   4.981   4.400  0.0978 -0.3118  0.1008
19437TIP3    H279803   1.570   5.014   4.287 -1.0600  1.5065 -0.3802
19438TIP3   OH279804   5.036   0.140  13.757  0.0483  0.0417  0.1551
19438TIP3    H179805   5.115   0.087  13.752 -0.6207 -1.1193  1.4511
19438TIP3    H279806   4.967   0.079  13.781 -0.8698  1.3838  1.0640
19439TIP3   OH279807   5.168   4.246  16.943  0.7949 -0.8276  0.1233
19439TIP3    H179808   5.136   4.283  17.025  0.2518  0.3419 -0.5738
19439TIP3    H279809   5.097   4.260  16.881  1.5790 -0.7456 -0.7931
19440TIP3   OH279810   1.629   3.029   2.378  0.2463  0.6066  0.0765
19440TIP3    H179811   1.711   2.994   2.411 -1.0532 -1.7837  1.0646
19440TIP3    H279812   1.602   2.966   2.310 -1.3275  0.6436  0.6202
19441TIP3   OH279813   2.166   6.191  12.362 -0.4262 -0.2790  0.2945
19441TIP3    H179814   2.171   6.277  12.404 -1.5018 -1.0678  2.1628
19441TIP3    H279815   2.113   6.138  12.422 -1.0709 -1.8294 -1.5568
19442TIP3   OH279816   2.658   4.547  12.298  0.2057 -0.1176 -0.2436
19442TIP3    H179817   2.724   4.501  12.350 -0.2097 -0.3508  0.0858
19442TIP3    H279818   2.574   4.513  12.331 -0.1252  1.1014  0.2282
19443TIP3   OH279819   0.425   0.860   6.281  0.3139  0.1504  0.0597
19443TIP3    H179820   0.511   0.859   6.323  0.0970  1.5066  0.5667
19443TIP3    H279821   0.364   0.844   6.353  0.1608 -1.7587 -0.4440
19444TIP3   OH279822   2.261   0.057  15.786  0.1233  0.1175  0.0346
19444TIP3    H179823   2.306   0.137  15.813  1.1996 -1.0620  1.9048
19444TIP3    H279824   2.313   0.024  15.712  1.2687 -0.2250  0.9627
19445TIP3   OH279825   0.693   4.917   2.767  0.4774  0.2739  0.0848
19445TIP3    H179826   0.777   4.882   2.799 -0.0626 -0.2323  0.9883
19445TIP3    H279827   0.702   4.917   2.671  1.8694  1.1603  0.1807
19446TIP3   OH279828   0.694   2.297   0.599  0.2132  0.4101  0.7751
19446TIP3    H179829   0.694   2.289   0.504  2.0818 -1.6313  0.8589
19446TIP3    H279830   0.786   2.305   0.622 -0.2368  1.2817  2.4111
19447TIP3   OH279831   2.744   5.250  14.507  0.0557  0.2996  0.0771
19447TIP3    H179832   2.716   5.338  14.533 -0.9789  0.8444 -2.4781
19447TIP3    H279833   2.707   5.192  14.574 -2.0916  1.5762  0.1065
19448TIP3   OH279834   5.102   1.003  12.814 -0.0084  0.5239  0.2537
19448TIP3    H179835   5.077   1.051  12.893  1.1516 -0.3189  1.1716
19448TIP3    H279836   5.019   0.980  12.772 -0.6212  1.6690  0.8001
19449TIP3   OH279837   6.662   4.805  14.815  0.6670  0.5533  0.1664
19449TIP3    H179838   6.686   4.870  14.881 -0.0819  1.2861 -0.2621
19449TIP3    H279839   6.639   4.857  14.738 -0.3076 -0.2123 -0.0678
19450TIP3   OH279840   5.785   4.369   1.337 -0.1267  0.1181 -0.8325
19450TIP3    H179841   5.837   4.289   1.346 -2.3319 -1.5797 -2.0106
19450TIP3    H279842   5.849   4.440   1.336  2.0189 -1.7103 -0.7813
19451TIP3   OH279843   5.018   5.450  15.893  0.2082  0.9272 -0.2127
19451TIP3    H179844   5.037   5.466  15.985 -2.4041  0.7894  0.4327
19451TIP3    H279845   4.924   5.461  15.885  0.1148 -0.6269 -2.5486
19452TIP3   OH279846   3.179   0.542   1.333  0.5303  0.0519 -0.4285
19452TIP3    H179847   3.096   0.557   1.377 -0.6292 -0.4631 -2.2927
19452TIP3    H279848   3.172   0.452   1.300  0.7489  0.7788 -2.6777
19453TIP3   OH279849   5.429   6.334   3.446 -0.2492 -0.3734 -0.1553
19453TIP3    H179850   5.358   6.356   3.386 -0.9086 -0.6683  0.4978
19453TIP3    H279851   5.457   6.247   3.420  0.1933 -0.0676 -0.7113
19454TIP3   OH279852   3.363   3.053   2.335  0.0463 -0.4773 -0.8131
19454TIP3    H179853   3.304   3.116   2.293  1.3573  0.2517 -1.6358
19454TIP3    H279854   3.443   3.102   2.353  1.6422 -2.1714 -2.7163
19455TIP3   OH279855   6.383   3.532   0.759 -0.2613  0.3729 -0.3182
19455TIP3    H179856   6.339   3.498   0.682  1.1022 -0.1736 -0.8964
19455TIP3    H279857   6.344   3.618   0.773 -0.1090  0.7539 -2.0021
19456TIP3   OH279858   2.308   6.573  12.464  0.1863 -0.2144  0.0595
19456TIP3    H179859   2.267   6.577  12.377  1.5637 -1.4315 -0.6962
19456TIP3    H279860   2.274   6.650  12.510 -0.9930  0.1701 -1.3621
19457TIP3   OH279861   4.901   4.678   6.618  0.3596 -0.1777  0.2213
19457TIP3    H179862   4.923   4.732   6.693  0.7889  0.3976 -0.3066
19457TIP3    H279863   4.942   4.723   6.543 -0.3958 -0.5134 -0.4078
19458TIP3   OH279864   2.760   4.465   0.319  0.2930  0.3349  0.5021
19458TIP3    H179865   2.801   4.439   0.237  2.6412 -0.3500  1.7924
19458TIP3    H279866   2.797   4.551   0.339  0.1087  0.2954  1.0519
19459TIP3   OH279867   2.571   6.063   3.001 -0.0932 -0.0437 -0.8226
19459TIP3    H179868   2.540   6.104   3.082  1.6470  0.7019 -0.4933
19459TIP3    H279869   2.527   5.977   3.000  0.7096 -0.5740  1.5239
19460TIP3   OH279870   6.057   5.997   0.458  0.5412  0.0875  1.2316
19460TIP3    H179871   6.023   5.949   0.382  1.2493 -0.2623  1.1213
19460TIP3    H279872   6.119   5.936   0.499  1.3048  0.8251  1.2090
19461TIP3   OH279873   0.841   0.360  16.364  0.1383  0.0584  0.1859
19461TIP3    H179874   0.890   0.420  16.421  0.6828 -0.0123 -0.1933
19461TIP3    H279875   0.751   0.366  16.394  0.4405 -0.1308  1.1940
19462TIP3   OH279876   0.931   6.007  15.170  0.9841  0.3721 -0.4023
19462TIP3    H179877   0.946   5.920  15.206  0.5300  0.1765 -0.6743
19462TIP3    H279878   0.997   6.062  15.212  1.1577 -0.0648 -0.0923
19463TIP3   OH279879   3.753   5.267  11.422  0.6544 -0.2178  0.0038
19463TIP3    H179880   3.734   5.182  11.461  0.5746  0.9694  2.8346
19463TIP3    H279881   3.825   5.302  11.475  0.6483  1.4947 -1.0492
19464TIP3   OH279882   4.514   4.404   5.373  0.1163 -0.3652 -0.2374
19464TIP3    H179883   4.480   4.482   5.417  0.3237 -1.0557  1.1982
19464TIP3    H279884   4.605   4.426   5.351 -0.6301  0.8255 -2.4751
19465TIP3   OH279885   5.239   3.343  12.065  0.0826 -0.0314 -0.3785
19465TIP3    H179886   5.256   3.263  12.015  2.5464  0.5402 -0.5958
19465TIP3    H279887   5.225   3.313  12.154  0.7722 -0.7487 -0.5013
19466TIP3   OH279888   4.116   6.730   4.939 -0.3574  0.3046 -0.0751
19466TIP3    H179889   4.173   6.761   4.868 -0.0192  3.1502  1.3098
19466TIP3    H279890   4.047   6.795   4.945 -1.4567 -0.9023  1.0039
19467TIP3   OH279891   3.540   3.071  14.375 -0.0086 -0.4129  0.0754
19467TIP3    H179892   3.541   3.167  14.380 -0.6608 -0.4540  1.5215
19467TIP3    H279893   3.526   3.052  14.282  0.7744  0.8726 -0.3279
19468TIP3   OH279894   3.762   1.542  12.839 -0.4137 -0.1182  0.1426
19468TIP3    H179895   3.670   1.543  12.813 -0.4960  0.0906  0.4380
19468TIP3    H279896   3.761   1.506  12.928 -0.4291  1.8521  0.9738
19469TIP3   OH279897   0.107   6.370  15.641 -0.2905 -0.0606 -0.2446
19469TIP3    H179898   0.065   6.285  15.626  0.2618 -0.4000  0.1136
19469TIP3    H279899   0.108   6.412  15.555 -1.0690 -0.1807 -0.3206
19470TIP3   OH279900   4.967   3.316  10.967  0.0234 -0.1230 -0.2462
19470TIP3    H179901   4.950   3.384  11.032  0.6538 -0.7467  0.6029
19470TIP3    H279902   4.923   3.238  11.003  2.9987 -1.3274  1.1332
19471TIP3   OH279903   5.657   5.176   0.297 -0.4986  0.4281  0.2153
19471TIP3    H179904   5.665   5.229   0.218 -1.3335 -0.3012 -0.3785
19471TIP3    H279905   5.729   5.205   0.353  1.4449 -0.5068 -1.6755
19472TIP3   OH279906   4.684   0.230  13.900 -0.5263  0.5562 -0.6117
19472TIP3    H179907   4.607   0.185  13.933 -1.0712  2.0637  0.2631
19472TIP3    H279908   4.726   0.167  13.841 -0.1600 -1.8453  2.0089
19473TIP3   OH279909   1.590   3.654  11.139  0.1982  0.7620 -0.5656
19473TIP3    H179910   1.678   3.635  11.107  1.7293 -0.4711  3.6864
19473TIP3    H279911   1.589   3.749  11.152  0.5362  0.9007 -1.4956
19474TIP3   OH279912   3.885   4.253  16.338 -0.2211  0.0987 -0.5302
19474TIP3    H179913   3.789   4.256  16.342 -0.2108  0.2212 -0.3513
19474TIP3    H279914   3.904   4.204  16.258 -0.4321  0.2452 -0.6731
19475TIP3   OH279915   0.027   1.825  12.181 -0.4373  0.1253  0.8585
19475TIP3    H179916   0.078   1.753  12.144  1.1871  0.8093  1.6683
19475TIP3    H279917   0.003   1.879  12.105  1.5225  0.6812  0.5764
19476TIP3   OH279918   4.612   2.737  11.774  0.3711  0.6182 -0.2277
19476TIP3    H179919   4.517   2.738  11.767  0.1215  2.4148  2.0508
19476TIP3    H279920   4.636   2.644  11.770 -1.4606  0.1299 -0.7365
19477TIP3   OH279921   0.158   5.327  15.683 -0.0900 -0.0214 -0.4296
19477TIP3    H179922   0.094   5.374  15.629 -0.1428  0.3005 -0.0868
19477TIP3    H279923   0.107   5.262  15.731 -0.1065 -0.0089 -0.4308
19478TIP3   OH279924   0.883   5.166  14.843 -0.2082  0.1883  0.3633
19478TIP3    H179925   0.844   5.198  14.761 -0.5827  1.8065  1.1405
19478TIP3    H279926   0.975   5.151  14.821 -0.3664  0.3055 -0.4324
19479TIP3   OH279927   1.989   5.081  11.291 -0.2997 -0.1818  0.3155
19479TIP3    H179928   1.895   5.064  11.292 -0.4058  0.3099  2.6173
19479TIP3    H279929   1.997   5.175  11.306  0.5732 -0.3441  0.9197
19480TIP3   OH279930   3.625   4.829  14.143 -0.1121  0.7010 -0.0499
19480TIP3    H179931   3.638   4.922  14.162 -1.7312  0.5320  2.2528
19480TIP3    H279932   3.594   4.792  14.225  1.5171 -2.1331 -0.5842
19481TIP3   OH279933   5.562   6.721   0.044  0.3069 -0.3606 -0.1699
19481TIP3    H179934   5.586   6.753  -0.043 -0.6474 -0.3300 -0.4324
19481TIP3    H279935   5.556   6.801   0.097  0.2158 -0.3177 -0.2449
19482TIP3   OH279936   0.884   3.786  11.526 -0.3665  0.0709 -0.3675
19482TIP3    H179937   0.955   3.849  11.524  0.8983 -1.2728  0.3105
19482TIP3    H279938   0.863   3.775  11.619  0.2123 -1.3149 -0.3751
19483TIP3   OH279939   5.440   5.948  13.094 -0.3172 -0.8485 -0.5211
19483TIP3    H179940   5.463   5.981  13.007 -0.5945 -1.5179 -0.8546
19483TIP3    H279941   5.467   5.856  13.093 -0.5839 -0.9349 -0.0002
19484TIP3   OH279942   3.381   5.480  16.269 -0.6128 -0.5412 -0.1899
19484TIP3    H179943   3.327   5.558  16.282 -0.5996 -0.7106  1.0296
19484TIP3    H279944   3.435   5.500  16.193 -0.5494  0.6784  0.1527
19485TIP3   OH279945   5.099   0.103   1.305 -0.3870  0.0759  0.1070
19485TIP3    H179946   5.063   0.015   1.308  1.2706 -0.7415 -1.8320
19485TIP3    H279947   5.188   0.094   1.340  0.3390  0.6352 -1.5052
19486TIP3   OH279948   6.131   3.549  11.706 -0.3499 -0.4675 -0.7349
19486TIP3    H179949   6.093   3.519  11.623 -0.9196  1.0371 -1.0539
19486TIP3    H279950   6.058   3.545  11.768  0.3473 -2.6493  0.0085
19487TIP3   OH279951   3.508   2.615  12.544  0.5301  0.1845  0.5247
19487TIP3    H179952   3.440   2.674  12.574  0.2793  1.0609 -1.6319
19487TIP3    H279953   3.479   2.528  12.572  0.3993  0.9119  2.8251
19488TIP3   OH279954   2.453   3.588  13.615 -0.2435  0.1105  0.6615
19488TIP3    H179955   2.498   3.563  13.534 -1.2409 -0.6099  0.3027
19488TIP3    H279956   2.421   3.505  13.651  0.2736  0.4202  1.8547
19489TIP3   OH279957   4.297   2.610  11.200  0.0879  0.2106  0.6787
19489TIP3    H179958   4.274   2.540  11.139  0.4107  1.1623 -0.5702
19489TIP3    H279959   4.336   2.565  11.275  1.7459 -0.8592 -0.7755
19490TIP3   OH279960   4.719   6.253  16.109  0.6535  0.1507 -0.6837
19490TIP3    H179961   4.679   6.169  16.133  2.4056 -0.0439  1.8921
19490TIP3    H279962   4.781   6.231  16.040  1.2536 -0.7385  0.1187
19491TIP3   OH279963   2.150   5.032   4.757  0.1064 -0.2619  0.0272
19491TIP3    H179964   2.093   5.010   4.684 -0.1483 -0.6118  0.3252
19491TIP3    H279965   2.097   5.015   4.835  0.4602 -0.1497  0.2963
19492TIP3   OH279966   3.231   5.126   1.929  0.4535  0.4784  0.0149
19492TIP3    H179967   3.277   5.206   1.953  1.2513  0.3479 -1.0035
19492TIP3    H279968   3.140   5.142   1.953  0.8309  1.1704  1.0428
19493TIP3   OH279969   6.626   6.294   5.073  0.4865  0.2182 -0.5895
19493TIP3    H179970   6.712   6.333   5.063  1.8067 -2.9126 -3.6540
19493TIP3    H279971   6.568   6.350   5.020  1.1183  1.0126 -0.4511
19494TIP3   OH279972   5.966   2.875  13.761  0.2313  0.0043  0.0047
19494TIP3    H179973   5.956   2.951  13.703  1.0867  1.1667  1.3145
19494TIP3    H279974   5.988   2.912  13.846  0.4039 -1.7179  0.7563
19495TIP3   OH279975   2.088   5.493   0.260  0.2500 -0.2256  0.7854
19495TIP3    H179976   2.019   5.516   0.198 -0.5656  0.6256  1.9798
19495TIP3    H279977   2.149   5.567   0.258  1.4661 -1.1953 -0.6494
19496TIP3   OH279978   3.036   4.560   2.856  0.5966 -0.3880 -0.4802
19496TIP3    H179979   3.036   4.483   2.913  0.2629  1.5617  2.4040
19496TIP3    H279980   2.944   4.587   2.854  0.7882  0.2338 -0.9792
19497TIP3   OH279981   6.184   1.548   0.203 -0.1166  0.0465  0.3308
19497TIP3    H179982   6.103   1.599   0.201 -0.5680 -0.6104  1.1047
19497TIP3    H279983   6.201   1.533   0.296  0.2266 -0.8575  0.1358
19498TIP3   OH279984   5.064   2.259  16.698 -0.8329 -0.3443  0.1694
19498TIP3    H179985   5.048   2.169  16.725 -1.3612  0.7180  3.8701
19498TIP3    H279986   4.977   2.299  16.693 -0.4679  0.7836  2.0363
19499TIP3   OH279987   5.009   0.778   2.474 -0.4187 -0.1214 -0.1746
19499TIP3    H179988   5.010   0.702   2.416 -3.4241 -0.8699  0.5834
19499TIP3    H279989   5.027   0.742   2.561 -0.0077  0.3266 -0.0716
19500TIP3   OH279990   0.702   5.802   6.023  0.0991  0.1371  0.2496
19500TIP3    H179991   0.739   5.735   6.081 -0.5983 -1.6949 -1.3229
19500TIP3    H279992   0.610   5.779   6.016 -0.3646  1.8572  0.4013
19501TIP3   OH279993   2.826   2.370  15.765  0.0805 -0.1417  0.4893
19501TIP3    H179994   2.919   2.352  15.758 -0.2135 -1.6212 -0.1229
19501TIP3    H279995   2.788   2.286  15.792 -1.1096  0.3509  0.4163
19502TIP3   OH279996   1.148   2.452   5.552 -0.0227  0.3108 -0.5429
19502TIP3    H179997   1.140   2.396   5.475 -1.4818  0.0821 -0.2610
19502TIP3    H279998   1.154   2.541   5.516 -0.1099  0.1624 -0.9287
19503TIP3   OH279999   2.293   6.059   5.937 -0.1740 -0.1654  0.2943
19503TIP3    H180000   2.293   6.092   6.026 -0.0281 -1.4758  0.8007
19503TIP3    H280001   2.383   6.030   5.921 -0.3703 -0.6226 -0.0123
19504TIP3   OH280002   5.280   2.036   1.363  0.3494  0.5454 -0.0688
19504TIP3    H180003   5.226   2.010   1.287  0.7042  0.5363 -0.3189
19504TIP3    H280004   5.362   1.989   1.350  0.8940  1.5642 -0.3690
19505TIP3   OH280005   6.604   3.948   5.814 -0.6817  0.1030  0.3611
19505TIP3    H180006   6.657   3.872   5.838 -0.0101  0.4152 -0.1026
19505TIP3    H280007   6.631   3.969   5.725 -2.5849 -0.5578 -0.4154
19506TIP3   OH280008   1.219   5.072   1.786 -0.4385  0.1361  0.0702
19506TIP3    H180009   1.136   5.097   1.745  0.1368 -2.8166 -3.3990
19506TIP3    H280010   1.200   4.988   1.828  0.4256  0.2824  0.7783
19507TIP3   OH280011   1.342   1.768   4.389  0.3518  0.4424  0.2766
19507TIP3    H180012   1.425   1.737   4.425  1.3323  2.3271 -0.1811
19507TIP3    H280013   1.353   1.863   4.382 -1.2369  0.5790 -1.3007
19508TIP3   OH280014   0.615   0.498   0.956 -0.3926  0.0707  0.4548
19508TIP3    H180015   0.658   0.412   0.962 -0.3114  0.0780 -0.0161
19508TIP3    H280016   0.680   0.560   0.988 -0.0795  0.0709 -0.1726
19509TIP3   OH280017   3.149   1.857   0.064 -0.4383  0.3389 -0.8143
19509TIP3    H180018   3.107   1.894   0.142  0.0425  1.7116 -1.1744
19509TIP3    H280019   3.183   1.772   0.093 -0.2434  0.8334  0.4978
19510TIP3   OH280020   2.514   3.678  10.455  0.0413  0.1362  0.0139
19510TIP3    H180021   2.467   3.596  10.443  0.6458 -0.0564 -1.1886
19510TIP3    H280022   2.457   3.744  10.415 -0.5786  0.3623  1.2358
19511TIP3   OH280023   1.703   3.699   0.704 -0.0401 -0.1447  0.0803
19511TIP3    H180024   1.624   3.699   0.759  0.2245 -0.0520  0.4693
19511TIP3    H280025   1.711   3.609   0.674 -0.5114 -0.0673 -0.2765
19512TIP3   OH280026   2.042   5.985   5.241  0.0351 -0.2522 -0.1084
19512TIP3    H180027   2.100   5.923   5.285  1.1541  0.6317 -0.2888
19512TIP3    H280028   1.968   5.995   5.300 -1.1801 -3.2161 -0.9182
19513TIP3   OH280029   3.942   5.501   1.375 -0.2029 -0.2391 -0.6622
19513TIP3    H180030   3.934   5.442   1.450 -1.6429 -1.7534 -1.9124
19513TIP3    H280031   4.036   5.516   1.365  0.2674 -2.7079 -0.5278
19514TIP3   OH280032   0.744   2.939  10.711 -0.1230  0.0134 -0.0009
19514TIP3    H180033   0.692   2.984  10.777  0.6050  0.9542 -0.0411
19514TIP3    H280034   0.827   2.920  10.754  0.0377 -0.1532 -0.3747
19515TIP3   OH280035   4.840   5.165   6.211  0.1318 -0.4658 -0.4411
19515TIP3    H180036   4.868   5.120   6.290 -0.7386 -1.3863 -0.6286
19515TIP3    H280037   4.817   5.253   6.240  2.9401  0.2880 -0.2521
19516TIP3   OH280038   4.841   1.348  12.929  0.0447 -0.5286 -0.0130
19516TIP3    H180039   4.871   1.375  12.842 -1.4611 -0.2766 -0.4756
19516TIP3    H280040   4.797   1.425  12.965 -0.5915 -1.0581  0.3800
19517TIP3   OH280041   4.848   1.990   3.655  0.0082 -0.8192  0.1203
19517TIP3    H180042   4.853   1.897   3.680  1.5189 -1.2994 -1.7324
19517TIP3    H280043   4.850   1.989   3.560  1.7958  1.1765  0.0576
19518TIP3   OH280044   0.038   1.758  13.518  0.0703  0.1907  0.2004
19518TIP3    H180045   0.090   1.827  13.477  1.4554  0.1573  1.7795
19518TIP3    H280046  -0.033   1.804  13.562 -0.1992  0.4098 -0.4534
19519TIP3   OH280047   6.468   5.189   2.891  0.7849 -0.0078  0.1293
19519TIP3    H180048   6.500   5.217   2.806 -0.1156 -0.3880 -0.3441
19519TIP3    H280049   6.444   5.097   2.879 -0.4508  0.2468  0.4632
19520TIP3   OH280050   6.572   3.414   4.205  0.0271  0.4070  0.1199
19520TIP3    H180051   6.483   3.428   4.236 -0.1502  0.3651 -0.3745
19520TIP3    H280052   6.608   3.502   4.193 -0.1884  0.4260 -0.3814
19521TIP3   OH280053   3.717   4.469   3.923 -0.0771 -0.5969  0.1337
19521TIP3    H180054   3.772   4.412   3.976  0.3884  1.3368  1.8236
19521TIP3    H280055   3.753   4.461   3.834  2.6918  0.2386  1.0818
19522TIP3   OH280056   3.569   3.463   5.101 -0.1596  0.1645  0.3974
19522TIP3    H180057   3.567   3.419   5.186  1.4051  0.7177  0.7758
19522TIP3    H280058   3.523   3.546   5.116 -0.2306  0.0875  0.6039
19523TIP3   OH280059   2.422   4.434  12.427  0.4783 -0.3237  0.7250
19523TIP3    H180060   2.327   4.431  12.427  0.4592  0.1894  0.4377
19523TIP3    H280061   2.445   4.490  12.501  0.5256  0.2583  0.2781
19524TIP3   OH280062   1.686   1.755   6.410  0.2272  0.3457 -0.1438
19524TIP3    H180063   1.756   1.690   6.404 -0.2212 -0.4101  1.9483
19524TIP3    H280064   1.606   1.704   6.403 -0.1320  0.9361 -0.4094
19525TIP3   OH280065   5.110   4.793  11.671  0.0324 -0.5218  0.3863
19525TIP3    H180066   5.198   4.810  11.638 -0.4020  1.1470 -0.0113
19525TIP3    H280067   5.123   4.758  11.759  1.0752 -0.1900  0.3710
19526TIP3   OH280068   3.062   5.426  12.113  0.0743 -0.5070 -0.1465
19526TIP3    H180069   3.083   5.451  12.023  0.7942  1.5867  0.5478
19526TIP3    H280070   2.977   5.467  12.130 -0.5775 -1.7696 -0.1526
19527TIP3   OH280071   0.536   4.270   1.440 -0.7949  1.0219  0.3146
19527TIP3    H180072   0.561   4.179   1.460 -0.2569  1.3746  1.3359
19527TIP3    H280073   0.544   4.277   1.345  0.1365  0.2689  0.3195
19528TIP3   OH280074   3.935   3.855  17.089 -0.4558 -0.0262  0.5283
19528TIP3    H180075   3.920   3.945  17.058 -0.3440 -0.0624  0.3700
19528TIP3    H280076   3.863   3.804  17.051 -0.7634  0.0742  0.9681
19529TIP3   OH280077   4.713   6.323  12.442  0.1765  0.0436  0.2360
19529TIP3    H180078   4.788   6.378  12.463  1.1353 -0.9428 -0.5212
19529TIP3    H280079   4.642   6.386  12.425  1.5722  1.1787 -1.9335
19530TIP3   OH280080   2.053   2.379  15.892  0.3642 -0.1545  0.1527
19530TIP3    H180081   2.142   2.346  15.901  0.3513 -0.0306  0.8111
19530TIP3    H280082   2.051   2.420  15.805  0.8564 -0.4199  0.0124
19531TIP3   OH280083   5.023   6.809   2.799  0.4645 -0.2050 -0.3333
19531TIP3    H180084   5.001   6.773   2.713  0.9418  0.3257 -0.6809
19531TIP3    H280085   4.945   6.792   2.852  0.9844 -2.5320 -0.2217
19532TIP3   OH280086   3.701   0.091   1.725  0.0855 -0.2967  0.2199
19532TIP3    H180087   3.649   0.139   1.662  0.6900  1.0623  0.7174
19532TIP3    H280088   3.657   0.007   1.734 -0.8698  0.0719 -0.8474
19533TIP3   OH280089   4.496   4.431  16.815  0.2703  0.7213  0.1658
19533TIP3    H180090   4.517   4.467  16.729  0.4404  0.9430  0.2984
19533TIP3    H280091   4.521   4.500  16.877 -2.3137  1.6489  0.2678
19534TIP3   OH280092   0.844   5.471  14.244  0.0019 -0.0712  0.1862
19534TIP3    H180093   0.761   5.467  14.292 -1.3917 -0.7176 -2.1102
19534TIP3    H280094   0.885   5.386  14.260 -0.2158 -0.0986  0.6028
19535TIP3   OH280095   1.306   6.632  15.511  0.0894 -0.1471 -0.5969
19535TIP3    H180096   1.223   6.678  15.521 -0.2798 -0.6899 -1.0779
19535TIP3    H280097   1.306   6.567  15.581  0.1170 -0.1377 -0.5885
19536TIP3   OH280098   4.287   4.713  14.126  0.2858 -0.4132  0.4218
19536TIP3    H180099   4.366   4.700  14.179  0.4856  0.2816  0.3007
19536TIP3    H280100   4.296   4.801  14.090 -0.5490 -0.3253  0.4036
19537TIP3   OH280101   3.848   4.058  11.975  0.1776 -0.0288 -0.6481
19537TIP3    H180102   3.781   4.045  11.908 -0.8800 -0.8537  0.5361
19537TIP3    H280103   3.883   3.970  11.991  0.2037  0.1150  0.0973
19538TIP3   OH280104   5.017   3.835  16.003 -0.0055 -0.1770 -0.2621
19538TIP3    H180105   4.981   3.766  15.948 -2.9272  1.2870 -0.3778
19538TIP3    H280106   4.945   3.860  16.061  1.0234  2.4562  0.0347
19539TIP3   OH280107   1.954   0.504   3.507 -0.0558  0.4566 -0.0427
19539TIP3    H180108   1.936   0.412   3.530  2.1468 -0.3336 -1.1466
19539TIP3    H280109   1.915   0.554   3.578 -0.0034 -1.4360  1.4201
19540TIP3   OH280110   5.538   3.681   2.824  0.4057 -0.0734 -0.2687
19540TIP3    H180111   5.621   3.635   2.816  0.3076 -0.2770 -0.1029
19540TIP3    H280112   5.512   3.700   2.734  1.5457  1.6276 -0.2906
19541TIP3   OH280113   3.669   3.867  16.502 -0.4292 -0.1101  0.2149
19541TIP3    H180114   3.603   3.876  16.434 -0.9928 -0.3641  0.7183
19541TIP3    H280115   3.751   3.894  16.460 -1.0193  1.2771 -0.1015
19542TIP3   OH280116   0.715   4.037  10.932  0.2040 -0.3152  0.0286
19542TIP3    H180117   0.808   4.058  10.932  0.5789 -1.8681 -0.1110
19542TIP3    H280118   0.706   3.969  10.999 -0.8008 -0.3128 -0.0877
19543TIP3   OH280119   5.430   3.636   0.407 -0.4606 -0.2379 -0.3164
19543TIP3    H180120   5.445   3.729   0.388 -0.6989  0.0218  0.6786
19543TIP3    H280121   5.402   3.635   0.498  0.4325 -1.3773 -0.0267
19544TIP3   OH280122   6.713   4.418  11.275  0.0922  0.5471 -0.2880
19544TIP3    H180123   6.732   4.484  11.208 -0.0109  0.8043 -0.0630
19544TIP3    H280124   6.624   4.438  11.303  0.4425  0.9666  0.5361
19545TIP3   OH280125   5.365   4.386   3.562 -0.3500 -0.3566  0.0559
19545TIP3    H180126   5.377   4.410   3.654  1.0387 -0.7272  0.0027
19545TIP3    H280127   5.422   4.310   3.550 -1.5751 -1.1869 -0.7824
19546TIP3   OH280128   4.024   2.334  14.105  1.5573 -0.3817  0.5927
19546TIP3    H180129   4.006   2.419  14.066  1.3899 -0.8339 -0.3610
19546TIP3    H280130   4.116   2.317  14.083  1.1419 -1.1447 -0.6329
19547TIP3   OH280131   2.250   1.519  16.575 -0.1466  0.1443  0.5517
19547TIP3    H180132   2.225   1.610  16.562 -1.6419 -0.3873 -0.5125
19547TIP3    H280133   2.329   1.509  16.522 -0.0246  0.7874  0.5982
19548TIP3   OH280134   6.013   3.622  12.848 -0.0460 -0.6203  0.2799
19548TIP3    H180135   6.109   3.623  12.855 -0.0791 -0.7497  0.8085
19548TIP3    H280136   5.994   3.679  12.774  0.5055 -1.8233 -0.8214
19549TIP3   OH280137   6.839   3.703   5.885 -0.3399  0.0365  0.8656
19549TIP3    H180138   6.831   3.673   5.795 -2.7195 -2.1535  1.6841
19549TIP3    H280139   6.887   3.634   5.930  1.1570  1.2822  1.2789
19550TIP3   OH280140   1.802   3.546  14.074  0.4573 -0.3841  0.2197
19550TIP3    H180141   1.866   3.615  14.053  1.1916 -0.5691  1.6801
19550TIP3    H280142   1.721   3.575  14.032  0.4970  1.8742  1.4985
19551TIP3   OH280143   3.893   1.973   2.437 -0.3162  0.6872 -0.0451
19551TIP3    H180144   3.970   2.029   2.444  0.1512  0.2000 -1.1676
19551TIP3    H280145   3.928   1.887   2.412 -1.1551  0.2580  0.2207
19552TIP3   OH280146   0.825   5.583  15.218  0.0868  0.1998 -0.2959
19552TIP3    H180147   0.837   5.645  15.290 -2.2925 -0.0173  0.3787
19552TIP3    H280148   0.895   5.519  15.229  1.3524  1.6294  0.2162
19553TIP3   OH280149   0.475   4.172   1.758  0.0515 -0.4362 -0.1981
19553TIP3    H180150   0.459   4.264   1.781  0.0237 -0.8216  1.4532
19553TIP3    H280151   0.521   4.136   1.834  1.0769 -1.5204 -1.2868
19554TIP3   OH280152   0.684   1.943  14.980  0.1493  0.1449  0.3933
19554TIP3    H180153   0.765   1.957  15.028 -0.1745 -0.0260  0.9965
19554TIP3    H280154   0.624   2.009  15.015 -1.2842 -2.3318  2.9776
19555TIP3   OH280155   0.083   1.523   3.235  0.4207 -0.4278 -0.0640
19555TIP3    H180156   0.128   1.547   3.154  1.8881 -1.2929  0.4573
19555TIP3    H280157   0.125   1.576   3.303 -2.1653  1.8423 -0.0507
19556TIP3   OH280158   6.401   2.796  14.986 -0.3505 -0.2654  0.1285
19556TIP3    H180159   6.481   2.841  14.959  0.1764 -0.1165  1.8309
19556TIP3    H280160   6.429   2.735  15.053 -1.7965  0.6137  1.6253
19557TIP3   OH280161   4.828   2.530   1.146 -0.1163  0.1741  0.1447
19557TIP3    H180162   4.921   2.526   1.166 -0.1752  0.5165  0.4913
19557TIP3    H280163   4.819   2.481   1.064  0.2545 -0.4942  0.4967
19558TIP3   OH280164   1.257   1.737  11.566  0.0694 -0.2827  0.1538
19558TIP3    H180165   1.262   1.679  11.491 -0.8457  0.3334 -0.4086
19558TIP3    H280166   1.322   1.805  11.549 -0.1774 -0.1122 -0.1209
19559TIP3   OH280167   4.253   1.189   4.444 -0.6239 -0.1064 -0.7735
19559TIP3    H180168   4.270   1.198   4.350 -0.2963  2.4964 -0.5291
19559TIP3    H280169   4.339   1.173   4.483 -0.6537 -0.3889 -0.8173
19560TIP3   OH280170   1.570   3.093   5.110  0.6000  0.2544  0.5060
19560TIP3    H180171   1.604   3.177   5.141  0.5604  1.0090 -1.3659
19560TIP3    H280172   1.647   3.036   5.104  0.5099 -0.1661  2.5955
19561TIP3   OH280173   1.812   2.019  13.192 -0.1283 -0.0235  0.2076
19561TIP3    H180174   1.887   2.078  13.184 -0.1102  0.2047  1.8521
19561TIP3    H280175   1.826   1.954  13.122  2.1761 -0.6045  1.1136
19562TIP3   OH280176   2.568   2.422   2.160  0.2620  0.0884  0.5242
19562TIP3    H180177   2.616   2.504   2.168  0.1115  0.2135  0.1572
19562TIP3    H280178   2.631   2.360   2.125  0.0952  0.3190 -0.2095
19563TIP3   OH280179   6.375   6.374   5.296  0.3175 -0.5894  0.1124
19563TIP3    H180180   6.413   6.287   5.309 -1.9485 -1.7367 -0.4531
19563TIP3    H280181   6.376   6.386   5.201  1.0568  0.2297  0.2178
19564TIP3   OH280182   0.334   3.469   3.633  0.0105 -0.0408  0.4566
19564TIP3    H180183   0.338   3.442   3.725  1.2063 -1.3252  0.0681
19564TIP3    H280184   0.394   3.543   3.627  0.3421 -0.2911  0.6233
19565TIP3   OH280185   2.474   5.305  14.096  0.1022 -0.6427 -1.2986
19565TIP3    H180186   2.513   5.250  14.028  0.7399 -0.0185 -1.4500
19565TIP3    H280187   2.547   5.333  14.150 -0.3255 -0.6285 -0.7198
19566TIP3   OH280188   2.500   1.925  10.982 -0.1322 -0.5049  0.0272
19566TIP3    H180189   2.474   2.007  11.023 -1.7763 -1.2894  0.6366
19566TIP3    H280190   2.472   1.934  10.891  1.1372  0.1972 -0.3261
19567TIP3   OH280191   3.418   5.865  16.600  0.3568 -0.4939  0.7814
19567TIP3    H180192   3.345   5.879  16.540  0.4073 -1.2075  0.5504
19567TIP3    H280193   3.387   5.800  16.662  0.8866 -1.0147  0.5129
19568TIP3   OH280194   6.291   1.799   1.306  0.0275  0.6877 -0.4677
19568TIP3    H180195   6.329   1.886   1.296  1.0678  0.3007 -0.1090
19568TIP3    H280196   6.230   1.808   1.380  2.2279  0.5283  1.5148
19569TIP3   OH280197   2.781   2.794   1.219  0.1903  0.3199  0.3342
19569TIP3    H180198   2.733   2.820   1.141 -0.2855 -0.8920  0.1956
19569TIP3    H280199   2.765   2.864   1.282 -1.7148  0.0115  0.2559
19570TIP3   OH280200   0.113   4.180  11.680  0.0911  0.0578 -0.0841
19570TIP3    H180201   0.125   4.196  11.586  2.5277  0.3137  0.2142
19570TIP3    H280202   0.098   4.086  11.686 -0.0763  0.0366 -0.7282
19571TIP3   OH280203   5.940   2.293  16.134  0.1706 -0.1310 -0.9681
19571TIP3    H180204   5.947   2.264  16.225 -2.0946  0.4090 -0.5633
19571TIP3    H280205   5.980   2.380  16.133  0.7080 -0.3741 -0.6171
19572TIP3   OH280206   2.739   4.486  15.025 -0.0896 -0.3803  0.0799
19572TIP3    H180207   2.711   4.561  15.077  0.4459 -1.2955  1.7486
19572TIP3    H280208   2.658   4.442  15.001 -0.4422  0.9094 -1.2768
19573TIP3   OH280209   2.096   1.253   1.416 -0.3275 -0.0141  0.4200
19573TIP3    H180210   2.122   1.271   1.325 -1.1406 -1.6804 -0.1860
19573TIP3    H280211   2.054   1.167   1.412  1.8401 -1.3202  2.7933
19574TIP3   OH280212   2.696   2.352  11.442  0.3095 -0.7921  0.2243
19574TIP3    H180213   2.695   2.447  11.434  0.9919 -0.8422 -0.5578
19574TIP3    H280214   2.636   2.321  11.374  0.5862 -0.9513  0.0536
19575TIP3   OH280215   2.780   5.507   3.286 -0.3015  0.2791  0.6768
19575TIP3    H180216   2.859   5.496   3.339  1.2033 -1.0631 -1.6694
19575TIP3    H280217   2.724   5.434   3.312  1.6792 -2.1853 -1.4934
19576TIP3   OH280218   2.661   0.887  14.683 -0.2327 -0.1272 -0.6481
19576TIP3    H180219   2.614   0.914  14.762 -0.0701 -1.0134 -0.2377
19576TIP3    H280220   2.602   0.910  14.611 -2.1816 -2.8658 -0.0587
19577TIP3   OH280221   4.120   0.050   5.194  0.0028 -0.1958  0.0567
19577TIP3    H180222   4.054   0.056   5.262  0.4415  2.1266  0.3517
19577TIP3    H280223   4.071   0.043   5.112 -0.5862  0.2930  0.3671
19578TIP3   OH280224   5.735   5.965   5.884 -0.0935  0.2993 -0.5251
19578TIP3    H180225   5.696   5.879   5.872 -1.1646  0.7608 -0.4406
19578TIP3    H280226   5.751   5.971   5.978 -2.6220  1.2396 -0.0699
19579TIP3   OH280227   1.426   2.142  14.787 -0.3000 -0.3526 -0.5849
19579TIP3    H180228   1.446   2.071  14.726  1.2305  0.8535 -1.5577
19579TIP3    H280229   1.421   2.220  14.733  0.8077  0.7100  0.7699
19580TIP3   OH280230   3.696   5.175  13.609  0.1292  0.0880  0.0422
19580TIP3    H180231   3.733   5.124  13.537 -1.5043 -0.6359 -0.3385
19580TIP3    H280232   3.673   5.259  13.569  0.9193  0.3663  0.1688
19581TIP3   OH280233   1.594   2.658   1.481  0.1946 -0.0460 -0.1555
19581TIP3    H180234   1.658   2.661   1.410  0.2995  0.1505 -0.0529
19581TIP3    H280235   1.545   2.740   1.472  1.5932  1.0162  1.2894
19582TIP3   OH280236   2.015   6.489  11.908  0.2410 -0.3303  0.1156
19582TIP3    H180237   1.943   6.433  11.937  0.5500 -0.3760  0.7990
19582TIP3    H280238   2.033   6.460  11.818  0.3456 -1.2718  0.4334
19583TIP3   OH280239   0.358   5.771  14.363 -0.2947 -0.0449  0.5183
19583TIP3    H180240   0.370   5.714  14.439 -1.0666  0.3638  0.9594
19583TIP3    H280241   0.285   5.732  14.315  2.0566 -2.0925 -1.7435
19584TIP3   OH280242   3.911   4.759  16.025  0.1939 -0.2563  0.0887
19584TIP3    H180243   3.878   4.740  15.937 -1.3090 -0.9682  0.7765
19584TIP3    H280244   3.875   4.845  16.047 -0.2916 -0.5372  0.4044
19585TIP3   OH280245   5.824   1.850   4.284 -0.0528  0.6522  0.1577
19585TIP3    H180246   5.918   1.843   4.299 -0.1077 -1.2963 -0.1059
19585TIP3    H280247   5.803   1.942   4.302  1.4437  0.5888  2.6628
19586TIP3   OH280248   3.312   3.544   4.524 -0.8235  0.4410 -0.1531
19586TIP3    H180249   3.348   3.510   4.606  1.4513  2.0888 -0.3832
19586TIP3    H280250   3.296   3.466   4.471  0.0311 -0.5244  0.9418
19587TIP3   OH280251   0.111   4.296  15.599 -0.4124  0.0863 -0.0132
19587TIP3    H180252   0.179   4.271  15.536 -1.1379 -0.0650 -0.7664
19587TIP3    H280253   0.146   4.272  15.684  0.3986 -0.1642 -0.4092
19588TIP3   OH280254   6.697   2.374   0.396 -0.4072  0.2946 -0.0547
19588TIP3    H180255   6.761   2.372   0.325 -0.5739 -3.1715 -0.2820
19588TIP3    H280256   6.749   2.383   0.476  0.0724  0.5553 -0.3891
19589TIP3   OH280257   2.586   0.426  16.506  0.3557 -0.3796  0.0259
19589TIP3    H180258   2.613   0.510  16.470 -0.3211 -0.2018 -0.0917
19589TIP3    H280259   2.614   0.362  16.441 -0.1300 -0.1348 -0.4285
19590TIP3   OH280260   6.790   0.339  16.332  0.4509 -0.8670  0.2337
19590TIP3    H180261   6.807   0.279  16.259  2.0794  0.0228 -0.1632
19590TIP3    H280262   6.871   0.340  16.382 -0.2045 -0.4428  1.3196
19591TIP3   OH280263   1.589   6.821  13.405  0.2435  0.5261 -0.2881
19591TIP3    H180264   1.682   6.840  13.396  0.8893 -1.6915  0.9494
19591TIP3    H280265   1.572   6.751  13.342  0.0649 -0.8331  1.1915
19592TIP3   OH280266   2.413   2.066  16.016  0.4098 -0.3974 -0.0248
19592TIP3    H180267   2.496   2.048  15.974 -0.0453 -0.9223 -0.7171
19592TIP3    H280268   2.409   2.161  16.022  0.4952 -0.3108 -1.1550
19593TIP3   OH280269   5.807   3.509  14.896 -0.1934  0.3904  0.5152
19593TIP3    H180270   5.786   3.564  14.971 -0.3246  1.1539 -0.0752
19593TIP3    H280271   5.862   3.564  14.840 -0.3900 -0.0528 -0.1206
19594TIP3   OH280272   1.634   6.172  11.861 -0.4058  0.1021 -0.3063
19594TIP3    H180273   1.606   6.083  11.841 -0.3061  0.0130 -0.0562
19594TIP3    H280274   1.581   6.228  11.804 -0.1586 -0.1422 -0.7729
19595TIP3   OH280275   0.606   3.898  17.043 -0.5174  0.2271 -0.3364
19595TIP3    H180276   0.590   3.960  17.114 -0.3823 -0.1440  0.0218
19595TIP3    H280277   0.569   3.940  16.965  1.6162  1.8101 -0.5796
19596TIP3   OH280278   0.006   3.639   1.980  0.1840  0.0051  0.7006
19596TIP3    H180279  -0.061   3.687   2.029  0.1891 -0.9311  1.6716
19596TIP3    H280280   0.023   3.693   1.903 -1.8022  0.1991  0.3470
19597TIP3   OH280281   1.659   2.579  12.226  0.0909  0.4343 -0.4126
19597TIP3    H180282   1.732   2.613  12.279  1.6518 -1.8936 -0.9339
19597TIP3    H280283   1.594   2.649  12.229  1.4189  1.7226  1.9147
19598TIP3   OH280284   4.329   6.582  16.779  0.2819  0.0998 -0.2952
19598TIP3    H180285   4.256   6.623  16.733 -0.0385 -0.7537 -0.5672
19598TIP3    H280286   4.371   6.654  16.827 -0.6558  0.6173 -0.2390
19599TIP3   OH280287   2.026   4.758   3.004  0.4076 -0.3631 -0.0356
19599TIP3    H180288   2.046   4.823   2.937  0.4230 -0.1487  0.1745
19599TIP3    H280289   2.102   4.699   3.004  0.1250 -0.7325 -0.6381
19600TIP3   OH280290   3.354   1.160  13.550  0.0330  0.0622 -0.0409
19600TIP3    H180291   3.417   1.110  13.601 -0.9790 -1.1301  0.1059
19600TIP3    H280292   3.268   1.127  13.578 -0.5929  0.1976 -1.6467
19601TIP3   OH280293   4.648   0.271   1.741 -0.7687  0.6972 -0.1721
19601TIP3    H180294   4.643   0.329   1.818  0.1793  0.6068 -0.0347
19601TIP3    H280295   4.557   0.246   1.725 -0.9476  0.3446  1.2068
19602TIP3   OH280296   4.226   3.770   5.788  0.0688 -0.0981 -0.6110
19602TIP3    H180297   4.312   3.728   5.795  1.0098  1.9253  0.9868
19602TIP3    H280298   4.232   3.822   5.708  0.7979  0.9199  0.0762
19603TIP3   OH280299   4.802   1.469  13.668 -0.1627  0.4730 -0.3691
19603TIP3    H180300   4.864   1.500  13.734  0.8251  1.4164 -1.6862
19603TIP3    H280301   4.810   1.532  13.597 -2.8023  0.7319 -0.5180
19604TIP3   OH280302   1.982   0.891  14.618 -0.1605  0.0020 -0.0443
19604TIP3    H180303   2.078   0.881  14.622 -0.0450  0.4668 -1.1576
19604TIP3    H280304   1.967   0.934  14.534 -1.3441  0.1157  0.2169
19605TIP3   OH280305   6.259   6.826   1.940  0.4119  0.4722  0.1844
19605TIP3    H180306   6.345   6.867   1.932  1.5691 -1.7990  0.0375
19605TIP3    H280307   6.269   6.764   2.013 -0.0193 -2.1530 -1.8235
19606TIP3   OH280308   6.670   3.811  13.879 -0.0066 -0.0017 -0.1939
19606TIP3    H180309   6.633   3.767  13.802  2.4690 -0.5275 -1.1657
19606TIP3    H280310   6.745   3.859  13.846 -0.2690  1.7508  1.5492
19607TIP3   OH280311   3.393   1.700   1.653 -0.0225  0.6106 -0.4796
19607TIP3    H180312   3.480   1.737   1.638  0.8846 -1.7692 -1.5435
19607TIP3    H280313   3.388   1.689   1.748  0.9399  0.5565 -0.4268
19608TIP3   OH280314   3.313   6.478   5.347  0.4987 -0.2003  0.0106
19608TIP3    H180315   3.407   6.470   5.362  0.5373  0.6192  0.2612
19608TIP3    H280316   3.283   6.541   5.412  0.0530  0.7448 -1.0712
19609TIP3   OH280317   3.549   1.979  11.279  0.2881 -0.3753  0.3433
19609TIP3    H180318   3.483   2.017  11.336 -0.7092 -1.6325  0.0578
19609TIP3    H280319   3.632   2.002  11.320 -0.2949  1.2108  0.7144
19610TIP3   OH280320   5.452   5.236   3.830 -0.2257 -0.4522  0.3296
19610TIP3    H180321   5.478   5.323   3.859  1.5297 -1.1712  1.0643
19610TIP3    H280322   5.511   5.217   3.757  0.5474 -1.6531  1.2281
19611TIP3   OH280323   6.421   4.020  10.939 -0.5280 -0.4598  0.2083
19611TIP3    H180324   6.516   4.031  10.938 -0.0578 -3.3181  1.9662
19611TIP3    H280325   6.387   4.108  10.957  1.8618  0.3385  1.2705
19612TIP3   OH280326   2.125   0.426   4.169 -0.3149  0.1254  0.1418
19612TIP3    H180327   2.149   0.509   4.211 -2.3754  2.6940 -3.2492
19612TIP3    H280328   2.205   0.398   4.125  0.1746  0.7146  0.6367
19613TIP3   OH280329   1.220   0.219  13.679  0.3428  0.2266  0.5236
19613TIP3    H180330   1.306   0.180  13.667  0.3028  0.4068 -0.4611
19613TIP3    H280331   1.178   0.211  13.593 -2.2123 -3.5567  1.8869
19614TIP3   OH280332   6.308   0.994   4.472  0.3091  0.0085 -0.3361
19614TIP3    H180333   6.301   0.914   4.419 -0.7153  0.1049 -0.3616
19614TIP3    H280334   6.397   1.025   4.455  0.2663 -0.3835 -1.3991
19615TIP3   OH280335   5.795   1.325   4.145 -0.3155  0.0968  0.1029
19615TIP3    H180336   5.790   1.403   4.201 -1.3056 -0.2491  0.5203
19615TIP3    H280337   5.726   1.338   4.080  0.3941  0.1838 -0.6391
19616TIP3   OH280338   3.171   1.931   3.089  0.6584 -0.2156 -0.4352
19616TIP3    H180339   3.229   1.892   3.155 -0.2128 -1.2522 -0.2482
19616TIP3    H280340   3.172   2.024   3.108  1.8257 -0.2880 -0.0890
19617TIP3   OH280341   4.871   5.959  16.755 -0.0698 -0.3384 -0.0803
19617TIP3    H180342   4.810   6.027  16.728 -3.0787 -2.1021  1.7986
19617TIP3    H280343   4.866   5.893  16.686  1.4058  0.3701 -0.9393
19618TIP3   OH280344   2.195   6.342  12.868  0.8194 -0.5742  0.1349
19618TIP3    H180345   2.267   6.279  12.868  0.6129 -0.9872  3.4030
19618TIP3    H280346   2.116   6.288  12.876  0.3611 -0.0174 -0.5176
19619TIP3   OH280347   3.745   3.252  11.358  0.3795 -0.4257 -0.6838
19619TIP3    H180348   3.799   3.258  11.437  0.5210 -0.7222 -0.7550
19619TIP3    H280349   3.763   3.333  11.310  0.3627 -0.2872 -0.4551
19620TIP3   OH280350   6.529   1.844  12.054  0.0293 -0.2907 -0.2597
19620TIP3    H180351   6.538   1.919  12.114 -0.6736 -1.6862  1.6975
19620TIP3    H280352   6.435   1.829  12.049  0.1538 -0.9527 -0.7480
19621TIP3   OH280353   4.000   3.609  15.625 -0.2069  0.2513 -0.3104
19621TIP3    H180354   4.014   3.683  15.566  2.6942 -0.3243 -0.4938
19621TIP3    H280355   4.088   3.583  15.653 -1.2556 -1.7827  1.4525
19622TIP3   OH280356   2.679   1.592   5.010  0.0551 -0.1887 -0.0782
19622TIP3    H180357   2.592   1.605   4.971  0.1257  0.5023 -0.0161
19622TIP3    H280358   2.694   1.671   5.061  1.2604  0.2718 -1.0887
19623TIP3   OH280359   3.599   3.306   2.701  0.4737 -0.7026  0.2434
19623TIP3    H180360   3.680   3.331   2.747  1.8900 -0.7521 -2.0768
19623TIP3    H280361   3.536   3.291   2.772  1.5431  2.3660  2.0821
19624TIP3   OH280362   0.954   5.716   0.102 -0.1575  0.4830 -0.0111
19624TIP3    H180363   1.048   5.723   0.091 -0.2822 -0.5179 -1.9379
19624TIP3    H280364   0.940   5.734   0.195  1.6630  3.0583 -0.1201
19625TIP3   OH280365   1.734   0.034  13.870  0.4574 -0.2168  0.5520
19625TIP3    H180366   1.722   0.129  13.868  0.4552 -0.2183  0.4925
19625TIP3    H280367   1.645  -0.001  13.861  0.4250 -0.2233  0.8748
19626TIP3   OH280368   2.285   5.058  16.801  0.5670 -0.8470 -0.8368
19626TIP3    H180369   2.210   5.011  16.765  0.4665  0.4466 -2.4081
19626TIP3    H280370   2.358   5.036  16.743  0.9092 -0.4347 -0.5739
19627TIP3   OH280371   5.158   3.287  14.985  0.6314  0.3402  0.3340
19627TIP3    H180372   5.076   3.330  15.008  1.1625  2.1286 -0.8710
19627TIP3    H280373   5.224   3.356  14.996  1.6208 -0.3276 -1.1421
19628TIP3   OH280374   5.828   6.701   2.250 -0.2967  0.1311 -0.0473
19628TIP3    H180375   5.752   6.725   2.302 -0.0080 -1.1562  1.0284
19628TIP3    H280376   5.821   6.755   2.171 -1.5380  1.0632  0.6604
19629TIP3   OH280377   6.097   4.865   4.302  0.2220 -0.0453  0.2976
19629TIP3    H180378   6.010   4.826   4.312  0.3872 -1.4549 -2.6426
19629TIP3    H280379   6.095   4.905   4.215  1.7069  2.2437  1.2402
19630TIP3   OH280380   4.627   5.094   0.016  0.1251 -0.5030  0.5192
19630TIP3    H180381   4.650   5.149  -0.059 -1.4308  0.1373  0.4620
19630TIP3    H280382   4.697   5.109   0.079  0.8709 -0.1686 -0.3527
19631TIP3   OH280383   4.686   2.531   2.496  0.1044 -0.2363  0.1043
19631TIP3    H180384   4.750   2.564   2.433 -1.4032  0.1725 -1.2449
19631TIP3    H280385   4.738   2.513   2.575  1.5301  2.1493 -0.2088
19632TIP3   OH280386   1.148   2.432   1.708 -0.2231 -0.1400 -0.1995
19632TIP3    H180387   1.088   2.386   1.649  0.8069  0.2723 -1.6507
19632TIP3    H280388   1.224   2.451   1.653 -0.0142  2.0114  0.7536
19633TIP3   OH280389   2.108   5.454  11.570 -0.1324  0.1095 -0.2823
19633TIP3    H180390   2.159   5.469  11.490 -0.9349 -0.2465 -0.8754
19633TIP3    H280391   2.117   5.360  11.587  0.6289  0.3109  0.4641
19634TIP3   OH280392   3.767   1.208   0.592  0.7064  0.0749 -0.2249
19634TIP3    H180393   3.790   1.156   0.670 -0.5499 -0.9118 -0.4860
19634TIP3    H280394   3.689   1.257   0.618  1.1246  0.8726 -0.4154
19635TIP3   OH280395   6.479   5.110   4.920 -0.0436 -0.9323  0.8412
19635TIP3    H180396   6.462   5.130   5.012 -1.2513  1.1927  0.2270
19635TIP3    H280397   6.574   5.112   4.913  0.0852 -1.3659  2.0616
19636TIP3   OH280398   5.975   3.222  12.866 -0.2202  0.4030 -0.1952
19636TIP3    H180399   5.933   3.177  12.939 -0.2820  0.2964 -0.2967
19636TIP3    H280400   6.062   3.246  12.900 -0.0866 -0.0260 -0.2236
19637TIP3   OH280401   2.660   4.021   1.584  0.2508  0.2131 -0.0801
19637TIP3    H180402   2.614   4.022   1.501 -0.9245  0.0241  0.5467
19637TIP3    H280403   2.661   3.929   1.611  0.3104  0.3160  0.2821
19638TIP3   OH280404   6.789   5.227  11.642  0.2102 -0.0230  0.2986
19638TIP3    H180405   6.831   5.291  11.699  1.1679 -0.8831  0.5968
19638TIP3    H280406   6.695   5.234  11.663  0.2694  1.3947  0.1729
19639TIP3   OH280407   4.928   3.295   4.704 -0.4033  0.5063  0.3120
19639TIP3    H180408   5.021   3.273   4.703 -0.0417  1.9165  0.2987
19639TIP3    H280409   4.907   3.311   4.796 -1.2230 -1.9824  0.6214
19640TIP3   OH280410   5.258   6.725  15.872 -0.1936 -0.1303 -0.2286
19640TIP3    H180411   5.244   6.684  15.787  0.4102 -2.8029  0.8723
19640TIP3    H280412   5.348   6.702  15.895 -0.7148 -0.4602  1.6218
19641TIP3   OH280413   1.991   1.002  13.488 -0.7228 -0.0332 -0.1769
19641TIP3    H180414   1.972   1.013  13.581 -0.0205 -1.1638  0.1214
19641TIP3    H280415   1.931   1.062  13.444 -2.5747 -1.0165  0.8911
19642TIP3   OH280416   2.539   4.594   2.229  0.3248  0.3601 -0.6987
19642TIP3    H180417   2.511   4.504   2.210 -0.0627 -0.7031  3.7270
19642TIP3    H280418   2.472   4.649   2.188 -1.8512 -1.6367 -0.0794
19643TIP3   OH280419   2.690   6.303  11.822 -0.1193 -0.5104  0.4015
19643TIP3    H180420   2.720   6.248  11.895 -2.5031  0.5702  2.3369
19643TIP3    H280421   2.677   6.389  11.861  0.1354  0.5774 -1.7543
19644TIP3   OH280422   2.387   3.158   1.624 -0.4699  0.3752 -0.4066
19644TIP3    H180423   2.364   3.202   1.706  0.8536  0.6193 -0.1544
19644TIP3    H280424   2.372   3.224   1.556  0.6993  0.9597 -0.1138
19645TIP3   OH280425   4.207   2.480  12.734 -0.2785 -0.5479 -0.0090
19645TIP3    H180426   4.180   2.559  12.780 -1.1824 -0.8010 -0.0854
19645TIP3    H280427   4.288   2.504  12.689 -1.6604  1.0260 -1.8368
19646TIP3   OH280428   1.031   3.738  14.595 -0.0734 -0.0633  0.0396
19646TIP3    H180429   0.983   3.695  14.666  0.3747  0.4673  0.6764
19646TIP3    H280430   0.979   3.815  14.573  0.5935  0.6618  0.9154
19647TIP3   OH280431   3.118   5.569  14.449 -0.4296  0.1713 -0.0025
19647TIP3    H180432   3.194   5.526  14.488  0.2792  3.6295  3.0482
19647TIP3    H280433   3.052   5.570  14.518 -1.5143  1.2235 -0.9919
19648TIP3   OH280434   4.949   5.144   2.594 -0.4360  0.4460  0.0267
19648TIP3    H180435   4.857   5.116   2.598 -0.0587 -0.7765  0.3747
19648TIP3    H280436   4.984   5.122   2.680  0.5210 -0.2705 -0.5388
19649TIP3   OH280437   0.696   4.188   4.555  0.0048  0.1235 -0.1998
19649TIP3    H180438   0.685   4.222   4.644  1.3681 -0.0589  0.0475
19649TIP3    H280439   0.637   4.242   4.502 -2.0775 -0.8040  1.0124
19650TIP3   OH280440   6.550   1.429  14.421  0.4479  0.1447 -0.3349
19650TIP3    H180441   6.630   1.468  14.455  2.0529 -2.3284 -1.0492
19650TIP3    H280442   6.488   1.435  14.493  2.3500 -0.9404  1.5006
19651TIP3   OH280443   4.948   3.499  14.806 -0.3245  0.0457  0.1699
19651TIP3    H180444   5.043   3.517  14.806 -0.0229 -1.4164 -0.0660
19651TIP3    H280445   4.938   3.431  14.873 -1.0217 -0.7080 -0.6939
19652TIP3   OH280446   1.220   6.794   4.763  0.2212 -0.9064  0.4712
19652TIP3    H180447   1.210   6.758   4.851  1.2540 -1.0002  0.5654
19652TIP3    H280448   1.144   6.851   4.751 -0.1904 -1.2836  1.2286
19653TIP3   OH280449   4.578   0.790  17.186 -0.2885 -0.1245 -0.6971
19653TIP3    H180450   4.528   0.869  17.206  0.2369  0.1086 -0.2925
19653TIP3    H280451   4.658   0.821  17.144  0.6761 -0.3023  0.9154
19654TIP3   OH280452   4.913   2.665   0.083  0.1106  0.2395 -0.5299
19654TIP3    H180453   4.974   2.671   0.009  0.5228 -0.2669 -0.2360
19654TIP3    H280454   4.856   2.591   0.061  0.2516  0.0705 -0.3293
19655TIP3   OH280455   4.436   2.897  13.676  0.2584 -0.2182  0.2419
19655TIP3    H180456   4.524   2.886  13.640  0.4163 -0.6315  0.7384
19655TIP3    H280457   4.390   2.816  13.654 -0.7061  0.8491 -1.9119
19656TIP3   OH280458   0.201   6.099  11.887 -0.5773  0.2577 -0.1034
19656TIP3    H180459   0.122   6.061  11.848 -0.7569  1.2714 -0.7606
19656TIP3    H280460   0.253   6.023  11.914 -1.2626 -0.4395 -0.6857
19657TIP3   OH280461   1.966   5.547  13.073 -0.1343  0.2217 -0.2977
19657TIP3    H180462   2.032   5.528  13.007  1.1910  1.8874  0.4847
19657TIP3    H280463   1.932   5.633  13.048  0.5765  1.0001  1.2955
19658TIP3   OH280464   1.104   0.042  14.422 -0.4074  0.1390  0.5657
19658TIP3    H180465   1.051  -0.002  14.356  1.8298  0.5809 -1.6420
19658TIP3    H280466   1.179   0.076  14.375 -0.3736  3.5608  2.7346
19659TIP3   OH280467   5.910   0.061  15.603  0.5242 -0.2351  0.6029
19659TIP3    H180468   5.854   0.061  15.525  0.4441  1.1321  0.6314
19659TIP3    H280469   5.884  -0.018  15.651 -1.7676  0.5908  0.8764
19660TIP3   OH280470   4.628   4.318   6.185  0.2342 -0.3309  0.2330
19660TIP3    H180471   4.576   4.278   6.255 -0.9000 -0.2289 -0.5212
19660TIP3    H280472   4.575   4.307   6.106  2.0524 -1.5677 -0.8801
19661TIP3   OH280473   5.807   0.312   1.849  0.5264 -0.3670  0.6940
19661TIP3    H180474   5.840   0.350   1.930  0.2449  0.8328  0.2628
19661TIP3    H280475   5.717   0.286   1.869  1.1499 -2.1699  1.3992
19662TIP3   OH280476   0.276   3.846   2.801 -0.0061 -0.0084  0.5015
19662TIP3    H180477   0.185   3.836   2.774 -0.2731  0.0366  1.3758
19662TIP3    H280478   0.278   3.818   2.892  0.9889 -0.6670  0.3065
19663TIP3   OH280479   1.734   1.915   3.864  0.0385  0.1565  0.5065
19663TIP3    H180480   1.651   1.954   3.838 -0.9682 -2.1458 -0.0074
19663TIP3    H280481   1.714   1.866   3.944  1.2648  0.7415  1.2058
19664TIP3   OH280482   3.255   4.260  14.229 -0.0403  0.3867  0.1198
19664TIP3    H180483   3.187   4.280  14.164  0.1449  2.3475  0.4712
19664TIP3    H280484   3.329   4.230  14.177  0.5249  3.0480 -0.8035
19665TIP3   OH280485   2.411   2.787   4.863 -0.0053 -0.0822 -0.0581
19665TIP3    H180486   2.434   2.694   4.856  1.0720  0.1414  0.3271
19665TIP3    H280487   2.360   2.793   4.944 -1.4953 -0.5903 -0.9323
19666TIP3   OH280488   2.863   3.965   2.867  0.1463  0.1470 -0.1337
19666TIP3    H180489   2.815   4.027   2.814  0.1753  0.1377 -0.1712
19666TIP3    H280490   2.809   3.953   2.945 -0.7979 -1.2062 -0.9520
19667TIP3   OH280491   2.030   1.584  10.444  0.3006 -0.2003  0.4065
19667TIP3    H180492   1.935   1.571  10.448 -0.0475  1.3584 -1.4310
19667TIP3    H280493   2.066   1.495  10.451 -1.3276 -0.9419 -0.0163
19668TIP3   OH280494   1.741   3.858   2.882 -0.2021  0.9775 -0.2596
19668TIP3    H180495   1.681   3.820   2.817 -0.2492  0.3842  0.1259
19668TIP3    H280496   1.718   3.951   2.883 -0.9882  0.7910 -0.2541
19669TIP3   OH280497   3.716   0.312   5.400 -0.2107  0.3993 -0.3970
19669TIP3    H180498   3.696   0.371   5.472  0.9401  0.2435  0.0715
19669TIP3    H280499   3.791   0.353   5.356  1.2502 -1.1622  0.5234
19670TIP3   OH280500   2.291   1.569  12.469  0.3352  0.6844 -0.6008
19670TIP3    H180501   2.245   1.588  12.387 -0.2667 -1.5014 -0.8249
19670TIP3    H280502   2.382   1.596  12.453  0.3124 -0.0579 -2.1509
19671TIP3   OH280503   2.320   1.060   0.873 -0.2312 -0.1313  0.1023
19671TIP3    H180504   2.379   1.043   0.799  0.9869  3.8462 -0.0644
19671TIP3    H280505   2.251   1.116   0.836 -0.5403  0.5086  1.5951
19672TIP3   OH280506   2.163   6.124   5.697  0.3822 -0.0276 -0.4053
19672TIP3    H180507   2.241   6.097   5.746 -0.5630  0.3915  1.4290
19672TIP3    H280508   2.131   6.202   5.743 -0.6984  0.2635 -1.5770
19673TIP3   OH280509   0.491   3.262  14.255 -0.5396 -0.3813  0.0507
19673TIP3    H180510   0.556   3.302  14.314 -1.1766  1.4909 -0.4263
19673TIP3    H280511   0.415   3.245  14.311 -1.0438  1.1381 -0.1088
19674TIP3   OH280512   0.316   1.815  14.262  0.4770 -0.0061 -0.0943
19674TIP3    H180513   0.364   1.748  14.213  0.1615  0.7606 -1.4986
19674TIP3    H280514   0.330   1.895  14.213  0.3165  0.8516  1.2102
19675TIP3   OH280515   4.779   1.478   1.547 -0.5060  0.1022 -0.3605
19675TIP3    H180516   4.718   1.416   1.586 -1.0605  0.7497 -0.1998
19675TIP3    H280517   4.754   1.481   1.454 -1.9451  1.7703  0.0459
19676TIP3   OH280518   5.588   1.389  12.051 -0.0019  0.3165  0.1246
19676TIP3    H180519   5.636   1.364  11.972  0.0930  0.1066  0.2494
19676TIP3    H280520   5.546   1.472  12.028 -0.2282  0.1007 -0.2501
19677TIP3   OH280521   6.050   6.111  15.610  0.1234  0.9035 -0.2979
19677TIP3    H180522   6.137   6.075  15.632 -0.5947 -1.0406 -0.4606
19677TIP3    H280523   6.069   6.184  15.550  1.6457  0.4353 -0.4380
19678TIP3   OH280524   5.506   4.262  12.807  0.6023  0.8353 -0.1763
19678TIP3    H180525   5.435   4.277  12.745  1.5305  2.0084 -0.9929
19678TIP3    H280526   5.563   4.199  12.762  2.4315  3.3213 -1.5769
19679TIP3   OH280527   1.879   1.707  15.425  0.0428  0.4205  0.3962
19679TIP3    H180528   1.855   1.796  15.448 -0.7108  1.1447 -2.7024
19679TIP3    H280529   1.969   1.697  15.457  0.3563  2.5222  0.3109
19680TIP3   OH280530   1.314   5.352  16.476 -0.1192  0.0237 -0.0629
19680TIP3    H180531   1.408   5.335  16.485 -0.4984 -1.8211  0.7167
19680TIP3    H280532   1.303   5.441  16.511  1.6833  1.4398 -2.6737
19681TIP3   OH280533   1.289   4.373  15.013 -0.4394 -0.3399  0.8077
19681TIP3    H180534   1.374   4.368  15.057 -0.1874  1.8391  0.6903
19681TIP3    H280535   1.304   4.430  14.938 -2.1612  0.7525  1.2372
19682TIP3   OH280536   3.425   4.623   3.004 -0.3806  0.0389  0.1487
19682TIP3    H180537   3.341   4.650   2.967 -0.2131 -0.4090 -0.5875
19682TIP3    H280538   3.475   4.704   3.014 -0.7855  0.2712  0.3031
19683TIP3   OH280539   3.102   2.805  11.370  0.1073  0.0837 -0.3013
19683TIP3    H180540   3.156   2.883  11.385 -0.2901  0.4479 -0.7173
19683TIP3    H280541   3.015   2.840  11.351 -0.0501 -0.4607 -0.6045
19684TIP3   OH280542   4.315   4.474  13.210 -0.1183  0.2934  0.4685
19684TIP3    H180543   4.359   4.390  13.220  1.6187  1.2985  2.0488
19684TIP3    H280544   4.358   4.531  13.274 -2.3283  1.9574  0.6000
19685TIP3   OH280545   4.881   5.972   4.316 -0.8253  0.2602  0.3838
19685TIP3    H180546   4.892   6.025   4.395 -2.3458 -0.4649  1.1289
19685TIP3    H280547   4.833   6.029   4.256 -0.9942  0.3144  0.5648
19686TIP3   OH280548   1.582   6.430  15.734  0.0629 -0.3376 -0.1143
19686TIP3    H180549   1.677   6.435  15.747 -0.1786 -1.7171  3.0037
19686TIP3    H280550   1.552   6.520  15.745  0.9133 -0.0307 -0.1812
19687TIP3   OH280551   5.392   3.274   4.259  0.2144  0.4071 -0.3510
19687TIP3    H180552   5.333   3.345   4.284  0.3952 -1.0702  5.9036
19687TIP3    H280553   5.477   3.316   4.249 -0.4447  1.5636 -1.2763
19688TIP3   OH280554   4.289   4.384  14.511  0.4713  0.1643 -0.6677
19688TIP3    H180555   4.349   4.456  14.532  1.4363 -0.9782  0.6863
19688TIP3    H280556   4.263   4.348  14.596  0.8470 -1.7291 -1.2948
19689TIP3   OH280557   3.725   3.160  14.823 -0.4260  0.4585 -0.0912
19689TIP3    H180558   3.650   3.116  14.783 -0.0073  0.2267 -0.6304
19689TIP3    H280559   3.686   3.229  14.877 -1.2655 -2.1525  2.9495
19690TIP3   OH280560   4.398   0.533   3.421  0.4136  0.1609 -0.7819
19690TIP3    H180561   4.361   0.546   3.333  0.1835  1.5697 -0.4992
19690TIP3    H280562   4.352   0.457   3.456  1.1642 -1.0170 -2.2095
19691TIP3   OH280563   6.079   3.676  12.151 -0.0392  0.5591  0.1889
19691TIP3    H180564   6.081   3.597  12.096 -0.7452  0.8693 -0.2956
19691TIP3    H280565   6.170   3.691  12.175  0.1622 -0.1243 -0.1201
19692TIP3   OH280566   6.657   3.230   4.987 -0.6521 -0.0478  0.4880
19692TIP3    H180567   6.736   3.267   4.949 -0.9091  1.1395  1.0739
19692TIP3    H280568   6.590   3.241   4.919 -0.2811 -1.3343 -0.1300
19693TIP3   OH280569   1.916   1.120  16.009  0.1692  0.1752  0.6302
19693TIP3    H180570   1.826   1.093  16.028  0.2143 -0.0905  0.4678
19693TIP3    H280571   1.919   1.125  15.913  0.4379 -0.1892  0.6203
19694TIP3   OH280572   5.855   2.399   4.055 -0.1438  0.0376  0.3258
19694TIP3    H180573   5.832   2.359   3.972 -0.0003 -2.5902  1.4657
19694TIP3    H280574   5.939   2.443   4.039  0.4529 -1.4055 -0.6458
19695TIP3   OH280575   4.582   4.831  14.728  0.1297  0.0747 -0.7440
19695TIP3    H180576   4.562   4.737  14.725 -0.2609  0.1664 -1.1753
19695TIP3    H280577   4.529   4.865  14.799  1.8818 -0.3856  0.8819
19696TIP3   OH280578   1.555   6.573  16.856 -0.4635 -0.0976 -0.9882
19696TIP3    H180579   1.600   6.631  16.917  0.8271  0.9050 -2.7889
19696TIP3    H280580   1.463   6.602  16.858 -1.0778 -1.8337  2.3548
19697TIP3   OH280581   5.998   0.890  16.242  0.1397 -0.6266  0.5242
19697TIP3    H180582   5.992   0.812  16.297  0.7303 -0.2486  1.1405
19697TIP3    H280583   6.092   0.910  16.239 -0.0129  0.0807  0.4077
19698TIP3   OH280584   5.873   1.789  12.460 -0.4521 -0.0918  0.7895
19698TIP3    H180585   5.899   1.709  12.505  2.6427 -0.2264 -0.9455
19698TIP3    H280586   5.936   1.855  12.489 -0.6409  0.7378 -0.5885
19699TIP3   OH280587   3.266   2.747   0.628 -0.0731 -0.5771  0.2639
19699TIP3    H180588   3.174   2.731   0.607 -0.1533 -0.2834  0.3919
19699TIP3    H280589   3.280   2.698   0.709 -0.4723  0.4415  0.9665
19700TIP3   OH280590   3.004   2.579  12.077 -0.0183 -0.5028 -0.1968
19700TIP3    H180591   2.998   2.620  11.992  1.8208  1.3502  0.4992
19700TIP3    H280592   2.968   2.643  12.138  0.6488 -0.9064  0.6539
19701TIP3   OH280593   1.171   6.299   1.061 -0.3262 -0.0054  0.1519
19701TIP3    H180594   1.187   6.267   0.973  1.2671 -0.5065  0.5946
19701TIP3    H280595   1.222   6.380   1.067 -0.3632 -0.0143  0.6320
19702TIP3   OH280596   3.849   0.909   4.448 -0.0597  0.2841 -0.4557
19702TIP3    H180597   3.786   0.839   4.433  0.4436 -0.2005 -0.3501
19702TIP3    H280598   3.927   0.865   4.482  0.7298  0.7389 -1.6200
19703TIP3   OH280599   5.902   4.007  16.146  0.1489 -0.2597  0.0734
19703TIP3    H180600   5.838   3.988  16.214  0.2827  2.0772  0.9058
19703TIP3    H280601   5.860   3.977  16.065 -0.9486 -1.0043  0.8925
19704TIP3   OH280602   5.740   2.925   0.000 -1.0180  0.0314 -0.2221
19704TIP3    H180603   5.739   2.872   0.080 -0.5518  0.7113  0.2475
19704TIP3    H280604   5.663   2.897  -0.049 -0.9037 -0.9165  0.1218
19705TIP3   OH280605   5.588   1.032  14.873 -0.3847 -0.3761  0.0763
19705TIP3    H180606   5.544   1.115  14.890 -0.6497 -0.2827 -0.9923
19705TIP3    H280607   5.670   1.037  14.923 -0.6369  0.3075  0.4243
19706TIP3   OH280608   4.943   6.182  12.598  0.1597  0.0368 -0.2844
19706TIP3    H180609   4.894   6.108  12.634  0.0582 -0.8883 -2.1762
19706TIP3    H280610   4.899   6.202  12.515  1.3242  0.9804 -0.7080
19707TIP3   OH280611   4.314   6.174  17.184 -0.0965 -0.1013  0.2631
19707TIP3    H180612   4.356   6.211  17.262 -2.0381  1.2099  0.7581
19707TIP3    H280613   4.386   6.158  17.124  1.5784 -1.9805  2.5905
19708TIP3   OH280614   1.948   3.770  14.003  0.2466  0.1664  0.2207
19708TIP3    H180615   1.960   3.737  13.914  2.2556  1.6391 -0.1531
19708TIP3    H280616   1.921   3.861  13.990  2.4602  1.0052  1.0070
19709TIP3   OH280617   0.927   1.771   4.153  0.2573  0.0700  0.0535
19709TIP3    H180618   1.000   1.812   4.107  1.1971 -1.4578  0.1127
19709TIP3    H280619   0.938   1.799   4.245  0.7784 -0.1586  0.0651
19710TIP3   OH280620   3.475   6.116   3.314 -0.1540 -0.3701 -0.3483
19710TIP3    H180621   3.383   6.107   3.292  0.4339 -1.2959 -2.7221
19710TIP3    H280622   3.506   6.026   3.325  0.5431 -0.0820  0.1047
19711TIP3   OH280623   4.579   6.683   4.344 -0.2995  0.0870 -0.2394
19711TIP3    H180624   4.669   6.678   4.312  0.3811 -2.3894  1.6940
19711TIP3    H280625   4.540   6.598   4.320 -1.3258  0.1714  1.0151
19712TIP3   OH280626   5.287   0.580  12.131 -0.4666  0.6639  0.3382
19712TIP3    H180627   5.353   0.565  12.199 -1.3819 -0.3624  1.0376
19712TIP3    H280628   5.337   0.584  12.050  0.4785 -0.0241  0.8632
19713TIP3   OH280629   6.573   6.557  13.530  0.0534  0.1369 -0.2095
19713TIP3    H180630   6.625   6.476  13.535 -0.4222 -0.2437 -1.0888
19713TIP3    H280631   6.610   6.614  13.597  0.6469 -0.6738  0.1667
19714TIP3   OH280632   1.824   3.243   5.622 -0.3239  0.1671  0.1413
19714TIP3    H180633   1.870   3.197   5.551  0.6472 -0.3795  1.0857
19714TIP3    H280634   1.732   3.243   5.596  0.2154  1.7762 -2.0992
19715TIP3   OH280635   3.285   5.438  14.621 -0.1591 -0.6378 -0.3253
19715TIP3    H180636   3.282   5.384  14.700 -0.7864 -1.7182 -1.0585
19715TIP3    H280637   3.378   5.446  14.600  0.1181  0.6657  1.1491
19716TIP3   OH280638   3.835   3.606   0.826 -0.1186 -0.2078  0.2159
19716TIP3    H180639   3.798   3.675   0.772  0.4534 -0.4549 -0.5036
19716TIP3    H280640   3.778   3.530   0.811  0.3233 -0.4142 -0.4158
19717TIP3   OH280641   5.722   0.042  17.046 -0.3534 -0.3898 -0.7009
19717TIP3    H180642   5.810   0.066  17.073 -0.5434  0.1039 -0.5297
19717TIP3    H280643   5.705   0.095  16.968 -0.7672  0.0263 -0.3286
19718TIP3   OH280644   6.223   5.931  12.172  1.0606 -0.7711  0.1745
19718TIP3    H180645   6.237   5.837  12.180  1.4155 -0.8209 -0.8582
19718TIP3    H280646   6.146   5.939  12.116  0.1853 -0.4401  1.3781
19719TIP3   OH280647   3.018   2.209  11.194  0.0050 -0.9102 -0.8471
19719TIP3    H180648   3.071   2.131  11.179 -3.1219 -2.9958 -2.1057
19719TIP3    H280649   2.995   2.205  11.286  0.6807 -0.8718 -0.6708
19720TIP3   OH280650   0.955   2.781   2.371  0.2361 -0.2325  0.0163
19720TIP3    H180651   0.871   2.738   2.387  0.4203 -0.1483  1.2447
19720TIP3    H280652   0.936   2.846   2.303 -0.9941  0.6957  1.1875
19721TIP3   OH280653   4.817   5.634   5.554 -0.5886 -0.0643  0.2735
19721TIP3    H180654   4.842   5.554   5.600 -0.6078 -1.1655 -1.5584
19721TIP3    H280655   4.746   5.607   5.496 -1.0539  1.4381  0.1117
19722TIP3   OH280656   0.955   3.764   3.450  0.2347  0.0544  0.2902
19722TIP3    H180657   0.993   3.680   3.424  3.8279  1.2092  1.2105
19722TIP3    H280658   0.913   3.746   3.534  0.1096 -1.0043  0.0211
19723TIP3   OH280659   3.278   1.412   3.134  0.2680  0.2996  0.0426
19723TIP3    H180660   3.342   1.387   3.067  0.5101  1.1269 -0.0497
19723TIP3    H280661   3.326   1.471   3.192 -0.5528  1.4241 -0.3740
19724TIP3   OH280662   3.503   6.432  16.506  0.1658 -0.0976  0.6962
19724TIP3    H180663   3.516   6.451  16.413 -1.2500 -0.5334  0.3745
19724TIP3    H280664   3.511   6.336  16.512  0.1775 -0.0776  1.0019
19725TIP3   OH280665   1.271   6.564  17.166  0.5925  0.4575 -0.1091
19725TIP3    H180666   1.224   6.521  17.094  1.6445 -0.7461 -0.1207
19725TIP3    H280667   1.355   6.590  17.127  0.0891  2.3284 -0.0181
19726TIP3   OH280668   4.024   0.060   4.319  0.3091  0.2236 -0.2428
19726TIP3    H180669   4.033   0.140   4.268 -0.5091  0.4560 -0.0470
19726TIP3    H280670   3.949   0.014   4.279 -1.3981  1.1665  1.6684
19727TIP3   OH280671   6.588   2.856   5.375  0.8019  0.4305 -0.1260
19727TIP3    H180672   6.606   2.935   5.324 -0.3339  1.3184  0.7905
19727TIP3    H280673   6.496   2.864   5.399  1.6570  0.9446  3.4961
19728TIP3   OH280674   5.361   6.563   2.146  0.6266 -0.2859 -0.3044
19728TIP3    H180675   5.419   6.496   2.183  2.6611 -0.0471 -2.7596
19728TIP3    H280676   5.306   6.516   2.084 -1.8646 -0.4716  1.8493
19729TIP3   OH280677   2.733   5.907  13.514  0.5514  0.1877  0.0903
19729TIP3    H180678   2.766   5.911  13.604 -0.2684  0.6201  0.3785
19729TIP3    H280679   2.794   5.849  13.469  1.5661  0.7773  0.6711
19730TIP3   OH280680   2.534   4.194  14.332  0.5707  0.0238 -0.0243
19730TIP3    H180681   2.529   4.150  14.247  0.1195 -1.5702  0.7840
19730TIP3    H280682   2.616   4.242  14.330  2.0904 -2.4400 -0.2672
19731TIP3   OH280683   2.120   1.065   3.435  0.2758  0.7372 -0.8009
19731TIP3    H180684   2.209   1.032   3.418  0.7924  1.8813 -0.4344
19731TIP3    H280685   2.131   1.159   3.441 -0.8348  0.8265  0.0974
19732TIP3   OH280686   4.398   2.107   4.437  0.3404 -0.0466  0.5099
19732TIP3    H180687   4.347   2.154   4.503  0.0842 -0.4825  0.6235
19732TIP3    H280688   4.341   2.101   4.361 -0.5213 -2.1741  1.2547
19733TIP3   OH280689   2.134   6.752  11.213 -0.0757  0.4893 -0.0736
19733TIP3    H180690   2.113   6.812  11.285 -0.9614  1.2225 -0.9121
19733TIP3    H280691   2.080   6.674  11.230  2.1899 -0.7686  1.8398
19734TIP3   OH280692   2.768   5.915  14.079 -0.8144 -0.0890  0.1376
19734TIP3    H180693   2.734   6.004  14.072 -1.0784 -0.1515  0.5916
19734TIP3    H280694   2.743   5.886  14.167  1.2696  0.2403  0.9125
19735TIP3   OH280695   5.398   1.087  16.032 -0.2490 -0.5705 -0.5179
19735TIP3    H180696   5.396   1.058  15.940 -2.2835  0.4874 -0.8859
19735TIP3    H280697   5.467   1.154  16.035  2.7703 -3.4602 -0.2192
19736TIP3   OH280698   2.196   0.988  13.892  0.2802 -1.0407  0.0034
19736TIP3    H180699   2.213   0.896  13.874 -0.1728 -1.3441  1.0252
19736TIP3    H280700   2.157   0.989  13.979 -0.1905  0.0747 -0.1916
19737TIP3   OH280701   2.383   2.335  15.939  0.7149  0.1675 -0.3393
19737TIP3    H180702   2.391   2.430  15.949  0.0831  0.0644  1.5442
19737TIP3    H280703   2.335   2.324  15.856 -2.5441  1.6945  1.1415
19738TIP3   OH280704   2.568   0.199   0.462  0.0793  0.2169  0.7418
19738TIP3    H180705   2.614   0.119   0.435 -0.8234 -0.7608  1.9727
19738TIP3    H280706   2.609   0.268   0.411  1.5590 -0.8962  0.3430
19739TIP3   OH280707   6.769   3.060  11.623 -0.6146  0.8596  0.1513
19739TIP3    H180708   6.815   3.065  11.706 -1.5789  0.2130  0.7487
19739TIP3    H280709   6.816   3.120  11.565  1.0120  0.1431  0.6840
19740TIP3   OH280710   3.509   6.807  13.011  0.3177 -0.3175 -0.0128
19740TIP3    H180711   3.603   6.803  13.027  0.1963  0.5634  1.0052
19740TIP3    H280712   3.483   6.715  12.997  1.6390 -0.4030 -2.3451
19741TIP3   OH280713   5.327   1.411  16.712 -0.5071 -0.2355  0.0529
19741TIP3    H180714   5.377   1.478  16.759  0.5217 -1.1207  0.2820
19741TIP3    H280715   5.251   1.457  16.677  1.1209  1.4988 -1.4234
19742TIP3   OH280716   6.794   6.406   5.394 -0.2875  0.4712 -0.2117
19742TIP3    H180717   6.887   6.424   5.413  0.1128 -0.6954 -0.9868
19742TIP3    H280718   6.756   6.493   5.380  0.1233  1.1787  2.4634
19743TIP3   OH280719   2.477   1.289   3.260 -0.4084 -0.2066 -0.1621
19743TIP3    H180720   2.527   1.367   3.235 -3.3459  1.5560 -0.9998
19743TIP3    H280721   2.442   1.255   3.178 -2.3677 -0.0143  0.5302
19744TIP3   OH280722   6.604   1.803  13.867 -0.4138 -1.1704  0.3084
19744TIP3    H180723   6.546   1.757  13.806  0.0780 -1.2975 -0.0691
19744TIP3    H280724   6.594   1.756  13.949 -2.0214 -0.2511  0.6790
19745TIP3   OH280725   0.776   6.042   3.559  0.7545 -0.1968 -0.0454
19745TIP3    H180726   0.766   5.970   3.497  0.1273 -0.8702  0.8169
19745TIP3    H280727   0.814   6.002   3.637 -0.7652  0.1181  0.9086
19746TIP3   OH280728   6.059   6.284   3.167  0.1085 -0.1688 -0.0115
19746TIP3    H180729   6.113   6.354   3.206 -0.9967  0.3575  0.6061
19746TIP3    H280730   5.972   6.297   3.205 -0.7167 -0.3843 -1.7383
19747TIP3   OH280731   3.918   0.302   4.616  0.0206 -0.3090  0.2215
19747TIP3    H180732   3.881   0.357   4.685  0.6094  1.3328 -0.7119
19747TIP3    H280733   3.860   0.226   4.611 -0.1566 -0.3597  2.3398
19748TIP3   OH280734   3.947   5.495  17.171 -0.2402 -0.2138 -0.0858
19748TIP3    H180735   4.028   5.444  17.180  0.0896  0.1453 -0.9637
19748TIP3    H280736   3.918   5.509  17.261  1.1872  0.4555  0.2967
19749TIP3   OH280737   0.283   3.041   1.930  0.1275  0.4777 -0.2870
19749TIP3    H180738   0.329   3.118   1.896 -0.2892  1.4435  1.2637
19749TIP3    H280739   0.352   2.976   1.942  1.0632  1.6882  1.3881
19750TIP3   OH280740   3.279   6.798  11.749 -0.1890  0.1785 -0.1037
19750TIP3    H180741   3.256   6.792  11.657 -0.5286 -2.1387  0.0727
19750TIP3    H280742   3.373   6.784  11.752 -0.0623  0.9766 -0.1356
19751TIP3   OH280743   3.215   2.989  12.384 -1.3296 -0.0689  0.4892
19751TIP3    H180744   3.223   2.925  12.314  1.8172 -0.7539  1.3173
19751TIP3    H280745   3.225   3.074  12.341 -2.1247 -0.3011 -0.1803
19752TIP3   OH280746   6.104   3.749  13.510  0.1756 -0.6878 -0.3986
19752TIP3    H180747   6.141   3.660  13.511  2.6080  0.2558  0.0537
19752TIP3    H280748   6.167   3.801  13.460  0.4537  1.4057  1.9368
19753TIP3   OH280749   1.911   0.539   1.635 -0.9685 -0.0854  0.1071
19753TIP3    H180750   1.952   0.553   1.549 -1.3614  0.6129  0.0273
19753TIP3    H280751   1.900   0.444   1.641 -0.4959 -0.1785 -0.4079
19754TIP3   OH280752   4.400   4.806  13.539  0.2041  0.2291 -0.0013
19754TIP3    H180753   4.352   4.844  13.613 -1.4915  1.1985 -1.5366
19754TIP3    H280754   4.492   4.807  13.567 -0.5076 -1.0865  2.7736
19755TIP3   OH280755   0.417   3.161  15.539  0.2555 -0.4834 -0.0524
19755TIP3    H180756   0.485   3.213  15.497  1.2522 -2.9674 -1.7750
19755TIP3    H280757   0.338   3.213  15.530  1.6292  1.8477  0.6930
19756TIP3   OH280758   5.270   6.370  15.050  0.4715  0.2206  0.2286
19756TIP3    H180759   5.286   6.280  15.021  2.3911  0.4208  0.5319
19756TIP3    H280760   5.239   6.415  14.972 -1.7080 -0.9326  0.3399
19757TIP3   OH280761   6.440   1.685   3.232 -0.1554 -0.1264 -0.2767
19757TIP3    H180762   6.426   1.640   3.315  1.5224 -2.0601 -0.9370
19757TIP3    H280763   6.420   1.619   3.166 -0.1466  0.9432 -1.3836
19758TIP3   OH280764   1.804   4.567   2.057 -0.4319 -0.0876 -0.0036
19758TIP3    H180765   1.863   4.591   2.129  0.5103 -1.1416 -0.3920
19758TIP3    H280766   1.848   4.599   1.978  0.0448 -1.5583 -0.3702
19759TIP3   OH280767   3.610   5.976  17.077  0.0508  0.0267 -0.8409
19759TIP3    H180768   3.696   5.944  17.049  0.4557  1.3073 -1.1248
19759TIP3    H280769   3.556   5.974  16.997  0.7670  2.2248 -1.4634
19760TIP3   OH280770   3.019   2.851  13.757  0.7936 -0.4365  0.2972
19760TIP3    H180771   3.045   2.822  13.845 -0.5663 -2.4879  0.0837
19760TIP3    H280772   3.082   2.810  13.698  0.0694 -1.3382  0.1362
19761TIP3   OH280773   4.188   2.988  13.863 -0.4965  0.7505  0.2658
19761TIP3    H180774   4.225   3.062  13.912  1.3694  0.9666 -1.3651
19761TIP3    H280775   4.255   2.966  13.799 -0.5424 -3.0298  1.2729
19762TIP3   OH280776   2.079   0.279   0.167 -0.5682  0.1419 -0.1140
19762TIP3    H180777   2.062   0.196   0.123 -1.7696  0.1902  0.2114
19762TIP3    H280778   2.031   0.344   0.115 -0.7800  0.4143  0.4167
19763TIP3   OH280779   6.301   5.584   4.788 -0.1309  0.4215 -0.5332
19763TIP3    H180780   6.390   5.616   4.804 -0.0420 -0.0355 -0.1031
19763TIP3    H280781   6.251   5.613   4.864  0.2117 -1.4251  0.4566
19764TIP3   OH280782   3.811   5.075  16.666  0.0122 -0.7135 -0.4594
19764TIP3    H180783   3.896   5.038  16.641  0.1253 -1.4297  0.9049
19764TIP3    H280784   3.826   5.113  16.753 -0.3309  1.7936 -1.3946
19765TIP3   OH280785   1.488   2.107   3.330  0.1776 -0.0452  0.7168
19765TIP3    H180786   1.435   2.068   3.260  1.5350 -0.9159  0.1189
19765TIP3    H280787   1.557   2.042   3.346  2.6826  2.1700 -0.4486
19766TIP3   OH280788   3.441   4.376   3.121  0.0990 -0.6440  0.0995
19766TIP3    H180789   3.436   4.471   3.114  1.0847 -0.3751  2.5063
19766TIP3    H280790   3.488   4.349   3.042 -1.5838  0.6409 -1.4523
19767TIP3   OH280791   3.993   5.442  12.659 -0.4390  0.1518  0.0112
19767TIP3    H180792   4.044   5.380  12.608  0.4711 -0.1254  1.2210
19767TIP3    H280793   4.024   5.432  12.749 -2.2666  0.3471  0.7178
19768TIP3   OH280794   5.349   4.733   1.919 -0.5611  0.4662 -0.4431
19768TIP3    H180795   5.274   4.673   1.923  1.2839 -1.9984 -0.6681
19768TIP3    H280796   5.378   4.729   1.828  0.1395  1.0019 -0.2493
19769TIP3   OH280797   5.621   2.160   1.382  0.1450 -0.8398 -0.1482
19769TIP3    H180798   5.701   2.193   1.343  0.2732 -1.7548 -0.6806
19769TIP3    H280799   5.641   2.069   1.407 -0.3190 -0.6730  0.9058
19770TIP3   OH280800   1.441   5.825  15.351  0.0946 -0.4908 -0.2632
19770TIP3    H180801   1.378   5.896  15.340  0.7360  0.0100 -0.8019
19770TIP3    H280802   1.477   5.839  15.439  1.0716  0.5755 -0.8085
19771TIP3   OH280803   2.059   6.040  13.570  0.0414  0.3147 -0.4598
19771TIP3    H180804   1.974   6.011  13.603  0.3318 -0.8809 -0.7149
19771TIP3    H280805   2.039   6.118  13.518 -0.8616  0.2124 -0.2856
19772TIP3   OH280806   4.421   3.241   5.961  0.3189 -0.4642 -0.4614
19772TIP3    H180807   4.504   3.194   5.967  0.1544 -0.6367  0.6411
19772TIP3    H280808   4.368   3.206   6.032 -0.2389  0.5407 -0.3581
19773TIP3   OH280809   6.096   6.172   4.997  0.3829 -0.0484  0.3802
19773TIP3    H180810   6.001   6.160   4.995  0.5035 -1.1835  0.7655
19773TIP3    H280811   6.131   6.091   4.960  1.2062  0.1692  0.6624
19774TIP3   OH280812   4.374   5.636   1.984  0.3109  0.1807 -0.1676
19774TIP3    H180813   4.297   5.625   1.929  0.9572 -0.6237 -0.9388
19774TIP3    H280814   4.364   5.724   2.021 -0.2671  0.6512 -1.3785
19775TIP3   OH280815   6.045   2.877   0.500  1.0041 -0.6915 -0.9549
19775TIP3    H180816   6.047   2.941   0.429 -0.4491 -1.3634 -1.6407
19775TIP3    H280817   6.046   2.792   0.456  0.1023 -1.1152 -0.2015
19776TIP3   OH280818   2.658   1.630  16.227  0.7127  0.1401  0.3577
19776TIP3    H180819   2.657   1.721  16.197 -0.2458  0.0054 -0.0466
19776TIP3    H280820   2.728   1.628  16.292  1.8008  0.7968 -0.7384
19777TIP3   OH280821   3.335   2.150  15.746 -0.4089  0.2808  0.3921
19777TIP3    H180822   3.407   2.092  15.722  0.5485  1.6669 -0.2162
19777TIP3    H280823   3.290   2.104  15.817  1.4344 -0.3538  1.2149
19778TIP3   OH280824   2.862   2.587   0.377 -0.4487  0.2082  0.4808
19778TIP3    H180825   2.917   2.550   0.308 -1.2932 -0.8765  0.3645
19778TIP3    H280826   2.852   2.679   0.352  0.6264  0.2324  0.0704
19779TIP3   OH280827   0.597   3.211   2.706 -0.4155  0.0439 -0.4363
19779TIP3    H180828   0.629   3.290   2.749  0.0119 -1.2381  1.7562
19779TIP3    H280829   0.514   3.192   2.750  0.1231 -1.4174  0.0041
19780TIP3   OH280830   4.831   3.835  16.724 -0.2477 -0.2846  0.6333
19780TIP3    H180831   4.785   3.796  16.650  0.5071  2.2622 -1.3287
19780TIP3    H280832   4.763   3.853  16.788 -1.6157  0.9919 -1.0969
19781TIP3   OH280833   4.799   1.066  16.775  0.6743  0.1476 -0.0035
19781TIP3    H180834   4.862   1.066  16.847  1.4384 -1.8189 -0.6072
19781TIP3    H280835   4.723   1.112  16.810  0.5238 -1.8404  2.5670
19782TIP3   OH280836   6.522   0.172   3.972  0.3637  0.0747  0.2432
19782TIP3    H180837   6.484   0.208   3.892 -0.0933 -0.2076  0.3337
19782TIP3    H280838   6.503   0.078   3.968  0.0001  0.1178  0.8734
19783TIP3   OH280839   2.978   3.155   2.073  0.0675 -0.3945 -1.1665
19783TIP3    H180840   2.947   3.065   2.073 -0.0421 -0.3644 -0.4794
19783TIP3    H280841   2.902   3.206   2.101  0.7452 -0.3355  0.6943
19784TIP3   OH280842   2.202   4.575  14.566  0.1071  0.3081 -0.2112
19784TIP3    H180843   2.127   4.553  14.510  0.9155  0.9133 -1.5898
19784TIP3    H280844   2.257   4.497  14.563 -0.4628 -0.1602  0.8528
19785TIP3   OH280845   3.115   3.480   0.693 -0.3757  0.2664 -0.2855
19785TIP3    H180846   3.109   3.454   0.601 -0.5618 -0.0056 -0.1979
19785TIP3    H280847   3.025   3.504   0.716 -0.2486  0.7816 -0.3021
19786TIP3   OH280848   4.166   4.718   4.352 -0.1451 -0.6032 -0.3897
19786TIP3    H180849   4.150   4.671   4.434 -2.7844  1.6555  0.5731
19786TIP3    H280850   4.089   4.700   4.298 -0.1906  0.7940 -0.8474
19787TIP3   OH280851   1.106   0.184  13.352  0.4259  0.4460  0.5806
19787TIP3    H180852   1.044   0.119  13.319 -0.7746  1.5590  0.5362
19787TIP3    H280853   1.186   0.168  13.303 -0.1572 -0.3522 -0.1453
19788TIP3   OH280854   3.046   0.003  17.051 -0.1964  0.2619 -0.4735
19788TIP3    H180855   3.124   0.044  17.089 -1.1416  0.8562  0.8488
19788TIP3    H280856   3.079  -0.039  16.971  1.8210 -0.8647  0.8498
19789TIP3   OH280857   1.850   5.547  14.197  0.0401 -0.1416  0.7966
19789TIP3    H180858   1.802   5.464  14.188 -0.1354  0.0767 -0.4357
19789TIP3    H280859   1.941   5.524  14.181 -0.0325 -0.0717  0.2685
19790TIP3   OH280860   5.531   2.462  15.599  0.1042 -0.2157 -0.7227
19790TIP3    H180861   5.499   2.394  15.539  0.7620 -1.6224  0.4601
19790TIP3    H280862   5.525   2.422  15.686  1.9536  0.6646 -0.1323
19791TIP3   OH280863   1.262   1.945   0.441  0.3902 -0.4359 -0.2508
19791TIP3    H180864   1.352   1.970   0.464  0.0265  0.3693  0.3599
19791TIP3    H280865   1.207   1.995   0.502 -0.5264  0.0120 -1.4102
19792TIP3   OH280866   5.633   2.274  12.764 -0.2439 -0.9826  0.1771
19792TIP3    H180867   5.577   2.343  12.726  0.6468 -0.8355 -0.9302
19792TIP3    H280868   5.606   2.269  12.856 -0.8746  0.2937  0.0844
19793TIP3   OH280869   1.033   5.792  15.358 -0.3182  0.4378 -0.0780
19793TIP3    H180870   0.957   5.807  15.414 -0.5348  0.0331 -0.2638
19793TIP3    H280871   1.106   5.830  15.407 -0.3014 -0.9789  1.0460
19794TIP3   OH280872   5.348   0.431   3.678 -0.4638  0.1014  0.1032
19794TIP3    H180873   5.425   0.375   3.691 -0.6374 -0.4165 -0.9219
19794TIP3    H280874   5.275   0.379   3.710 -0.4642  0.3271  0.4705
19795TIP3   OH280875   4.312   5.788  14.102 -0.1132  0.8434  0.5124
19795TIP3    H180876   4.358   5.738  14.170 -1.1061  1.2157  1.4738
19795TIP3    H280877   4.382   5.819  14.044  0.7965  0.9184  1.6230
19796TIP3   OH280878   0.614   2.002  16.323 -0.2536 -0.0362 -0.2159
19796TIP3    H180879   0.634   2.007  16.417 -1.3912  0.3537  0.0223
19796TIP3    H280880   0.700   2.009  16.280  0.1447  1.7438  0.7364
19797TIP3   OH280881   6.083   3.615   1.316 -0.4684  0.4645 -0.0872
19797TIP3    H180882   5.993   3.596   1.291 -1.0196 -0.9754  2.6021
19797TIP3    H280883   6.134   3.541   1.283 -0.6714  0.1479  0.2975
19798TIP3   OH280884   1.119   6.392   6.048 -0.6112 -0.4097  0.0679
19798TIP3    H180885   1.024   6.383   6.047 -0.6992  0.4435  0.1320
19798TIP3    H280886   1.151   6.312   6.006 -1.4164  0.1046 -1.5982
19799TIP3   OH280887   6.466   5.720  16.635  0.0597 -0.2191  0.0576
19799TIP3    H180888   6.549   5.678  16.615 -1.2618 -2.0409 -2.1521
19799TIP3    H280889   6.482   5.813  16.622  1.4153 -0.6636 -1.8347
19800TIP3   OH280890   0.897   3.255   3.801  0.3458 -0.1872  0.1864
19800TIP3    H180891   0.896   3.164   3.771 -0.3126 -0.2043  0.2567
19800TIP3    H280892   0.987   3.269   3.830 -0.0183 -1.5074  2.2201
19801TIP3   OH280893   3.025   1.817   5.275 -0.3405 -0.8345  0.4910
19801TIP3    H180894   3.070   1.743   5.237  0.9580  1.2472 -2.3718
19801TIP3    H280895   3.078   1.893   5.251 -1.7676  1.1132  2.9489
19802TIP3   OH280896   6.283   2.585  16.507 -0.4485 -0.0689 -0.2272
19802TIP3    H180897   6.295   2.493  16.533  0.3259 -0.1982 -0.9963
19802TIP3    H280898   6.192   2.590  16.479 -0.5523 -0.5612  0.0089
19803TIP3   OH280899   0.515   2.865  13.570 -0.8190  0.1036  0.7374
19803TIP3    H180900   0.516   2.770  13.573 -1.0113  0.0716 -0.0218
19803TIP3    H280901   0.488   2.892  13.658  0.6111 -0.5020  1.4030
19804TIP3   OH280902   3.560   3.710   4.111 -0.3517 -0.8220 -0.4896
19804TIP3    H180903   3.480   3.678   4.152 -0.9936  0.9281 -0.2983
19804TIP3    H280904   3.626   3.644   4.132 -1.3716 -1.4945  0.7282
19805TIP3   OH280905   6.591   4.201  14.112 -0.2240 -0.0143 -0.0979
19805TIP3    H180906   6.601   4.297  14.117 -2.4080  0.2435  0.4500
19805TIP3    H280907   6.594   4.173  14.203  0.3880 -0.4747 -0.2584
19806TIP3   OH280908   2.583   2.016  14.382  0.6061 -0.1821 -0.4082
19806TIP3    H180909   2.643   2.080  14.419 -1.9347  0.4736  3.0905
19806TIP3    H280910   2.522   2.067  14.329 -0.3698  0.1512  0.9680
19807TIP3   OH280911   5.874   3.137  13.539  0.0834 -0.4714 -0.1254
19807TIP3    H180912   5.821   3.070  13.496 -0.8888  0.7582 -0.9564
19807TIP3    H280913   5.949   3.149  13.481  0.7962 -1.5305  0.5497
19808TIP3   OH280914   0.268   4.757   4.577  0.5548 -0.3083 -0.5761
19808TIP3    H180915   0.315   4.710   4.508 -0.8677 -0.3986 -1.5170
19808TIP3    H280916   0.207   4.814   4.530  2.5515  3.0253  0.4636
19809TIP3   OH280917   1.474   0.467   3.607  0.2121  0.2948 -0.4767
19809TIP3    H180918   1.508   0.525   3.675 -0.8430 -0.8686  1.1236
19809TIP3    H280919   1.534   0.392   3.607  0.7952  0.7404 -1.5820
19810TIP3   OH280920   5.754   1.521   3.568 -0.2588 -0.6721  0.0866
19810TIP3    H180921   5.767   1.427   3.555 -0.3151 -0.7050  0.2603
19810TIP3    H280922   5.792   1.538   3.654  0.4712 -0.3881 -0.2841
19811TIP3   OH280923   4.997   2.809  13.387  0.6190  0.5032  0.5190
19811TIP3    H180924   5.003   2.859  13.305  0.6150  0.3172  0.4048
19811TIP3    H280925   4.923   2.750  13.373 -0.2394  1.3964  1.1641
19812TIP3   OH280926   3.407   0.370  16.645  0.0369 -0.2571 -0.9113
19812TIP3    H180927   3.476   0.316  16.606 -0.1756 -1.1467 -0.0774
19812TIP3    H280928   3.352   0.308  16.693  0.1844  0.7684  0.6537
19813TIP3   OH280929   1.426   1.403   4.023  0.0092 -0.2925  0.4744
19813TIP3    H180930   1.355   1.397   3.959  1.2028 -0.0004 -0.9086
19813TIP3    H280931   1.397   1.347   4.096 -1.7663  0.0671  0.0951
19814TIP3   OH280932   2.757   2.899  14.535  0.0395 -0.3709  0.3556
19814TIP3    H180933   2.686   2.952  14.499 -1.1125 -1.7174  0.5294
19814TIP3    H280934   2.822   2.962  14.564 -0.6226  0.8810 -0.7482
19815TIP3   OH280935   3.719   2.233  15.696 -0.5024 -0.0174  0.2917
19815TIP3    H180936   3.711   2.174  15.771  0.6879 -0.0806  0.3746
19815TIP3    H280937   3.806   2.216  15.661 -0.7387  0.5998 -0.6161
19816TIP3   OH280938   6.144   4.429   3.190  0.0467  0.5326 -0.2636
19816TIP3    H180939   6.179   4.502   3.139  1.4544  0.1468  0.1264
19816TIP3    H280940   6.169   4.351   3.140 -1.6957  0.2946 -0.8300
19817TIP3   OH280941   5.411   4.268  16.578 -0.3189  0.3151 -0.5793
19817TIP3    H180942   5.500   4.240  16.598 -0.3573  0.4069 -0.2652
19817TIP3    H280943   5.356   4.199  16.614 -0.3277 -0.4600 -2.0496
19818TIP3   OH280944   1.616   4.700   2.979 -0.6710  0.1453  0.2969
19818TIP3    H180945   1.650   4.772   2.926  0.4406 -1.1880 -0.8665
19818TIP3    H280946   1.529   4.683   2.944 -0.3441 -0.0524 -0.4314
19819TIP3   OH280947   3.508   3.006   4.017 -0.0375  0.1555  0.1801
19819TIP3    H180948   3.536   2.933   3.961  0.2360  0.8441 -0.6001
19819TIP3    H280949   3.587   3.058   4.030  0.1583 -0.5135  2.0765
19820TIP3   OH280950   3.644   1.630  11.662  0.0028  0.0840 -0.1387
19820TIP3    H180951   3.633   1.570  11.588  1.3511  2.2990 -2.2786
19820TIP3    H280952   3.571   1.692  11.654  0.5840  0.7876 -0.0880
19821TIP3   OH280953   2.429   2.371  13.189 -0.8670  0.1850 -0.2195
19821TIP3    H180954   2.379   2.360  13.270 -2.5380 -1.6410 -1.4023
19821TIP3    H280955   2.439   2.466  13.179 -1.4491  0.4762  1.6171
19822TIP3   OH280956   6.033   1.250  14.085 -0.3224  0.1389 -0.5911
19822TIP3    H180957   6.011   1.168  14.041 -2.4978  0.2682  0.1437
19822TIP3    H280958   6.054   1.310  14.013  2.2611 -1.2177 -1.1145
19823TIP3   OH280959   2.260   0.605  12.879 -0.6679 -0.2619  0.3400
19823TIP3    H180960   2.228   0.681  12.927 -0.0483 -0.4922  1.1400
19823TIP3    H280961   2.355   0.610  12.886 -0.6309 -1.5177  1.0800
19824TIP3   OH280962   6.287   3.926   0.317 -0.0305  0.3935  0.8033
19824TIP3    H180963   6.239   3.971   0.386 -0.6686  0.0801  0.5780
19824TIP3    H280964   6.271   3.978   0.238  0.4708  0.5997  0.8335
19825TIP3   OH280965   2.928   3.451  15.854 -0.4840  0.1319  0.0445
19825TIP3    H180966   3.016   3.425  15.829 -0.5066  1.5099 -1.6635
19825TIP3    H280967   2.914   3.409  15.939  1.9125  0.1222  0.5138
19826TIP3   OH280968   0.881   2.316   4.793  0.2600 -0.4705 -0.2983
19826TIP3    H180969   0.795   2.329   4.753  0.4028 -0.6570 -0.6739
19826TIP3    H280970   0.884   2.378   4.866  1.1793  2.1280 -2.3789
19827TIP3   OH280971   5.485   3.867   5.246 -0.4691 -0.2909 -0.5535
19827TIP3    H180972   5.534   3.922   5.185  0.7594 -1.1557 -0.4054
19827TIP3    H280973   5.450   3.796   5.191  2.2613 -2.1594 -0.0929
19828TIP3   OH280974   0.510   1.386   2.228 -0.5441 -0.4492  0.1989
19828TIP3    H180975   0.480   1.445   2.297 -0.9205  1.8707 -1.7892
19828TIP3    H280976   0.430   1.347   2.193 -0.4872 -0.5134  0.1385
19829TIP3   OH280977   1.077   0.356  10.790  0.4155 -0.0800  0.4431
19829TIP3    H180978   1.090   0.428  10.728 -1.5095 -0.0752 -0.0242
19829TIP3    H280979   0.983   0.356  10.808  0.2814 -2.6493  0.1914
19830TIP3   OH280980   3.325   0.855   0.691 -0.2144 -0.3392 -0.2023
19830TIP3    H180981   3.332   0.783   0.754  2.1959  0.8655  1.0438
19830TIP3    H280982   3.412   0.863   0.654  0.1375  3.0061  1.0017
19831TIP3   OH280983   2.933   4.055   2.172  0.6998  0.0803 -0.5466
19831TIP3    H180984   2.992   3.985   2.143 -1.1692 -2.0479  0.4466
19831TIP3    H280985   2.991   4.122   2.208  2.5457 -2.2962  1.2324
19832TIP3   OH280986   1.892   0.200  12.902  0.3382  0.3411  0.1606
19832TIP3    H180987   1.848   0.266  12.955 -0.7225  0.7052 -1.1550
19832TIP3    H280988   1.880   0.119  12.951  2.0270  1.1263  2.0153
19833TIP3   OH280989   1.636   0.624   2.051 -0.0030  0.3086  0.2741
19833TIP3    H180990   1.659   0.546   2.000 -3.1842  0.2380 -1.3629
19833TIP3    H280991   1.612   0.689   1.985  0.1643  1.8513  1.6616
19834TIP3   OH280992   1.009   4.702  12.393 -0.1473  0.8467  0.0424
19834TIP3    H180993   1.082   4.726  12.336 -0.0680  1.7610  0.5095
19834TIP3    H280994   0.965   4.785  12.411 -1.4008  0.2896 -0.3519
19835TIP3   OH280995   2.979   1.103   2.472  0.3833 -0.0156  0.1670
19835TIP3    H180996   3.038   1.177   2.460  1.0649 -0.7122 -1.0555
19835TIP3    H280997   2.975   1.062   2.386 -2.1715  0.1910  0.1148
19836TIP3   OH280998   1.666   5.681  15.291 -0.1579 -0.3260  0.2329
19836TIP3    H180999   1.689   5.616  15.356 -0.4228 -0.6018  0.0535
19836TIP3    H281000   1.605   5.740  15.336 -0.4832 -0.6220  0.1817
19837TIP3   OH281001   5.345   3.558  15.509  0.3842 -0.4008  0.1096
19837TIP3    H181002   5.308   3.514  15.432  0.2998 -1.3048  0.6523
19837TIP3    H281003   5.362   3.647  15.479 -0.8868 -0.3580 -0.5754
19838TIP3   OH281004   2.109   0.843  16.318  0.0241  0.2770  0.0919
19838TIP3    H181005   2.079   0.754  16.338  0.8546 -0.1918 -0.6658
19838TIP3    H281006   2.061   0.867  16.239 -0.8728  0.8722  0.7995
19839TIP3   OH281007   3.834   1.359   1.564 -0.2373  0.1248 -0.7195
19839TIP3    H181008   3.831   1.322   1.653  0.9278 -0.0517 -0.7425
19839TIP3    H281009   3.901   1.308   1.519 -0.3815  0.6243 -1.5202
19840TIP3   OH281010   1.153   3.043   3.185 -0.0020  0.6742  0.8763
19840TIP3    H181011   1.115   2.966   3.229 -2.3854  0.9156 -0.5594
19840TIP3    H281012   1.122   3.117   3.237  1.1443  0.7546  1.4664
19841TIP3   OH281013   2.143   5.342  11.066 -0.2170 -0.0449 -0.6775
19841TIP3    H181014   2.180   5.255  11.055  0.4134  0.0667  0.4140
19841TIP3    H281015   2.071   5.329  11.129 -1.3164 -0.0644 -1.8929
19842TIP3   OH281016   2.972   1.621  17.075  0.7405 -0.1170  0.1756
19842TIP3    H181017   2.916   1.571  17.134 -0.1378  0.0196 -0.5320
19842TIP3    H281018   3.008   1.691  17.130  1.7912 -1.3406  1.1186
19843TIP3   OH281019   1.168   5.045  13.296 -0.3952 -0.0774  0.4154
19843TIP3    H181020   1.232   4.974  13.306 -0.5336 -0.2592  0.0365
19843TIP3    H281021   1.172   5.093  13.378  1.4142  0.8881 -0.1748
19844TIP3   OH281022   4.271   2.524  17.061  0.3504 -0.1052  0.1397
19844TIP3    H181023   4.352   2.546  17.107  0.2360 -0.9955  0.7917
19844TIP3    H281024   4.206   2.585  17.097  0.3628 -0.5034  0.8696
19845TIP3   OH281025   4.711   4.756  12.569  0.5032 -0.5825  0.6369
19845TIP3    H181026   4.679   4.714  12.490  0.0411 -0.4246  0.7368
19845TIP3    H281027   4.647   4.733  12.637  0.5731 -0.2294  0.8291
19846TIP3   OH281028   3.676   3.345   3.604  0.2482  0.1147 -0.5504
19846TIP3    H181029   3.670   3.439   3.587  1.2129  0.1810 -0.5389
19846TIP3    H281030   3.602   3.327   3.663  0.2496  0.9274 -0.2875
19847TIP3   OH281031   4.004   4.250   0.037  0.0011 -0.3920  0.0647
19847TIP3    H181032   4.020   4.270   0.130  1.0265 -0.1775 -0.1413
19847TIP3    H281033   3.995   4.336  -0.004  0.8559 -0.4364 -0.2386
19848TIP3   OH281034   2.562   2.940   0.730  0.3841 -0.1117 -0.3249
19848TIP3    H181035   2.493   2.895   0.681  0.2940 -1.0776  0.6736
19848TIP3    H281036   2.642   2.891   0.709  0.7655  0.8711 -1.3019
19849TIP3   OH281037   3.419   2.218  15.377 -0.5379  0.1798 -0.5626
19849TIP3    H181038   3.423   2.295  15.320 -0.3388 -0.3926 -1.3370
19849TIP3    H281039   3.511   2.191  15.387 -0.4522  0.9875  1.0318
19850TIP3   OH281040   2.715   3.031  12.574 -0.0665 -0.2949 -0.2885
19850TIP3    H181041   2.790   2.979  12.547  0.0598 -0.0925 -0.3305
19850TIP3    H281042   2.751   3.095  12.635 -0.4998 -1.3593  1.1283
19851TIP3   OH281043   5.404   5.016  13.653 -0.1384 -0.0052  0.8463
19851TIP3    H181044   5.478   5.039  13.598 -0.5214 -0.3654  0.1589
19851TIP3    H281045   5.424   4.929  13.686 -0.6322 -0.4822 -0.0542
19852TIP3   OH281046   0.040   1.227   3.965 -0.0468 -0.1706 -0.3334
19852TIP3    H181047   0.120   1.275   3.944 -1.1660  1.2531 -1.6100
19852TIP3    H281048   0.070   1.140   3.994  1.9747  0.7556  0.5105
19853TIP3   OH281049   3.028   3.930  12.899 -0.0220  0.1692 -0.2979
19853TIP3    H181050   3.014   3.861  12.834  0.1411 -1.1020  0.9801
19853TIP3    H281051   3.067   3.886  12.974  1.4505  1.9102  0.0321
19854TIP3   OH281052   1.943   0.401  17.197  0.0860  0.3668 -0.5363
19854TIP3    H181053   2.009   0.417  17.129  0.4224 -1.7819 -0.7918
19854TIP3    H281054   1.883   0.475  17.190  0.3016  0.3937 -2.9833
19855TIP3   OH281055   3.536   6.780   2.082  0.2968 -0.4216 -0.2140
19855TIP3    H181056   3.448   6.806   2.055  0.4539 -0.1017 -0.4113
19855TIP3    H281057   3.565   6.849   2.142 -0.5456 -1.7169  1.8304
19856TIP3   OH281058   0.248   4.547  11.955  0.3201  0.1065 -0.1786
19856TIP3    H181059   0.155   4.547  11.930  0.5438 -0.5512 -1.0483
19856TIP3    H281060   0.278   4.458  11.936  1.0062  0.1575  0.6004
19857TIP3   OH281061   2.670   3.568   0.369  1.0471  0.0261  0.3452
19857TIP3    H181062   2.722   3.510   0.314 -0.2424  0.2252 -1.1682
19857TIP3    H281063   2.726   3.644   0.384  2.1537 -0.8741  1.0233
19858TIP3   OH281064   6.151   6.732  12.026  0.2059 -0.5334 -0.0791
19858TIP3    H181065   6.245   6.718  12.013 -0.2743 -3.3839 -1.3529
19858TIP3    H281066   6.144   6.769  12.113  2.5177 -0.1783  0.0255
19859TIP3   OH281067   5.055   3.479   3.455  0.4294 -0.3172 -0.1308
19859TIP3    H181068   5.062   3.445   3.544  0.3004 -1.1140 -0.4113
19859TIP3    H281069   5.121   3.430   3.405 -2.0385 -2.7320 -1.2739
19860TIP3   OH281070   5.093   4.297  11.635  0.5866 -0.0176 -0.3238
19860TIP3    H181071   5.065   4.388  11.646  0.3559  0.1565 -2.0624
19860TIP3    H281072   5.188   4.302  11.625  0.7348 -0.1237  0.9153
19861TIP3   OH281073   0.881   2.868  11.130  0.0663 -0.1619  0.2611
19861TIP3    H181074   0.914   2.801  11.190  0.3393 -0.8242 -0.6149
19861TIP3    H281075   0.796   2.892  11.166  0.8410  0.5119  1.7188
19862TIP3   OH281076   2.089   4.963   2.499  0.0856  0.7136  0.2400
19862TIP3    H181077   2.176   4.990   2.469 -0.1537 -0.3461 -1.5226
19862TIP3    H281078   2.082   4.871   2.473 -0.6622  0.0491  2.5107
19863TIP3   OH281079   5.212   6.682  10.543 -0.0782 -0.0293 -0.4048
19863TIP3    H181080   5.156   6.605  10.540 -0.2503  0.1003 -0.6154
19863TIP3    H281081   5.238   6.696  10.451  0.2373 -0.0468 -0.3171
19864TIP3   OH281082   1.708   0.577  12.079  0.0971 -0.5125  0.0046
19864TIP3    H181083   1.648   0.598  12.008  1.0418  0.0993 -0.6327
19864TIP3    H281084   1.775   0.522  12.038  0.8112  0.0871  0.3559
19865TIP3   OH281085   3.895   3.411  17.115 -0.6242  0.1411  0.6488
19865TIP3    H181086   3.945   3.401  17.196 -1.4987  0.0515  1.1991
19865TIP3    H281087   3.955   3.384  17.046  1.3392  3.5239  0.8598
19866TIP3   OH281088   3.830   0.591   2.519  0.0937  0.1078 -0.1879
19866TIP3    H181089   3.887   0.527   2.476 -0.2592 -0.7215  0.5683
19866TIP3    H281090   3.784   0.542   2.586 -0.3331  1.1182  0.2806
19867TIP3   OH281091   6.096   0.115   6.090 -0.0703  0.0939 -0.0602
19867TIP3    H181092   6.127   0.203   6.111  0.4593 -0.2333  0.5806
19867TIP3    H281093   6.165   0.078   6.035 -0.8282  0.4701 -1.3155
19868TIP3   OH281094   6.767   4.474  16.444 -0.7599  0.3139  0.3236
19868TIP3    H181095   6.748   4.532  16.370 -1.5605  1.0629  1.0983
19868TIP3    H281096   6.686   4.424  16.457 -0.5039 -0.0671  0.4823
19869TIP3   OH281097   6.363   2.743  14.709 -0.6206  1.1591  0.0443
19869TIP3    H181098   6.348   2.773  14.620 -1.6388  1.0987  0.1819
19869TIP3    H281099   6.372   2.824  14.760  0.9822  1.1985 -0.2510
19870TIP3   OH281100   3.991   3.820   3.156 -0.5932 -0.3965 -0.1018
19870TIP3    H181101   4.067   3.831   3.214 -0.2764  1.4188 -0.7685
19870TIP3    H281102   3.919   3.863   3.203 -0.2359  1.4843 -1.1517
19871TIP3   OH281103   1.559   3.244  12.168  0.0750  0.0117  0.5659
19871TIP3    H181104   1.474   3.282  12.147 -0.3342  0.1396  2.2825
19871TIP3    H281105   1.617   3.320  12.177  0.5813 -0.1081 -1.2964
19872TIP3   OH281106   4.911   0.147   1.965 -0.9025 -0.0478  0.4466
19872TIP3    H181107   4.837   0.153   1.905 -0.2175 -0.1974 -0.4329
19872TIP3    H281108   4.901   0.061   2.006 -0.6498 -0.5110 -0.4401
19873TIP3   OH281109   4.172   0.360  17.021  0.1051 -0.9215 -0.4784
19873TIP3    H181110   4.238   0.301  16.983 -0.4059 -0.9750 -1.3105
19873TIP3    H281111   4.154   0.423  16.951  1.0371  0.5738  0.5707
19874TIP3   OH281112   0.380   5.272  14.481  0.3266  0.2844 -0.3369
19874TIP3    H181113   0.336   5.192  14.509  0.8028  0.6552  1.5896
19874TIP3    H281114   0.394   5.321  14.561  1.8849  1.3685 -1.2216
19875TIP3   OH281115   1.735   2.008  16.756 -0.0981 -0.4095  0.8513
19875TIP3    H181116   1.644   1.980  16.770 -0.2957  0.1660  0.7624
19875TIP3    H281117   1.749   1.997  16.662  0.4272 -1.9397  1.0878
19876TIP3   OH281118   3.502   5.547   4.342  0.3018 -0.8719  0.7726
19876TIP3    H181119   3.418   5.562   4.385  0.2372 -2.1443  1.1341
19876TIP3    H281120   3.564   5.534   4.414  1.3664  2.4091  0.6074
19877TIP3   OH281121   5.750   2.373   2.392  0.1563  0.0019  0.1359
19877TIP3    H181122   5.698   2.418   2.326 -0.5180  0.0081  0.6569
19877TIP3    H281123   5.786   2.443   2.446 -2.0242 -0.0433  1.8029
19878TIP3   OH281124   6.311   6.423   5.993  0.0357  0.0545 -0.0364
19878TIP3    H181125   6.386   6.458   6.041  0.7269 -2.2347  0.6516
19878TIP3    H281126   6.330   6.443   5.901  1.1790  0.0551  0.1864
19879TIP3   OH281127   3.944   1.874  10.889 -0.2144  0.0479 -0.2333
19879TIP3    H181128   3.882   1.862  10.961 -0.9593  0.3654 -0.8037
19879TIP3    H281129   3.962   1.785  10.858  0.9170 -0.1740  0.9895
19880TIP3   OH281130   1.702   3.193  15.041 -0.1136  0.5166  0.0922
19880TIP3    H181131   1.687   3.099  15.040 -1.9368  0.7397 -2.0401
19880TIP3    H281132   1.671   3.221  15.127 -2.2628 -0.5251 -0.2751
19881TIP3   OH281133   6.754   6.514  16.648 -0.1129 -0.1821  0.2460
19881TIP3    H181134   6.831   6.506  16.705 -0.9840  0.8048  1.6365
19881TIP3    H281135   6.736   6.608  16.646 -1.3068 -0.3984 -0.0222
19882TIP3   OH281136   6.374   4.118   5.469 -0.6971  0.1472  0.2711
19882TIP3    H181137   6.408   4.095   5.383 -0.2393  0.4840  0.3552
19882TIP3    H281138   6.313   4.048   5.491  0.6923 -1.0045  0.5519
19883TIP3   OH281139   6.712   3.647   4.141 -0.7892  0.2526  0.4490
19883TIP3    H181140   6.684   3.652   4.050  0.0178  0.4507  0.2096
19883TIP3    H281141   6.757   3.729   4.158 -0.1774 -0.1390  0.7691
19884TIP3   OH281142   4.482   6.781  12.889  0.2986 -0.5203  0.4497
19884TIP3    H181143   4.407   6.820  12.933  0.7095  0.6408  0.1797
19884TIP3    H281144   4.525   6.855  12.846  0.2833 -1.5008 -1.3604
19885TIP3   OH281145   0.279   2.081   1.390  0.0037 -0.1858  0.6020
19885TIP3    H181146   0.334   2.153   1.360 -1.0679  1.1857  1.8092
19885TIP3    H281147   0.338   2.006   1.395  1.0738  0.4928 -1.0009
19886TIP3   OH281148   6.499   2.067   6.206 -0.7906 -0.0905  0.3173
19886TIP3    H181149   6.482   1.974   6.191 -3.3190  0.3394 -0.0245
19886TIP3    H281150   6.431   2.093   6.269  0.0642  1.4616  0.6408
19887TIP3   OH281151   0.969   6.276  11.947 -0.5650  0.4289 -0.6995
19887TIP3    H181152   1.008   6.285  12.034  1.2164 -1.0809 -1.2743
19887TIP3    H281153   0.902   6.209  11.958 -0.1410  0.0260 -0.5325
19888TIP3   OH281154   1.566   2.722  14.977  0.2336  0.3154  0.1638
19888TIP3    H181155   1.489   2.775  15.000  1.1386  1.2036  1.2880
19888TIP3    H281156   1.599   2.691  15.061  2.0395  1.3215 -0.1272
19889TIP3   OH281157   6.526   5.117  12.324  0.1861  0.3299 -0.4539
19889TIP3    H181158   6.518   5.094  12.416 -1.3303  0.1361 -0.6010
19889TIP3    H281159   6.613   5.088  12.299  0.9965  1.2498  1.1378
19890TIP3   OH281160   4.751   6.840  13.762 -0.3765  0.0503 -0.0021
19890TIP3    H181161   4.682   6.783  13.728 -0.1014 -0.4035  0.1938
19890TIP3    H281162   4.784   6.887  13.686 -0.5888 -0.0637 -0.1654
19891TIP3   OH281163   0.452   1.599  15.133  0.4210 -0.2669 -0.2016
19891TIP3    H181164   0.530   1.543  15.136  0.1879 -0.6594 -0.9183
19891TIP3    H281165   0.464   1.652  15.054  1.1663  1.5330  1.0569
19892TIP3   OH281166   3.759   4.358   5.628  0.3742 -0.3892 -0.1779
19892TIP3    H181167   3.685   4.380   5.571  0.0866 -1.3043 -0.1755
19892TIP3    H281168   3.717   4.327   5.709  0.7681 -0.0406  0.1581
19893TIP3   OH281169   1.540   0.598   6.629 -0.5867  0.5040 -0.2329
19893TIP3    H181170   1.632   0.617   6.649  0.4599  0.7220 -4.3268
19893TIP3    H281171   1.497   0.684   6.629 -1.0558  0.3540  2.2121
19894TIP3   OH281172   2.535   0.366   2.233 -0.3415  0.5889  0.0312
19894TIP3    H181173   2.531   0.291   2.174  0.9213  0.0692  0.5734
19894TIP3    H281174   2.554   0.440   2.177 -0.4979  0.3223 -0.3775
19895TIP3   OH281175   2.852   5.009   3.772 -0.1827 -0.8506  0.8964
19895TIP3    H181176   2.769   5.007   3.725  0.0681  0.1386  0.3985
19895TIP3    H281177   2.826   5.016   3.864 -0.7147  2.4819  0.6132
19896TIP3   OH281178   1.436   3.607  12.132  0.4310  0.0698  0.4479
19896TIP3    H181179   1.375   3.640  12.198 -1.3889 -1.4532 -0.3503
19896TIP3    H281180   1.408   3.516  12.117  0.2341  0.5572 -2.9122
19897TIP3   OH281181   4.594   6.113  13.773  0.1905  0.1830  0.4143
19897TIP3    H181182   4.558   6.189  13.820  0.8876  0.1849  0.9684
19897TIP3    H281183   4.648   6.068  13.838  0.4774 -0.3103 -0.1532
19898TIP3   OH281184   4.592   3.531   1.511 -0.5929 -0.3513 -0.7481
19898TIP3    H181185   4.522   3.494   1.564 -0.5099 -0.8284 -0.9737
19898TIP3    H281186   4.591   3.625   1.533 -1.0257 -0.4248 -0.4423
19899TIP3   OH281187   5.854   5.843   1.611  0.2249 -0.5077 -0.2026
19899TIP3    H181188   5.943   5.837   1.644  0.1887 -0.2413 -0.0577
19899TIP3    H281189   5.811   5.908   1.667  1.1350  2.7117 -2.9277
19900TIP3   OH281190   4.841   6.722  14.020  0.4267  0.1534 -0.1518
19900TIP3    H181191   4.870   6.801  14.065  3.0868 -0.6890 -0.2114
19900TIP3    H281192   4.810   6.753  13.935  0.9084  1.1774  0.0381
19901TIP3   OH281193   3.785   3.532  11.317 -0.4652  0.3962 -0.4476
19901TIP3    H181194   3.873   3.536  11.354 -0.5506  0.6977 -0.2818
19901TIP3    H281195   3.772   3.617  11.276 -0.8167  0.4772 -0.1690
19902TIP3   OH281196   3.775   2.549   3.181 -0.2174 -0.6155 -0.1086
19902TIP3    H181197   3.797   2.641   3.166 -1.8782 -0.3737 -1.2384
19902TIP3    H281198   3.819   2.527   3.264  0.1786  1.1914  0.1928
19903TIP3   OH281199   0.596   6.714   3.282 -0.6316  0.0741 -0.0732
19903TIP3    H181200   0.554   6.744   3.362  0.6983 -0.7168  0.9661
19903TIP3    H281201   0.575   6.621   3.277  0.9389 -0.3402  0.4800
19904TIP3   OH281202   4.708   2.232   3.413  0.1448 -0.8216 -0.1438
19904TIP3    H181203   4.715   2.292   3.487  0.6864 -0.3904 -0.5308
19904TIP3    H281204   4.639   2.171   3.437 -1.2399  0.6505 -0.2225
19905TIP3   OH281205   3.201   0.479   2.859  0.9761 -0.3167 -0.1632
19905TIP3    H181206   3.173   0.532   2.933  0.3566 -1.7732  0.7005
19905TIP3    H281207   3.144   0.507   2.787  0.0149 -0.4308  0.5186
19906TIP3   OH281208   3.348   6.413   1.110 -0.1501 -0.1357 -0.9656
19906TIP3    H181209   3.319   6.498   1.144  1.7769  0.3687 -0.4564
19906TIP3    H281210   3.308   6.407   1.023 -1.1104  0.8300 -0.6226
19907TIP3   OH281211   4.409   6.442  15.268 -0.3010  0.6479 -0.1790
19907TIP3    H181212   4.458   6.524  15.276 -0.2372  0.8391 -2.1850
19907TIP3    H281213   4.318   6.470  15.259 -0.2200  0.5436 -1.4141
19908TIP3   OH281214   5.691   3.736  17.073  0.2374  0.2003 -0.3176
19908TIP3    H181215   5.754   3.724  17.002 -0.1200  0.3059 -0.6550
19908TIP3    H281216   5.609   3.759  17.029 -0.6057 -2.0549 -0.0221
19909TIP3   OH281217   5.258   4.358  12.363  0.1326  0.1570 -0.0550
19909TIP3    H181218   5.338   4.348  12.312  0.5579 -0.7784  0.7507
19909TIP3    H281219   5.192   4.310  12.314 -0.2216  1.7911 -1.2566
19910TIP3   OH281220   4.403   4.256  17.190 -0.0268  0.0749  0.4391
19910TIP3    H181221   4.337   4.228  17.127 -2.6256  1.9658  2.0731
19910TIP3    H281222   4.424   4.346  17.164 -1.5101  1.0712  2.3724
19911TIP3   OH281223   3.546   0.600  13.813 -0.0324 -0.0649  0.2179
19911TIP3    H181224   3.602   0.525  13.834 -2.3756 -2.0478 -0.0822
19911TIP3    H281225   3.537   0.597  13.717  1.0070  1.5587  0.0337
19912TIP3   OH281226   6.092   6.226  16.729  0.0401  0.3512 -0.9133
19912TIP3    H181227   6.145   6.183  16.662  0.3696  0.8031 -0.9487
19912TIP3    H281228   6.107   6.319  16.715 -0.6828  0.4789 -0.8510
19913TIP3   OH281229   1.602   6.236  15.223  0.0690 -0.2695  0.4274
19913TIP3    H181230   1.641   6.317  15.256  2.9640 -1.6243  0.6950
19913TIP3    H281231   1.606   6.176  15.298 -0.4126 -1.1703 -0.2537
19914TIP3   OH281232   1.955   3.397   5.170  0.1358  0.1779  0.2474
19914TIP3    H181233   2.046   3.371   5.152 -0.0069 -1.5187  1.7094
19914TIP3    H281234   1.956   3.422   5.262 -1.1890 -1.5590  0.7899
19915TIP3   OH281235   1.729   4.395  13.406 -0.1737 -0.6505  0.0106
19915TIP3    H181236   1.801   4.347  13.446 -0.4424 -1.0513  0.0199
19915TIP3    H281237   1.768   4.435  13.328  0.7386  1.3755  1.3986
19916TIP3   OH281238   4.356   0.610  11.917  0.2620  0.2468 -0.2043
19916TIP3    H181239   4.362   0.681  11.981  1.6671 -1.5328  1.7919
19916TIP3    H281240   4.440   0.611  11.872  0.2555 -0.0963 -0.2252
19917TIP3   OH281241   5.434   4.783   2.627 -0.0779  0.0137  0.6836
19917TIP3    H181242   5.396   4.844   2.563 -1.3638 -0.4689  0.9574
19917TIP3    H281243   5.488   4.839   2.682  0.5107  0.5507 -0.3938
19918TIP3   OH281244   4.339   3.289  11.984  0.2639 -0.6222  0.3814
19918TIP3    H181245   4.279   3.218  11.965 -1.3739  0.5773  0.8763
19918TIP3    H281246   4.348   3.288  12.079 -0.4189  0.3218  0.4648
19919TIP3   OH281247   1.355   2.091   5.393  0.1105  0.0473 -0.1444
19919TIP3    H181248   1.408   2.020   5.357  1.0814  0.0500  1.2169
19919TIP3    H281249   1.266   2.054   5.397  0.4016 -0.7018 -0.4578
19920TIP3   OH281250   2.526   4.767  16.508 -0.5505 -0.8462 -0.2361
19920TIP3    H181251   2.511   4.849  16.461  0.7875 -0.7419 -0.5205
19920TIP3    H281252   2.584   4.717  16.451 -0.8801 -1.7550  0.2045
19921TIP3   OH281253   5.774   5.790   1.263  0.0761  0.4607 -0.4437
19921TIP3    H181254   5.685   5.775   1.294 -0.2152  2.4428 -0.1944
19921TIP3    H281255   5.769   5.777   1.168 -0.5398  0.7884 -0.4612
19922TIP3   OH281256   2.123   5.961  15.192  0.1901  0.6224  0.4353
19922TIP3    H181257   2.054   5.913  15.238  0.4105 -1.0555 -0.8732
19922TIP3    H281258   2.078   6.030  15.144 -0.6667 -0.7007 -0.7214
19923TIP3   OH281259   4.676   0.823  14.845  0.3527  0.3982  0.0888
19923TIP3    H181260   4.711   0.911  14.852 -0.3595  0.8570 -1.6338
19923TIP3    H281261   4.594   0.825  14.894 -0.7540  1.3557 -1.7028
19924TIP3   OH281262   3.641   5.823  12.007 -0.7785 -0.1523 -0.5610
19924TIP3    H181263   3.594   5.756  12.056  0.2826 -0.1973  0.4185
19924TIP3    H281264   3.733   5.808  12.027 -0.5561  2.0474  0.2959
19925TIP3   OH281265   2.974   4.391   3.667  0.2780 -0.0319  0.1793
19925TIP3    H181266   2.960   4.441   3.747 -0.6823 -0.6487  0.4082
19925TIP3    H281267   2.887   4.366   3.638  0.7267 -1.6900  0.1541
19926TIP3   OH281268   0.949   2.621  14.762  0.1111 -0.0737  0.0853
19926TIP3    H181269   0.992   2.686  14.706  0.6230  1.3792  2.0320
19926TIP3    H281270   0.860   2.616  14.729  0.0823  1.5871 -0.1991
19927TIP3   OH281271   6.334   4.264  15.491  0.4396 -0.7711 -0.4784
19927TIP3    H181272   6.243   4.277  15.465  0.7555  1.2985 -0.7512
19927TIP3    H281273   6.351   4.335  15.553  1.7446 -1.4011 -0.0873
19928TIP3   OH281274   1.702   2.895  11.528 -0.5943 -0.0725  0.1383
19928TIP3    H181275   1.624   2.949  11.515 -1.1261 -0.0544  2.7004
19928TIP3    H281276   1.775   2.949  11.497 -1.5413 -0.1106 -2.3582
19929TIP3   OH281277   0.335   5.171  17.031 -0.2250  0.3825 -0.6569
19929TIP3    H181278   0.301   5.260  17.041  0.9869  0.9226 -1.1120
19929TIP3    H281279   0.391   5.175  16.953 -1.6373 -1.2555 -1.8149
19930TIP3   OH281280   4.827   1.317   3.419  0.3824  0.3732 -0.6636
19930TIP3    H181281   4.748   1.362   3.392 -0.0913 -0.9849 -1.6752
19930TIP3    H281282   4.893   1.342   3.353  0.3993  0.3869 -0.6414
19931TIP3   OH281283   1.111   3.925   5.363 -0.2891  0.3960 -0.3499
19931TIP3    H181284   1.036   3.971   5.399 -0.7567  0.2477 -1.1185
19931TIP3    H281285   1.108   3.838   5.403 -0.1492  0.5985  0.1094
19932TIP3   OH281286   3.201   5.254  11.029  0.2090  0.3307  0.2268
19932TIP3    H181287   3.128   5.193  11.037  1.5029 -1.0884  3.1793
19932TIP3    H281288   3.236   5.240  10.941 -1.6605 -0.5920 -0.4077
19933TIP3   OH281289   0.185   0.601  16.475 -0.1009  0.0048 -0.2920
19933TIP3    H181290   0.195   0.608  16.380  1.4797  0.9007 -0.0853
19933TIP3    H281291   0.188   0.507  16.492 -0.9594 -0.2001 -1.1658
19934TIP3   OH281292   4.789   5.227   4.978  0.5549 -0.5250 -0.1276
19934TIP3    H181293   4.781   5.156   4.914  0.3417 -1.2332  0.6697
19934TIP3    H281294   4.871   5.270   4.954  1.3238 -1.7932  0.0901
19935TIP3   OH281295   1.641   4.669   0.422  0.6655 -0.0180  0.7502
19935TIP3    H181296   1.691   4.692   0.344  2.5677 -1.9963  1.2750
19935TIP3    H281297   1.694   4.703   0.495 -0.6145  0.9853  1.2600
19936TIP3   OH281298   3.126   3.161  15.990  1.2779 -0.0799  0.6058
19936TIP3    H181299   3.178   3.098  15.940  0.7584  0.4108 -0.5599
19936TIP3    H281300   3.170   3.245  15.977  1.7430 -0.1024  1.8456
19937TIP3   OH281301   3.182   3.873   5.203 -0.6895 -0.0570  0.1281
19937TIP3    H181302   3.232   3.953   5.187 -2.2555  0.7129 -1.1736
19937TIP3    H281303   3.115   3.899   5.266 -1.8090 -0.0601 -1.0299
19938TIP3   OH281304   1.369   3.196   4.206 -0.3428  0.0310 -0.4690
19938TIP3    H181305   1.361   3.112   4.160 -0.1429 -0.5010  0.4517
19938TIP3    H281306   1.455   3.229   4.180 -0.4498 -0.0107 -0.8902
19939TIP3   OH281307   0.317   1.746   3.699  0.2609 -0.2925 -0.2905
19939TIP3    H181308   0.330   1.737   3.794  0.5364 -1.7510 -0.4356
19939TIP3    H281309   0.390   1.697   3.661 -1.7949 -2.8642 -1.2009
19940TIP3   OH281310   5.105   2.494   0.373 -0.0459  0.1854  0.2378
19940TIP3    H181311   5.143   2.582   0.375 -0.7962  0.5202 -0.1581
19940TIP3    H281312   5.035   2.496   0.438 -0.7102  0.1844 -0.4678
19941TIP3   OH281313   1.984   2.250   0.573  0.1733  0.0214  0.4654
19941TIP3    H181314   1.957   2.210   0.656 -0.0368  1.4210  1.1100
19941TIP3    H281315   1.941   2.335   0.573  1.6386  0.8005 -0.2303
19942TIP3   OH281316   4.537   1.589  13.670 -0.5117  0.4619  0.2567
19942TIP3    H181317   4.591   1.642  13.729 -0.3107 -0.1702  0.6471
19942TIP3    H281318   4.600   1.533  13.624 -0.6020  1.3065 -0.9590
19943TIP3   OH281319   6.599   3.497   6.042  0.1220  0.0319 -0.3954
19943TIP3    H181320   6.567   3.478   6.130  0.7623  0.2852 -0.1059
19943TIP3    H281321   6.535   3.558   6.006 -0.4830 -0.5554 -0.3417
19944TIP3   OH281322   2.068   3.060  14.262  0.7266 -0.1959  0.3776
19944TIP3    H181323   2.153   3.087  14.226  1.0379 -2.5933 -0.8560
19944TIP3    H281324   2.091   3.009  14.340  0.3943 -0.5195  0.2619
19945TIP3   OH281325   3.366   3.896   5.810  0.3337 -0.1489 -0.0210
19945TIP3    H181326   3.393   3.885   5.901 -1.7534  1.9163  0.9567
19945TIP3    H281327   3.272   3.880   5.811  0.3477 -0.5807 -1.9445
19946TIP3   OH281328   3.314   6.096  15.058 -0.6214 -0.1949  0.4173
19946TIP3    H181329   3.270   6.017  15.090  0.3774 -1.0206 -0.1969
19946TIP3    H281330   3.403   6.090  15.091 -0.5545  0.7495  0.4536
19947TIP3   OH281331   4.070   6.228  15.370  0.1433 -0.0183 -0.8892
19947TIP3    H181332   4.123   6.232  15.449  0.0111  0.4919 -0.8197
19947TIP3    H281333   3.988   6.187  15.397  0.1227  0.0988 -0.7745
19948TIP3   OH281334   0.563   2.473  16.541 -0.1561 -0.7908 -0.6919
19948TIP3    H181335   0.522   2.558  16.529  1.6985  0.5898  1.9479
19948TIP3    H281336   0.647   2.480  16.497  1.2207 -0.1503  1.8716
19949TIP3   OH281337   3.142   4.149   3.786 -0.3385 -0.0715  0.3240
19949TIP3    H181338   3.096   4.083   3.735 -0.5436  2.2594 -2.8237
19949TIP3    H281339   3.073   4.196   3.833 -0.5696 -0.1221  0.0372
19950TIP3   OH281340   5.084   6.781  16.415  0.5817  0.1486  0.1566
19950TIP3    H181341   5.023   6.842  16.373 -0.7058 -2.1526 -1.5650
19950TIP3    H281342   5.152   6.765  16.349 -0.0625 -1.5349 -0.1694
19951TIP3   OH281343   1.325   3.926   3.221 -0.0455 -0.3564  0.7999
19951TIP3    H181344   1.336   4.008   3.173 -0.8172 -1.5187 -1.5549
19951TIP3    H281345   1.355   3.858   3.159  1.4750 -1.8393  2.9866
19952TIP3   OH281346   6.116   1.052  12.762 -0.4676 -0.4816 -0.0914
19952TIP3    H181347   6.066   0.978  12.799  0.5837 -0.7684  0.7843
19952TIP3    H281348   6.201   1.047  12.804 -0.3500  1.2120 -0.0737
19953TIP3   OH281349   0.120   0.463   0.588 -0.3496  0.4453  0.3900
19953TIP3    H181350   0.197   0.448   0.642  1.1993  1.0901 -1.5302
19953TIP3    H281351   0.154   0.472   0.499 -2.9857 -4.4707 -1.5336
19954TIP3   OH281352   6.767   2.718  11.010 -0.6305  0.1098  0.4762
19954TIP3    H181353   6.771   2.810  10.984  0.2216 -0.4754 -1.7621
19954TIP3    H281354   6.685   2.686  10.973  0.4197 -0.6483 -1.3729
19955TIP3   OH281355   1.736   0.726  10.578  0.7674  0.6567  0.0931
19955TIP3    H181356   1.799   0.747  10.509  1.6649 -0.9736  0.3625
19955TIP3    H281357   1.674   0.666  10.537  0.7367  0.4483  0.4428
19956TIP3   OH281358   4.820   3.298  17.199  0.3055 -0.1099 -0.0448
19956TIP3    H181359   4.768   3.251  17.263 -0.8723  0.0727 -0.8439
19956TIP3    H281360   4.798   3.390  17.212  0.3213 -0.0416 -0.4809
19957TIP3   OH281361   4.917   6.651   3.850  0.5827  0.2688 -0.0720
19957TIP3    H181362   4.856   6.725   3.856 -1.5378 -1.4580  2.4821
19957TIP3    H281363   4.997   6.683   3.892 -0.8517  0.7698  2.5713
19958TIP3   OH281364   4.284   2.275  11.322 -0.0060  0.2059 -0.2504
19958TIP3    H181365   4.223   2.297  11.393 -0.0242 -1.7913  0.4170
19958TIP3    H281366   4.229   2.235  11.255  0.2360  0.7137 -0.7661
19959TIP3   OH281367   3.350   4.208   4.650  0.4259  0.0322 -0.4476
19959TIP3    H181368   3.391   4.294   4.642  0.6043 -0.0210 -0.1089
19959TIP3    H281369   3.334   4.181   4.560 -0.5100  0.8397 -0.5540
19960TIP3   OH281370   3.788   4.989   3.761 -0.1177 -0.0325  0.0105
19960TIP3    H181371   3.744   4.919   3.712 -1.1979 -0.3492  1.3809
19960TIP3    H281372   3.745   5.069   3.730  0.4388 -0.0495 -0.8388
19961TIP3   OH281373   4.177   5.516  12.126 -0.3515  0.0800 -0.4247
19961TIP3    H181374   4.237   5.543  12.057 -0.8880  0.7648 -0.6354
19961TIP3    H281375   4.162   5.596  12.177 -4.0360  1.0010 -2.5928
19962TIP3   OH281376   4.930   4.123  15.988 -0.5299  0.6777 -0.2587
19962TIP3    H181377   5.010   4.107  15.939 -1.6405 -1.3236 -1.5222
19962TIP3    H281378   4.959   4.168  16.068  1.7887  0.2047 -0.7847
19963TIP3   OH281379   2.893   3.224  12.666 -0.0442 -0.8305  0.0987
19963TIP3    H181380   2.822   3.288  12.663  1.0047  0.4014  0.8436
19963TIP3    H281381   2.944   3.241  12.587 -0.2707 -1.3652 -0.1669
19964TIP3   OH281382   3.338   5.592   2.080  0.0158 -0.2165  0.3753
19964TIP3    H181383   3.265   5.651   2.097 -0.3017 -0.2219 -0.8763
19964TIP3    H281384   3.413   5.650   2.065  0.3391 -0.2138  1.8181
19965TIP3   OH281385   5.206   1.971   1.837  0.1264 -0.6437  0.0791
19965TIP3    H181386   5.245   2.019   1.764  0.1731 -0.6832  0.0778
19965TIP3    H281387   5.160   1.898   1.795 -1.9084  0.6700 -0.1221
19966TIP3   OH281388   4.495   3.927  10.684  0.1341 -0.1772 -0.1923
19966TIP3    H181389   4.479   3.876  10.605 -0.0850 -0.9794  0.3620
19966TIP3    H281390   4.416   3.915  10.737  0.1773  0.5503  0.0509
19967TIP3   OH281391   1.512   1.964  14.251  0.2713  0.0235  0.7802
19967TIP3    H181392   1.591   1.988  14.299  0.1407  2.1670  0.0470
19967TIP3    H281393   1.537   1.974  14.159 -0.2557 -1.3756  0.4631
19968TIP3   OH281394   2.144   1.004  16.552  0.0378 -0.8953  0.0195
19968TIP3    H181395   2.129   0.923  16.601 -0.2085 -0.3624  0.8452
19968TIP3    H281396   2.155   0.976  16.461  0.2767 -1.8792  0.3474
19969TIP3   OH281397   2.991   4.001  12.593 -0.5354 -0.2161 -0.2105
19969TIP3    H181398   3.015   4.008  12.686  1.9954 -0.5573 -0.7628
19969TIP3    H281399   3.042   4.070  12.550 -0.4605 -1.0608 -1.5398
19970TIP3   OH281400   2.494   3.396   3.254 -0.5240 -0.4030 -0.3944
19970TIP3    H181401   2.487   3.315   3.203 -0.1258  0.2964 -1.6081
19970TIP3    H281402   2.587   3.401   3.277 -0.5763 -0.3646 -0.1903
19971TIP3   OH281403   0.955   1.564   3.017  0.3140  0.1373 -0.5574
19971TIP3    H181404   1.048   1.578   2.999  0.2513  0.2347 -0.8054
19971TIP3    H281405   0.919   1.652   3.028  0.4514  0.0640  0.5506
19972TIP3   OH281406   0.777   2.376   5.329 -0.2964 -0.1786 -0.2502
19972TIP3    H181407   0.816   2.459   5.303 -0.8110 -0.1953 -1.1266
19972TIP3    H281408   0.694   2.399   5.371 -0.4855 -0.2489 -0.5811
19973TIP3   OH281409   2.544   0.493   6.258 -0.3683 -0.2470 -0.3595
19973TIP3    H181410   2.595   0.573   6.258  0.1260 -0.5253  1.5606
19973TIP3    H281411   2.470   0.512   6.201  0.7061  0.9154 -1.4222
19974TIP3   OH281412   3.121   4.211  16.351  0.2178  0.5220  0.2218
19974TIP3    H181413   3.075   4.294  16.360  2.0050  1.4246  1.8207
19974TIP3    H281414   3.135   4.181  16.441  1.3122 -0.5072 -0.2589
19975TIP3   OH281415   2.169   5.341   1.832  0.2758 -0.0910 -0.4694
19975TIP3    H181416   2.142   5.338   1.740 -1.8293 -1.5088  0.1168
19975TIP3    H281417   2.088   5.324   1.881  1.3296  0.6827  1.6616
19976TIP3   OH281418   1.782   4.311   0.487  0.4298  0.2605 -0.3363
19976TIP3    H181419   1.726   4.268   0.422 -0.1856  1.4844 -0.6444
19976TIP3    H281420   1.817   4.387   0.442 -1.2688  2.0508  1.1648
19977TIP3   OH281421   4.738   4.969   2.395 -0.1617  0.2330 -0.1905
19977TIP3    H181422   4.711   5.060   2.383 -2.3246 -0.2634  0.4551
19977TIP3    H281423   4.760   4.939   2.306 -0.5717  1.0641 -0.5847
19978TIP3   OH281424   5.737   5.465  16.830 -0.6763  0.2739  0.2313
19978TIP3    H181425   5.698   5.378  16.823  0.5056 -0.2188 -0.5816
19978TIP3    H281426   5.703   5.500  16.913 -4.7951  0.9338 -1.4704
19979TIP3   OH281427   2.844   6.738  11.270 -0.4904  0.6376 -0.2056
19979TIP3    H181428   2.836   6.676  11.197 -0.1929  0.1253  0.1887
19979TIP3    H281429   2.933   6.774  11.261 -0.2407  0.1441  0.2328
19980TIP3   OH281430   2.827   2.018   2.851  0.1745 -0.0144  0.5396
19980TIP3    H181431   2.801   1.968   2.929 -0.0645  0.1994  0.5976
19980TIP3    H281432   2.775   2.098   2.855  0.6607  0.3076  0.5244
19981TIP3   OH281433   0.902   6.823  12.277 -0.2653 -0.2767 -0.3559
19981TIP3    H181434   0.997   6.823  12.264 -0.0446  2.3428  0.6302
19981TIP3    H281435   0.881   6.913  12.300 -2.8475 -1.0496  0.6832
19982TIP3   OH281436   6.121   2.515  11.265  0.0201 -0.2062 -0.4839
19982TIP3    H181437   6.179   2.492  11.193 -0.7822 -0.7836 -0.9632
19982TIP3    H281438   6.099   2.431  11.307  0.1744  0.0831  0.1964
19983TIP3   OH281439   0.822   0.351   1.680 -0.1969 -0.0656 -0.1350
19983TIP3    H181440   0.772   0.324   1.757  0.5785 -2.3364 -0.3539
19983TIP3    H281441   0.912   0.325   1.700  0.0535 -0.4908 -1.7024
19984TIP3   OH281442   5.139   5.275   5.323 -0.3310 -0.8161 -0.3597
19984TIP3    H181443   5.066   5.269   5.384 -0.6071  0.7549 -0.4974
19984TIP3    H281444   5.196   5.201   5.346 -1.2032 -1.1648  0.7533
19985TIP3   OH281445   2.334   3.451   4.706 -0.0465  0.3926  0.5680
19985TIP3    H181446   2.324   3.453   4.802  0.0439  1.1025  0.5656
19985TIP3    H281447   2.413   3.501   4.689 -0.0611  0.2635  0.1188
19986TIP3   OH281448   6.103   0.560   5.665  0.5665  0.3362  0.1360
19986TIP3    H181449   6.144   0.643   5.645 -0.5999  0.9611  0.2110
19986TIP3    H281450   6.075   0.525   5.581 -0.0770  0.6492  0.2123
19987TIP3   OH281451   3.491   2.416   1.313  0.5188  0.0358  0.0107
19987TIP3    H181452   3.426   2.447   1.249  0.7075  0.4841  0.0333
19987TIP3    H281453   3.516   2.329   1.282 -0.3773 -0.3102  0.2091
19988TIP3   OH281454   3.772   2.474   3.556  0.2863 -0.1510 -0.1975
19988TIP3    H181455   3.733   2.558   3.582  0.8178  0.4548 -1.2963
19988TIP3    H281456   3.814   2.442   3.636 -0.7189  0.1542  0.4869
19989TIP3   OH281457   2.602   6.102   1.870  0.5571  0.1139 -0.2978
19989TIP3    H181458   2.681   6.119   1.819  0.8827  0.5888  0.3489
19989TIP3    H281459   2.632   6.048   1.943  0.0244 -0.9157 -0.8041
19990TIP3   OH281460   5.596   2.074   2.657  0.7002 -0.7227  0.0260
19990TIP3    H181461   5.569   2.069   2.565  0.3933 -1.0284  0.1302
19990TIP3    H281462   5.674   2.130   2.656 -0.1529  0.4992 -0.2308
19991TIP3   OH281463   5.272   3.719  13.921 -0.5191  0.2097 -0.0065
19991TIP3    H181464   5.298   3.726  13.830  0.6180 -0.6731  0.2318
19991TIP3    H281465   5.192   3.666  13.919  0.4465 -1.2956 -0.3846
19992TIP3   OH281466   3.504   6.705  16.291  0.1754 -0.3669  0.5654
19992TIP3    H181467   3.600   6.702  16.283  0.2812 -2.2794  1.7979
19992TIP3    H281468   3.488   6.773  16.356  0.5330  1.3567 -1.0831
19993TIP3   OH281469   6.422   1.922   4.832  0.2104  0.5302 -0.0674
19993TIP3    H181470   6.475   1.842   4.834  0.1297  0.4708 -0.2175
19993TIP3    H281471   6.479   1.990   4.866  0.0421  0.2742  0.7416
19994TIP3   OH281472   4.922   0.676   1.793  0.0668  0.5068 -1.3512
19994TIP3    H181473   5.006   0.633   1.777 -0.0191 -0.1524 -0.1699
19994TIP3    H281474   4.932   0.763   1.755  1.1830  0.3283 -1.4981
19995TIP3   OH281475   0.088   3.757  14.237 -0.0175  0.4120  0.1465
19995TIP3    H181476   0.103   3.685  14.299 -0.8847  0.4395  0.3914
19995TIP3    H281477   0.050   3.715  14.160 -1.0754  0.6756  0.5131
19996TIP3   OH281478   6.147   0.896   0.438  0.4824  0.1069 -0.3785
19996TIP3    H181479   6.122   0.919   0.528 -0.5439  0.7659 -0.8125
19996TIP3    H281480   6.242   0.881   0.443  1.2780  4.1208  0.0808
19997TIP3   OH281481   5.467   0.758  15.129 -0.7439 -0.2972  0.9245
19997TIP3    H181482   5.485   0.710  15.210  0.6085 -0.5684  0.4854
19997TIP3    H281483   5.431   0.841  15.159  1.5580  0.4154  1.9309
19998TIP3   OH281484   0.285   5.707   2.736 -0.0397  0.1020  0.3138
19998TIP3    H181485   0.321   5.767   2.802  1.1153 -1.5039  1.2278
19998TIP3    H281486   0.309   5.620   2.768  0.7548 -0.7364 -2.3463
19999TIP3   OH281487   3.413   6.044   2.972  0.2663 -0.2436  0.0359
19999TIP3    H181488   3.485   6.001   3.017  0.9432  1.5137  0.7096
19999TIP3    H281489   3.455   6.105   2.912 -0.6694 -0.2427 -0.6458
20000TIP3   OH281490   1.168   6.533  10.682 -0.3266 -0.2529 -0.2916
20000TIP3    H181491   1.137   6.555  10.594  0.3335 -1.0204 -0.7211
20000TIP3    H281492   1.228   6.461  10.669 -1.8335 -1.8242  1.0034
20001TIP3   OH281493   4.623   1.441   5.026 -0.2238 -0.3565 -0.0626
20001TIP3    H181494   4.559   1.452   4.955 -0.2543  0.5605  0.0878
20001TIP3    H281495   4.589   1.496   5.096  1.8464  1.9965 -0.7659
20002TIP3   OH281496   5.018   1.998  16.729  0.2256 -0.0946  1.0929
20002TIP3    H181497   5.094   1.940  16.721  1.2150  1.3198 -0.5131
20002TIP3    H281498   4.945   1.948  16.691  1.2998  0.0478 -1.3584
20003TIP3   OH281499   6.631   3.831  11.937 -0.0087  0.5811  0.1217
20003TIP3    H181500   6.567   3.765  11.910  0.3199  0.4808 -0.4256
20003TIP3    H281501   6.579   3.903  11.973 -0.3554 -0.1846  1.2145
20004TIP3   OH281502   4.821   3.164  13.659 -0.1292  0.7928  0.2265
20004TIP3    H181503   4.790   3.203  13.741  0.3027  0.9798  0.3040
20004TIP3    H281504   4.767   3.204  13.591  0.5045  1.7655  0.2719
20005TIP3   OH281505   6.261   4.778  14.396 -0.2034  0.3315  0.5027
20005TIP3    H181506   6.338   4.721  14.391  0.0560  0.7465 -0.4180
20005TIP3    H281507   6.198   4.740  14.334 -0.4220  0.4672  0.6371
20006TIP3   OH281508   1.383   4.968   1.569  0.1497 -0.0310 -0.3046
20006TIP3    H181509   1.309   4.908   1.569 -0.1009  0.2077  2.0672
20006TIP3    H281510   1.365   5.030   1.639  1.7659  1.1217 -0.8275
20007TIP3   OH281511   2.023   3.543  12.975  0.3737 -0.7116  0.2592
20007TIP3    H181512   1.965   3.469  12.992  0.1210 -0.4354  0.6132
20007TIP3    H281513   1.997   3.609  13.040  0.6722 -0.3584  0.0212
20008TIP3   OH281514   4.446   2.654   4.562  0.0606 -0.0108  0.2254
20008TIP3    H181515   4.488   2.694   4.486 -0.4532 -0.4127 -0.2784
20008TIP3    H281516   4.439   2.561   4.540  0.4118 -0.2298  1.0035
20009TIP3   OH281517   5.557   4.770  13.312  0.3706 -0.2222  0.2303
20009TIP3    H181518   5.618   4.729  13.251  0.2009  1.5491 -1.2222
20009TIP3    H281519   5.613   4.823  13.369  0.5077 -1.7069  1.5374
20010TIP3   OH281520   4.560   6.511  15.673  0.1160 -0.2326 -0.0620
20010TIP3    H181521   4.582   6.565  15.749  1.3396  0.4763 -0.8827
20010TIP3    H281522   4.475   6.544  15.645 -1.0847 -1.5111  1.8572
20011TIP3   OH281523   1.825   6.089   1.908  0.1384  0.2076 -0.1343
20011TIP3    H181524   1.887   6.028   1.869 -0.7758  0.3291 -1.8822
20011TIP3    H281525   1.871   6.173   1.912 -0.6371  0.9730 -3.9253
20012TIP3   OH281526   0.485   0.681   2.566  0.0800 -0.1071 -0.1580
20012TIP3    H181527   0.458   0.652   2.479  2.9106 -0.4753 -1.0022
20012TIP3    H281528   0.516   0.770   2.553  2.7042 -0.9276 -0.1066
20013TIP3   OH281529   6.263   3.244  10.851 -0.0467 -0.2568  0.2687
20013TIP3    H181530   6.303   3.160  10.826 -0.9526 -0.6845  0.1922
20013TIP3    H281531   6.171   3.222  10.865 -0.3135  0.7541  0.1440
20014TIP3   OH281532   5.472   0.099  14.898  0.4225 -0.1599 -0.0041
20014TIP3    H181533   5.479   0.134  14.986  0.0169 -0.1733  0.0343
20014TIP3    H281534   5.462   0.176  14.842 -1.0569 -0.2209  0.1376
20015TIP3   OH281535   4.657   4.110  15.106 -0.8041  0.2361 -0.1563
20015TIP3    H181536   4.731   4.083  15.051  1.2461 -1.1547  3.0370
20015TIP3    H281537   4.603   4.031  15.115 -1.7705  0.7707 -1.0237
20016TIP3   OH281538   4.264   0.796  16.656  0.8598 -0.0807  0.0456
20016TIP3    H181539   4.204   0.745  16.711  2.2464 -0.2460  1.4892
20016TIP3    H281540   4.341   0.740  16.647  1.7113  1.0441  0.1665
20017TIP3   OH281541   0.259   3.341  12.811 -0.3877  1.1026  0.2891
20017TIP3    H181542   0.341   3.390  12.825 -0.3036  0.5235  2.0884
20017TIP3    H281543   0.285   3.265  12.760  0.3534  0.5643  1.4364
20018TIP3   OH281544   6.374   5.460   1.133 -0.2084  0.2558  0.5982
20018TIP3    H181545   6.289   5.416   1.127  0.0862 -0.2952  0.3650
20018TIP3    H281546   6.438   5.391   1.115  0.3293  0.4846  1.5615
20019TIP3   OH281547   1.173   6.279   5.470  0.4060 -0.0772  0.2197
20019TIP3    H181548   1.147   6.244   5.384  1.6464  2.4005 -1.2689
20019TIP3    H281549   1.099   6.334   5.496  0.7776  0.6179 -0.1668
20020TIP3   OH281550   6.604   6.325   1.065 -0.0334  0.0618 -0.5944
20020TIP3    H181551   6.616   6.233   1.039  1.0874  0.2515 -0.8142
20020TIP3    H281552   6.692   6.355   1.085 -0.4440  0.9889 -0.1426
20021TIP3   OH281553   5.220   2.185   3.195 -0.2581 -0.4688 -0.4506
20021TIP3    H181554   5.276   2.124   3.145  0.5294 -0.0743 -0.0598
20021TIP3    H281555   5.145   2.200   3.137  1.2464  1.0208 -2.1471
20022TIP3   OH281556   5.449   0.606   4.414  0.1477 -0.1837 -0.1443
20022TIP3    H181557   5.454   0.529   4.470  0.4884 -0.0156  0.0647
20022TIP3    H281558   5.360   0.604   4.378  0.2628 -0.8525 -0.4084
20023TIP3   OH281559   5.404   5.841  11.476 -0.3051  0.3942  0.3631
20023TIP3    H181560   5.352   5.772  11.434 -0.3532  1.8339 -2.1621
20023TIP3    H281561   5.495   5.814  11.461 -0.3100 -0.1785  1.3124
20024TIP3   OH281562   4.917   1.184   1.378 -0.2276 -0.5334  1.0182
20024TIP3    H181563   4.935   1.268   1.421  0.3295 -0.3657  0.4514
20024TIP3    H281564   4.980   1.178   1.307 -0.8865 -0.9954  0.4515
20025TIP3   OH281565   1.165   3.776  17.155  0.0075  0.2764 -0.0608
20025TIP3    H181566   1.157   3.871  17.158 -1.0872  0.1640  1.2932
20025TIP3    H281567   1.075   3.744  17.160  0.2081 -0.8394 -2.1083
20026TIP3   OH281568   2.021   6.514  13.802 -0.6139  0.0737 -0.3926
20026TIP3    H181569   1.987   6.564  13.876  0.1100 -2.1867  1.6054
20026TIP3    H281570   1.960   6.441  13.793 -0.8787  0.4874 -2.3094
20027TIP3   OH281571   4.767   0.151  14.334 -0.3945  0.3160  0.5385
20027TIP3    H181572   4.727   0.077  14.379 -1.4416 -0.4229 -1.4827
20027TIP3    H281573   4.699   0.218  14.334 -1.4005 -0.5907 -2.0413
20028TIP3   OH281574   3.068   4.251  13.768  0.1823 -0.5881  0.4818
20028TIP3    H181575   3.106   4.199  13.838 -0.7902 -2.1757 -0.1010
20028TIP3    H281576   3.089   4.202  13.688  0.6450  0.7891 -0.2654
20029TIP3   OH281577   0.934   0.175  15.267 -0.0296  0.1789 -0.0767
20029TIP3    H181578   1.009   0.133  15.311  0.6142  2.0675  0.7241
20029TIP3    H281579   0.939   0.143  15.177  0.9969 -0.6977  0.2630
20030TIP3   OH281580   5.951   3.425  13.675  0.0087 -0.0492 -0.5271
20030TIP3    H181581   6.024   3.376  13.638 -0.6110 -0.6031 -1.0532
20030TIP3    H281582   5.977   3.517  13.667  0.5322 -0.2321 -0.9462
20031TIP3   OH281583   1.040   1.993  13.337  0.2168 -0.0486 -0.2129
20031TIP3    H181584   0.970   1.929  13.350 -0.1610 -0.2660 -2.8708
20031TIP3    H281585   1.104   1.973  13.405 -0.4848 -2.4256 -0.1787
20032TIP3   OH281586   2.647   2.059  11.328 -1.0381  0.4878  0.2530
20032TIP3    H181587   2.647   1.969  11.362 -0.5054  1.1491  2.1357
20032TIP3    H281588   2.557   2.075  11.303 -1.6830  0.1900  2.1891
20033TIP3   OH281589   3.834   4.055  15.083  0.2783 -0.0894 -0.1986
20033TIP3    H181590   3.886   4.135  15.081  1.3272 -0.4394  4.0307
20033TIP3    H281591   3.895   3.985  15.061  0.9005 -0.1854  1.6623
20034TIP3   OH281592   2.500   6.168  15.845  0.7434  0.0083  0.0182
20034TIP3    H181593   2.543   6.247  15.878  0.9395 -1.6180  4.3445
20034TIP3    H281594   2.570   6.120  15.800  1.0835  1.3913 -0.9809
20035TIP3   OH281595   0.822   3.646  14.748 -0.6050  0.7517 -0.4348
20035TIP3    H181596   0.785   3.616  14.831  0.0195  2.2383  0.4006
20035TIP3    H281597   0.791   3.736  14.738 -0.6326  0.6184 -1.7996
20036TIP3   OH281598   1.983   2.805   6.393 -0.2324  0.6806  0.7168
20036TIP3    H181599   1.947   2.750   6.463 -0.8887 -0.1520 -0.2530
20036TIP3    H281600   2.036   2.745   6.340  1.3550  1.5732  1.2231
20037TIP3   OH281601   0.111   5.234   3.932 -0.0327 -0.3362 -0.5620
20037TIP3    H181602   0.044   5.265   3.993  0.3477  0.7914 -0.6834
20037TIP3    H281603   0.098   5.140   3.927 -0.6897 -0.3177  0.5180
20038TIP3   OH281604   1.805   2.294  16.681 -0.8240 -1.2790  0.5465
20038TIP3    H181605   1.802   2.200  16.699  2.0476 -1.8278 -1.3382
20038TIP3    H281606   1.870   2.304  16.612 -1.7832  2.0287 -0.0563
20039TIP3   OH281607   1.723   6.357   4.170 -0.2947 -0.6964  0.0714
20039TIP3    H181608   1.654   6.336   4.233 -1.4218 -3.0920 -1.8063
20039TIP3    H281609   1.697   6.312   4.089  2.4164  0.0475 -1.3501
20040TIP3   OH281610   0.421   2.393  11.383  0.0925 -0.2567 -0.1610
20040TIP3    H181611   0.330   2.389  11.353 -0.2847  0.6054  0.8262
20040TIP3    H281612   0.464   2.320  11.338 -1.2049 -1.0063 -0.2297
20041TIP3   OH281613   4.061   4.521   6.326  0.1162 -0.0833  0.7811
20041TIP3    H181614   3.980   4.561   6.297  0.0040 -0.9067 -0.0911
20041TIP3    H281615   4.125   4.592   6.324 -0.2413  0.2282 -0.0060
20042TIP3   OH281616   5.434   2.802   4.873 -0.1450 -0.0231 -0.2074
20042TIP3    H181617   5.513   2.840   4.834 -0.7057 -0.3478 -1.7551
20042TIP3    H281618   5.448   2.707   4.865 -0.4378 -0.0854  0.0485
20043TIP3   OH281619   5.774   6.130  15.946  0.2776  0.6411  0.4345
20043TIP3    H181620   5.764   6.216  15.985  1.4741  0.4650  1.1824
20043TIP3    H281621   5.762   6.144  15.852 -0.9269  1.3655  0.6857
20044TIP3   OH281622   3.415   0.438  14.422 -0.0626 -0.1217  0.3961
20044TIP3    H181623   3.417   0.487  14.504  0.0720  0.7198 -0.0942
20044TIP3    H281624   3.506   0.438  14.391  0.1771 -1.7580  0.9854
20045TIP3   OH281625   5.429   0.230   0.430  0.5060 -0.1113  0.9539
20045TIP3    H181626   5.365   0.177   0.479 -0.1595  1.5424  1.9355
20045TIP3    H281627   5.379   0.304   0.397  1.7150  0.6866  0.8568
20046TIP3   OH281628   0.231   1.342  16.107  0.2868 -0.1784  0.1034
20046TIP3    H181629   0.266   1.262  16.067  1.5996  0.9816 -1.1760
20046TIP3    H281630   0.277   1.413  16.062 -1.4385  1.3368  0.6336
20047TIP3   OH281631   1.471   3.690   2.452 -0.3586 -0.0766 -0.1191
20047TIP3    H181632   1.442   3.737   2.374  0.0119 -0.5993 -0.5789
20047TIP3    H281633   1.390   3.673   2.501 -0.6809 -0.3735 -0.7412
20048TIP3   OH281634   5.610   6.691  14.762  0.5323 -0.4930  0.9313
20048TIP3    H181635   5.604   6.780  14.797  0.3409 -0.9295  2.0461
20048TIP3    H281636   5.579   6.699  14.672  2.1287  0.8762  0.4458
20049TIP3   OH281637   2.859   5.648  10.319 -0.6257  0.3408  0.1733
20049TIP3    H181638   2.824   5.652  10.408  0.0425  0.9354  0.4290
20049TIP3    H281639   2.821   5.724  10.275 -1.4537 -0.3118 -0.2444
20050TIP3   OH281640   3.082   4.335   1.802 -0.3318  0.5064 -0.0651
20050TIP3    H181641   2.992   4.304   1.809 -0.2795  0.2928 -0.2994
20050TIP3    H281642   3.133   4.272   1.853 -0.2345  0.2505 -0.4768
20051TIP3   OH281643   5.186   0.864  12.300  0.4363 -0.8951 -0.1651
20051TIP3    H181644   5.123   0.856  12.372  0.6147 -1.1936 -0.0422
20051TIP3    H281645   5.260   0.811  12.326  1.8475  1.4103  0.8477
20052TIP3   OH281646   6.523   1.606  16.137  0.8754 -0.5620 -0.3608
20052TIP3    H181647   6.598   1.651  16.174  0.8796 -0.2075 -0.7800
20052TIP3    H281648   6.481   1.563  16.211  0.0863  1.2637  0.3302
20053TIP3   OH281649   5.725   6.200  14.651 -0.3928 -0.6898 -0.1964
20053TIP3    H181650   5.819   6.183  14.647 -0.7537 -2.6686 -1.3312
20053TIP3    H281651   5.706   6.248  14.570 -0.1451  1.2294  0.8164
20054TIP3   OH281652   4.174   4.491  11.163  0.1531 -0.3988  0.2998
20054TIP3    H181653   4.194   4.537  11.244 -0.7439 -0.1780  0.4032
20054TIP3    H281654   4.226   4.536  11.096  0.9332 -0.6149  0.7465
20055TIP3   OH281655   4.831   4.259   2.386  0.4465  0.5296  0.7351
20055TIP3    H181656   4.782   4.335   2.357  1.0601  0.5589 -0.2578
20055TIP3    H281657   4.792   4.185   2.339  0.8687  0.4520  0.5030
20056TIP3   OH281658   3.695   2.620  17.202 -0.1220  0.1819  0.3778
20056TIP3    H181659   3.744   2.685  17.152  0.5022 -0.1333  0.5732
20056TIP3    H281660   3.762   2.570  17.248 -0.6091 -0.5064  0.3468
20057TIP3   OH281661   1.748   1.920  14.830 -0.1144 -0.4997  0.2400
20057TIP3    H181662   1.789   1.966  14.757  0.1630 -2.1105 -0.6860
20057TIP3    H281663   1.694   1.986  14.873 -0.0098  0.5898 -1.2133
20058TIP3   OH281664   5.545   0.972  11.289  0.1440 -0.0634  0.2386
20058TIP3    H181665   5.587   1.047  11.331 -2.0448  0.7043  1.1748
20058TIP3    H281666   5.522   1.003  11.202  0.8285 -0.2377 -0.0060
20059TIP3   OH281667   5.580   1.088   2.227 -0.3606 -0.0061 -0.0295
20059TIP3    H181668   5.589   1.156   2.160 -0.4575 -0.8244 -0.8982
20059TIP3    H281669   5.588   1.006   2.179  1.2549 -0.6331  1.2028
20060TIP3   OH281670   3.744   3.490   4.742 -0.1784 -0.0709  0.0815
20060TIP3    H181671   3.828   3.472   4.786 -0.7754  0.7009  1.6115
20060TIP3    H281672   3.678   3.462   4.805 -1.0837  2.1476  0.1979
20061TIP3   OH281673   0.256   2.161   4.914  0.2504  0.0188  0.4913
20061TIP3    H181674   0.201   2.239   4.905 -0.7314 -0.6525  0.5562
20061TIP3    H281675   0.218   2.113   4.987 -0.0308 -1.2245 -0.4409
20062TIP3   OH281676   3.986   6.496  11.273  0.1539  0.0721  0.2841
20062TIP3    H181677   4.059   6.537  11.318  1.6869 -1.2765 -0.8623
20062TIP3    H281678   3.982   6.408  11.309  0.0927 -0.3597 -0.7464
20063TIP3   OH281679   2.522   2.160  16.374 -0.3723  0.2795  0.1526
20063TIP3    H181680   2.450   2.223  16.373 -0.0361  0.7675  2.0633
20063TIP3    H281681   2.489   2.085  16.326 -1.3885  1.2853 -0.7754
20064TIP3   OH281682   2.843   1.562   5.330  0.0378 -0.4001  0.2362
20064TIP3    H181683   2.913   1.530   5.386  0.3724 -0.4229 -0.1842
20064TIP3    H281684   2.869   1.536   5.241 -1.3686 -1.9800  0.2222
20065TIP3   OH281685   6.088   6.786  10.804  0.0442  0.6142  0.5394
20065TIP3    H181686   6.117   6.790  10.713 -1.8840  0.7651 -0.1017
20065TIP3    H281687   6.006   6.737  10.802  0.7107 -0.7477  2.4241
20066TIP3   OH281688   2.496   5.854   4.071  0.1449  0.3324 -0.0475
20066TIP3    H181689   2.467   5.840   4.161  2.9803 -0.7415  0.8181
20066TIP3    H281690   2.506   5.949   4.064  0.8275  0.3700  1.1310
20067TIP3   OH281691   1.652   4.630   2.451 -0.1183  0.3737  0.3523
20067TIP3    H181692   1.712   4.629   2.525  0.8368 -0.3728 -0.4118
20067TIP3    H281693   1.641   4.537   2.428 -0.6407  0.5812 -0.2537
20068TIP3   OH281694   0.725   5.535   6.899  0.6774 -0.3782 -0.1117
20068TIP3    H181695   0.780   5.606   6.866  1.4403 -0.2490  1.3483
20068TIP3    H281696   0.718   5.473   6.826 -0.7942  1.5910 -1.7423
20069TIP3   OH281697   1.628   4.919  14.413 -0.1604 -0.2293 -0.4921
20069TIP3    H181698   1.540   4.879  14.416  0.1807 -0.9089  1.0490
20069TIP3    H281699   1.687   4.847  14.435  0.6468  0.6564  0.2612
20070TIP3   OH281700   1.643   4.381   6.488 -0.3565  0.4948 -0.1627
20070TIP3    H181701   1.588   4.445   6.535 -1.0733 -0.4509  0.3200
20070TIP3    H281702   1.645   4.414   6.398  0.2419  1.8128  0.3014
20071TIP3   OH281703   2.305   3.673   5.066  0.5926  0.5301 -0.2812
20071TIP3    H181704   2.273   3.757   5.100 -0.0188 -0.4447  1.6708
20071TIP3    H281705   2.369   3.644   5.131 -0.2022 -1.1415 -0.1864
20072TIP3   OH281706   1.571   1.112   3.268  0.4543 -0.2565  0.1511
20072TIP3    H181707   1.640   1.048   3.250  0.2785 -0.3295 -0.2898
20072TIP3    H281708   1.510   1.102   3.195  1.1523  1.4059 -0.7034
20073TIP3   OH281709   5.117   3.737   1.710  0.5835 -0.3662  0.2110
20073TIP3    H181710   5.128   3.644   1.731  1.3723  0.0988  2.0809
20073TIP3    H281711   5.044   3.739   1.648 -1.5948 -2.0148  2.5104
20074TIP3   OH281712   3.942   6.061  13.007  0.0132 -0.4727  0.4095
20074TIP3    H181713   3.946   6.156  12.999  1.1275 -0.6370 -1.9816
20074TIP3    H281714   3.899   6.045  13.091 -3.3678  2.1327 -0.6255
20075TIP3   OH281715   0.754   5.585   4.898 -0.4132 -0.3120 -0.2498
20075TIP3    H181716   0.821   5.603   4.963 -1.9239  1.5536  0.8774
20075TIP3    H281717   0.803   5.568   4.817  1.4270  2.5565  0.1403
20076TIP3   OH281718   5.093   3.311  10.700  0.0435 -0.0354 -0.0076
20076TIP3    H181719   5.071   3.300  10.792  0.0269  1.9131  0.2713
20076TIP3    H281720   5.010   3.296  10.654  0.3868 -2.7134  0.0626
20077TIP3   OH281721   5.061   0.806  16.135 -0.3510 -0.5495  0.4329
20077TIP3    H181722   5.133   0.861  16.165  0.0997 -1.6638  1.4682
20077TIP3    H281723   4.985   0.839  16.183 -0.4201  0.2256 -0.1953
20078TIP3   OH281724   6.695   3.319   1.525  0.6822 -1.0595  0.2221
20078TIP3    H181725   6.665   3.228   1.520  0.5914 -1.0086 -0.2302
20078TIP3    H281726   6.633   3.367   1.469  0.1691 -0.5729  1.1844
20079TIP3   OH281727   4.975   2.314  11.537  0.1772  0.0777  0.5411
20079TIP3    H181728   4.966   2.407  11.558  0.8438 -0.1844  2.1136
20079TIP3    H281729   5.056   2.309  11.487  0.8267  0.2099  1.5456
20080TIP3   OH281730   5.564   6.187  13.993  0.0275  0.3531  1.0336
20080TIP3    H181731   5.601   6.171  13.905 -0.6802  0.3372  0.7359
20080TIP3    H281732   5.496   6.253  13.979 -1.2879 -0.9021  1.2831
20081TIP3   OH281733   3.779   0.357   4.955 -0.2095  0.1869 -0.2084
20081TIP3    H181734   3.715   0.331   5.021 -0.2219  1.8104  0.4718
20081TIP3    H281735   3.727   0.380   4.878 -0.2603 -0.7976 -0.4782
20082TIP3   OH281736   1.764   0.626  14.254 -0.0941  0.1466  0.0334
20082TIP3    H181737   1.788   0.548  14.304 -0.5563  0.4544  0.7400
20082TIP3    H281738   1.845   0.654  14.212  0.5144  0.4220  1.3460
20083TIP3   OH281739   4.785   4.089   6.294  0.2612 -0.0797  0.0507
20083TIP3    H181740   4.698   4.129   6.286 -0.1343 -1.0366 -0.5238
20083TIP3    H281741   4.783   4.046   6.379  0.4075  0.4359  0.3206
20084TIP3   OH281742   6.082   3.493   0.027 -0.2770  0.2545  0.0473
20084TIP3    H181743   6.116   3.405   0.013  1.5223  1.1086 -1.4530
20084TIP3    H281744   5.988   3.487   0.006  0.6123 -0.4084 -5.2696
20085TIP3   OH281745   4.932   3.622   0.944  0.8755 -0.2625 -0.0911
20085TIP3    H181746   4.909   3.531   0.961 -1.0778  0.3011  0.4883
20085TIP3    H281747   5.010   3.638   0.997  0.0085 -1.0320  1.4747
20086TIP3   OH281748   1.880   2.699   2.423  0.0252 -0.4187  0.3703
20086TIP3    H181749   1.887   2.642   2.347  0.4854  1.0888 -0.7734
20086TIP3    H281750   1.832   2.648   2.488 -1.5865 -1.2760 -1.4077
20087TIP3   OH281751   1.507   1.239  13.704 -0.1214  0.0671 -0.3497
20087TIP3    H181752   1.421   1.251  13.743  0.0165  0.5572 -0.1970
20087TIP3    H281753   1.518   1.314  13.646  0.3332  0.1742 -0.1291
20088TIP3   OH281754   6.326   2.468   4.671 -0.3823 -0.7066 -0.1006
20088TIP3    H181755   6.255   2.455   4.733  0.1568 -1.0825  0.4505
20088TIP3    H281756   6.314   2.398   4.606  0.5812 -1.9914  1.0434
20089TIP3   OH281757   5.348   0.259   5.758  0.1253 -0.1427 -0.2838
20089TIP3    H181758   5.383   0.337   5.800 -1.6912  0.1365  0.8485
20089TIP3    H281759   5.321   0.203   5.831  0.0157 -1.1526 -1.0847
20090TIP3   OH281760   1.162   2.321   2.445  0.1812 -0.0195  0.3138
20090TIP3    H181761   1.148   2.404   2.400  1.9507 -0.6256 -1.5125
20090TIP3    H281762   1.201   2.346   2.529 -0.1483  1.0187  0.1773
20091TIP3   OH281763   3.800   0.304   2.702  0.3106  0.2622  0.0212
20091TIP3    H181764   3.796   0.236   2.769  0.9361  1.1015  0.9441
20091TIP3    H281765   3.824   0.258   2.622 -0.7127 -0.7995  0.3070
20092TIP3   OH281766   2.278   4.825  12.249  0.0220 -0.2512 -0.0284
20092TIP3    H181767   2.369   4.810  12.273  0.7125  2.3736 -0.6578
20092TIP3    H281768   2.245   4.886  12.315 -0.4671  0.8169 -1.2138
20093TIP3   OH281769   2.312   3.552  11.637  0.0845 -0.5803 -0.0239
20093TIP3    H181770   2.385   3.532  11.578  0.3033 -1.2803  0.4701
20093TIP3    H281771   2.323   3.645  11.656 -0.1084 -0.2886 -1.2287
20094TIP3   OH281772   0.666   3.799  11.095 -0.3931 -0.4465 -0.5061
20094TIP3    H181773   0.672   3.822  11.188  1.4561 -2.1026 -0.1706
20094TIP3    H281774   0.649   3.705  11.094 -2.0877 -0.1762 -1.8750
20095TIP3   OH281775   5.094   6.701  10.903 -0.4225  0.2712 -0.3051
20095TIP3    H181776   5.054   6.786  10.887 -0.2520  0.0702 -1.9862
20095TIP3    H281777   5.043   6.640  10.850 -2.0734 -1.1611  2.6390
20096TIP3   OH281778   6.563   4.727  12.348  0.2215 -0.7490  0.4274
20096TIP3    H181779   6.629   4.797  12.354  1.0396 -1.4979  0.3149
20096TIP3    H281780   6.510   4.738  12.427  0.6799 -0.3322  0.6857
20097TIP3   OH281781   4.478   4.539  15.347 -0.2215  0.2538  0.2288
20097TIP3    H181782   4.532   4.590  15.287 -0.5690  2.1589  1.4545
20097TIP3    H281783   4.439   4.604  15.405 -1.2846 -1.3688  1.4060
20098TIP3   OH281784   5.672   0.940  13.696  0.1758 -0.5449 -0.4789
20098TIP3    H181785   5.667   0.871  13.631  1.6857 -2.5459  1.3846
20098TIP3    H281786   5.620   0.908  13.770 -0.3446  1.0250 -0.1192
20099TIP3   OH281787   1.063   1.246   0.024  0.0736  0.3050  0.0465
20099TIP3    H181788   1.034   1.309  -0.042 -0.6775 -2.1755 -2.2103
20099TIP3    H281789   0.997   1.251   0.093 -0.3480  1.4906 -0.4175
20100TIP3   OH281790   0.389   1.071  11.539  0.7801 -0.1877  0.2216
20100TIP3    H181791   0.468   1.084  11.592  2.4808  0.0300 -2.2047
20100TIP3    H281792   0.420   1.074  11.449 -1.8779 -1.1765 -0.8204
20101TIP3   OH281793   4.168   4.144   6.661 -0.0809 -0.1675 -0.1948
20101TIP3    H181794   4.169   4.240   6.666  0.1706 -0.1086 -1.1642
20101TIP3    H281795   4.256   4.120   6.632 -0.5908 -0.5761 -1.5137
20102TIP3   OH281796   0.502   3.888   4.835 -0.3983 -0.0380 -0.5363
20102TIP3    H181797   0.514   3.839   4.916 -1.8228 -0.3740 -0.5019
20102TIP3    H281798   0.410   3.875   4.812  0.0595 -0.2658 -2.4171
20103TIP3   OH281799   6.264   5.877  15.882 -0.0833 -0.0926 -0.8081
20103TIP3    H181800   6.201   5.877  15.954 -1.6950 -2.0062 -2.1061
20103TIP3    H281801   6.291   5.786  15.874  0.6574  0.2159 -2.1168
20104TIP3   OH281802   0.204   2.068  16.900  0.0705  0.1721 -0.2819
20104TIP3    H181803   0.230   2.120  16.824 -1.1239  0.1503 -0.7287
20104TIP3    H281804   0.137   2.120  16.944 -0.9808 -0.8465 -0.6062
20105TIP3   OH281805   3.456   4.680   1.340 -0.2086  0.1656  0.1191
20105TIP3    H181806   3.476   4.609   1.279  1.9228  0.4346  0.4413
20105TIP3    H281807   3.495   4.653   1.423 -0.1438  1.3048  0.4847
20106TIP3   OH281808   3.262   0.121  17.174  0.1322 -0.0959 -0.2444
20106TIP3    H181809   3.323   0.157  17.239  0.1983  0.0976 -0.4123
20106TIP3    H281810   3.302   0.143  17.090 -1.3291  2.0963 -0.4233
20107TIP3   OH281811   2.347   6.815  16.223  0.2699  0.0824 -0.4070
20107TIP3    H181812   2.399   6.853  16.152  0.3239  1.9025  0.5467
20107TIP3    H281813   2.328   6.726  16.194 -0.7513  1.1088 -3.2976
20108TIP3   OH281814   0.952   1.736   5.248  0.1998  0.0204 -0.1036
20108TIP3    H181815   0.865   1.696   5.238  0.3495  0.0540 -2.0615
20108TIP3    H281816   1.010   1.663   5.268 -0.4919  0.2363  3.3013
20109TIP3   OH281817   3.728   5.895  10.661  0.4885  0.4224  0.2329
20109TIP3    H181818   3.711   5.805  10.689  1.4239 -0.7795 -2.6526
20109TIP3    H281819   3.642   5.930  10.641  0.1738 -0.0785  0.6571
20110TIP3   OH281820   1.417   1.646  11.103  0.4098 -0.4531  0.0786
20110TIP3    H181821   1.399   1.643  11.197  0.3550  0.0027  0.0857
20110TIP3    H281822   1.331   1.656  11.063  0.4899  0.0118  0.0187
20111TIP3   OH281823   6.379   1.661   3.887  0.0779 -0.4849 -0.2111
20111TIP3    H181824   6.298   1.666   3.837 -0.2594  0.6886  0.4200
20111TIP3    H281825   6.420   1.747   3.875  1.0114 -0.9097 -0.1603
20112TIP3   OH281826   0.514   0.398   6.144  0.1057 -0.2845  0.7806
20112TIP3    H181827   0.460   0.458   6.196 -2.7924 -1.6381 -0.4114
20112TIP3    H281828   0.503   0.429   6.053  0.8937 -0.9436  0.4504
20113TIP3   OH281829   0.706   1.253   3.148 -0.2349  0.4104 -0.4544
20113TIP3    H181830   0.624   1.253   3.099  0.1256  2.9365 -1.1848
20113TIP3    H281831   0.763   1.194   3.098 -1.5148 -1.3255  0.0246
20114TIP3   OH281832   0.924   1.863  14.658 -0.2696 -0.0655 -0.3964
20114TIP3    H181833   0.982   1.896  14.590  2.5353 -0.9335  1.4325
20114TIP3    H281834   0.915   1.770  14.638  0.8257 -0.3917  0.5280
20115TIP3   OH281835   1.839   5.295  13.814  0.2468 -0.0405  0.1416
20115TIP3    H181836   1.788   5.224  13.853 -0.9128 -0.0014 -1.2168
20115TIP3    H281837   1.909   5.312  13.877 -0.6253 -1.0254  1.4280
20116TIP3   OH281838   2.773   4.709  14.416  0.5183  0.4400 -0.1071
20116TIP3    H181839   2.834   4.641  14.388  0.7247  0.4061  0.4107
20116TIP3    H281840   2.806   4.789  14.375  0.7891  0.3839  0.0000
20117TIP3   OH281841   0.005   0.155   6.331  0.2616 -0.0003  0.4860
20117TIP3    H181842  -0.060   0.085   6.329  1.2070 -0.8917  0.0210
20117TIP3    H281843  -0.042   0.230   6.367 -1.0024 -0.6320  0.2118
20118TIP3   OH281844   5.452   4.982  15.848 -0.0809 -0.6386 -0.0131
20118TIP3    H181845   5.421   4.975  15.939 -0.7817  1.5359 -0.0180
20118TIP3    H281846   5.379   4.947  15.796  0.3170 -1.8790  0.2322
20119TIP3   OH281847   1.336   3.853  14.412  0.1237  0.4531 -0.6778
20119TIP3    H181848   1.391   3.792  14.462  0.8617  2.4730  1.1158
20119TIP3    H281849   1.388   3.933  14.406 -0.4617  0.7016 -3.7269
20120TIP3   OH281850   3.878   3.317   0.319  0.0052  0.1000 -0.3631
20120TIP3    H181851   3.879   3.395   0.375 -0.6704 -0.2891  0.2109
20120TIP3    H281852   3.869   3.244   0.380  1.5408 -0.5094 -0.8312
20121TIP3   OH281853   6.127   5.118  11.479 -0.0034 -0.0073 -0.4563
20121TIP3    H181854   6.172   5.198  11.450  0.4677 -0.5170 -1.1631
20121TIP3    H281855   6.039   5.126  11.443 -0.7816  1.3646  1.5873
20122TIP3   OH281856   6.735   1.171  13.960  0.1687 -0.3067 -0.2604
20122TIP3    H181857   6.733   1.252  13.911 -0.2856 -0.8353 -1.1389
20122TIP3    H281858   6.714   1.196  14.050  2.4449  0.8839  0.0137
20123TIP3   OH281859   5.357   6.553  17.172 -0.2594  0.2883 -0.1993
20123TIP3    H181860   5.361   6.486  17.104 -1.4904  1.4549 -1.5019
20123TIP3    H281861   5.437   6.603  17.161 -0.8295  0.9889 -1.4139
20124TIP3   OH281862   2.245   6.507  14.869 -0.2069 -0.8592  0.7630
20124TIP3    H181863   2.312   6.538  14.809 -2.4252 -1.2382 -2.1793
20124TIP3    H281864   2.196   6.585  14.894 -0.3800 -0.8995  0.5603
20125TIP3   OH281865   2.286   4.830  14.617 -0.2904 -0.6892 -0.6649
20125TIP3    H181866   2.243   4.745  14.602  0.7506 -1.9743  2.6802
20125TIP3    H281867   2.379   4.810  14.615 -0.0394  0.0540  1.4134
20126TIP3   OH281868   3.978   1.556  16.941 -0.1143  0.0229  0.2062
20126TIP3    H181869   3.941   1.496  17.006 -1.4562  2.3548  1.7477
20126TIP3    H281870   3.913   1.626  16.933  1.9659  2.0234 -0.3753
20127TIP3   OH281871   5.736   5.576   1.534  0.4251  0.0928 -0.0708
20127TIP3    H181872   5.752   5.666   1.504 -0.1539  0.2174 -0.0124
20127TIP3    H281873   5.676   5.540   1.468 -0.4522  0.2012  0.6576
20128TIP3   OH281874   0.189   4.685   5.266 -0.6652  0.1474 -0.3655
20128TIP3    H181875   0.246   4.709   5.193 -1.1824  0.6216 -0.6171
20128TIP3    H281876   0.144   4.766   5.289 -1.9228 -0.4143 -0.7695
20129TIP3   OH281877   1.574   3.281  15.864 -0.6250 -0.2463 -0.2677
20129TIP3    H181878   1.525   3.214  15.816  1.3307 -2.5093  0.6940
20129TIP3    H281879   1.617   3.233  15.935  2.1538  1.7371 -0.4617
20130TIP3   OH281880   4.487   2.061   3.491  0.3965  0.2037 -0.3135
20130TIP3    H181881   4.485   2.053   3.587 -0.2776  1.9550 -0.1419
20130TIP3    H281882   4.399   2.089   3.467  0.6542  0.1087 -1.4124
20131TIP3   OH281883   5.456   3.675   1.856 -0.0115  0.1005 -0.0778
20131TIP3    H181884   5.524   3.609   1.868  0.0313 -0.1966 -1.6839
20131TIP3    H281885   5.485   3.725   1.779 -1.6594 -0.1108 -0.8740
20132TIP3   OH281886   5.999   2.479  10.936 -0.3260 -0.0922  0.4845
20132TIP3    H181887   5.939   2.407  10.917  0.1125 -0.2958 -0.1479
20132TIP3    H281888   6.082   2.436  10.956 -0.0258  0.2433 -0.0427
20133TIP3   OH281889   6.260   0.609  13.271 -0.6174  0.1545 -0.4265
20133TIP3    H181890   6.285   0.656  13.192 -0.6048  0.2570 -0.3611
20133TIP3    H281891   6.340   0.564  13.299 -1.0496 -1.3417 -1.4786
20134TIP3   OH281892   1.853   3.133   5.008 -0.3261  0.1570 -0.2575
20134TIP3    H181893   1.834   3.114   4.916  0.7507  2.3010 -0.9828
20134TIP3    H281894   1.845   3.228   5.015  3.2711  0.5307  0.8905
20135TIP3   OH281895   5.398   1.893  16.493 -0.7659 -0.5509  0.3136
20135TIP3    H181896   5.468   1.865  16.435 -0.4058  1.6526 -0.4111
20135TIP3    H281897   5.329   1.924  16.435 -1.2984 -0.3322  1.0398
20136TIP3   OH281898   6.081   2.213  16.947 -0.0312  0.0886  0.6954
20136TIP3    H181899   6.000   2.242  16.904  0.8232  0.8165 -0.4787
20136TIP3    H281900   6.110   2.288  16.998 -0.1809 -0.2360  1.2712
20137TIP3   OH281901   2.228   4.253   2.174 -0.4157 -0.3557  0.2077
20137TIP3    H181902   2.186   4.283   2.094  0.3719 -1.2482 -0.5630
20137TIP3    H281903   2.166   4.190   2.212 -1.0259  0.4707  0.5956
20138TIP3   OH281904   1.083   0.211   2.474  0.0136 -0.3746  0.3364
20138TIP3    H181905   1.067   0.298   2.511 -1.2136 -0.1826 -0.5983
20138TIP3    H281906   1.153   0.175   2.529  1.9142  1.9358 -0.4086
20139TIP3   OH281907   1.340   3.254   4.476  0.6138  0.4256  0.4551
20139TIP3    H181908   1.342   3.350   4.486  1.8712  0.4298  0.3825
20139TIP3    H281909   1.325   3.240   4.383 -1.8102  0.4918  0.7630
20140TIP3   OH281910   2.386   4.274  15.216 -0.7027  0.3760 -0.5826
20140TIP3    H181911   2.293   4.278  15.239 -0.4446  0.3904  0.4992
20140TIP3    H281912   2.388   4.222  15.135 -1.5406 -0.7096  0.0543
20141TIP3   OH281913   2.628   0.664  14.899 -0.7554 -0.1116  0.2368
20141TIP3    H181914   2.709   0.686  14.852  0.3981 -0.9731  1.6978
20141TIP3    H281915   2.574   0.743  14.892  0.8731  1.0992  0.5287
20142TIP3   OH281916   2.229   2.561   0.716 -0.5055  0.5670 -0.4368
20142TIP3    H181917   2.245   2.471   0.687 -0.5823 -0.0250  1.2898
20142TIP3    H281918   2.162   2.554   0.784 -2.2249  2.1923 -1.8420
20143TIP3   OH281919   0.801   1.944   3.291 -0.3934  0.2220  0.0430
20143TIP3    H181920   0.723   1.954   3.236 -0.4500  1.5933  0.3274
20143TIP3    H281921   0.770   1.903   3.371 -0.6253 -0.1864 -0.2520
20144TIP3   OH281922   3.440   0.908   5.559 -0.3226 -0.8523  0.1782
20144TIP3    H181923   3.512   0.960   5.595 -1.0571  1.2463 -1.1667
20144TIP3    H281924   3.449   0.822   5.600  2.2504 -0.3183  0.9035
20145TIP3   OH281925   1.082   1.117  11.570 -0.1920 -0.4133  0.5280
20145TIP3    H181926   1.005   1.173  11.583 -0.6911 -0.8669 -0.3659
20145TIP3    H281927   1.144   1.173  11.524 -1.2137 -0.9364 -1.6299
20146TIP3   OH281928   3.510   6.345   3.453 -0.0384  0.2532  0.3547
20146TIP3    H181929   3.508   6.435   3.420  1.4152  0.5514  1.0209
20146TIP3    H281930   3.502   6.291   3.374 -0.4745  0.9617 -0.0973
20147TIP3   OH281931   5.794   5.745  11.898  0.2183  0.2884  0.0354
20147TIP3    H181932   5.817   5.659  11.933 -0.4592  0.3833  0.7441
20147TIP3    H281933   5.770   5.797  11.974 -1.6474  0.3832 -0.5652
20148TIP3   OH281934   2.959   3.159   4.382  0.1428  0.1080  0.2074
20148TIP3    H181935   2.976   3.100   4.455  2.1528  0.7417  0.3094
20148TIP3    H281936   2.953   3.245   4.421 -2.3108  0.0844 -0.0006
20149TIP3   OH281937   4.375   5.585  11.949  0.2016  0.0756  0.3352
20149TIP3    H181938   4.362   5.656  11.886  0.2874 -1.6185 -1.6806
20149TIP3    H281939   4.450   5.536  11.915 -0.0568 -1.1733  1.4834
20150TIP3   OH281940   0.077   2.614  15.448  0.3023 -0.4641  0.1923
20150TIP3    H181941   0.006   2.646  15.503 -1.5584 -0.8798 -1.8016
20150TIP3    H281942   0.043   2.533  15.410  1.4620 -0.1993 -1.5578
20151TIP3   OH281943   1.845   4.975   0.134 -0.2547 -0.2063  0.4181
20151TIP3    H181944   1.849   4.896   0.188 -1.5533  0.1923  1.1446
20151TIP3    H281945   1.915   5.031   0.168 -0.0047 -0.6192  0.5891
20152TIP3   OH281946   1.249   0.721   5.219  0.4408  0.7632 -0.4566
20152TIP3    H181947   1.330   0.694   5.176  0.6101 -0.0564  0.3608
20152TIP3    H281948   1.188   0.737   5.146  1.2522  1.1553 -1.0669
20153TIP3   OH281949   4.321   2.307  15.851 -0.2720 -0.2705 -0.1865
20153TIP3    H181950   4.243   2.253  15.838 -0.4244 -0.8742  2.5435
20153TIP3    H281951   4.295   2.369  15.920  0.9894  1.0452 -0.8297
20154TIP3   OH281952   1.974   5.321  12.316  0.4655  0.7102 -0.0886
20154TIP3    H181953   2.034   5.375  12.265  0.8137 -2.2150 -3.1063
20154TIP3    H281954   1.899   5.306  12.259  0.3159 -1.8027  0.6247
20155TIP3   OH281955   0.173   4.312  13.843  0.0276 -0.1762  0.0957
20155TIP3    H181956   0.107   4.382  13.840 -0.5290 -0.7064 -2.0727
20155TIP3    H281957   0.132   4.243  13.895 -0.9914 -0.3059 -0.8235
20156TIP3   OH281958   2.529   0.694   2.887 -0.0866  0.1500  0.0887
20156TIP3    H181959   2.618   0.712   2.856 -0.0344 -0.1332  0.0705
20156TIP3    H281960   2.524   0.599   2.890 -0.6617  0.1447 -0.7082
20157TIP3   OH281961   2.871   2.097  14.639  0.0501  0.4387 -0.1454
20157TIP3    H181962   2.803   2.074  14.702 -0.2162 -0.6492 -0.7914
20157TIP3    H281963   2.823   2.124  14.561  0.2168 -2.4090 -1.3802
20158TIP3   OH281964   6.563   4.757   1.510 -0.0789  0.1511  0.4568
20158TIP3    H181965   6.636   4.756   1.449 -0.9430 -0.8630 -0.6244
20158TIP3    H281966   6.508   4.684   1.482 -0.9398  0.1838  1.9400
20159TIP3   OH281967   5.636   5.874  13.725  0.6380 -0.4208 -0.4353
20159TIP3    H181968   5.719   5.920  13.740  1.8723 -2.1734 -1.5087
20159TIP3    H281969   5.601   5.913  13.645  1.7491 -1.3449 -1.4206
20160TIP3   OH281970   2.272   2.131  17.106  0.0390 -0.3271  0.1635
20160TIP3    H181971   2.313   2.171  17.182 -0.1836 -0.6914  0.4792
20160TIP3    H281972   2.301   2.040  17.108 -1.5840 -0.8596  0.9775
20161TIP3   OH281973   1.200   5.148  15.378  0.7667 -0.2188 -1.2084
20161TIP3    H181974   1.296   5.148  15.373  0.7888 -1.3078 -1.0206
20161TIP3    H281975   1.176   5.240  15.366  1.9294  0.4183  0.8340
20162TIP3   OH281976   4.686   5.578  14.673  0.8740  0.0577 -0.0443
20162TIP3    H181977   4.680   5.523  14.751  0.4190 -1.1295 -0.8808
20162TIP3    H281978   4.599   5.618  14.665  0.9650  0.2916  0.1347
20163TIP3   OH281979   3.193   6.061  15.998  0.0944  0.4718  0.0871
20163TIP3    H181980   3.145   6.038  15.918 -0.0724 -1.9617  0.8282
20163TIP3    H281981   3.285   6.049  15.976  0.2333  2.0446 -0.3654
20164TIP3   OH281982   4.010   4.805  14.220  0.4256 -0.5439  0.0957
20164TIP3    H181983   4.007   4.876  14.155 -0.9012 -0.9976 -0.3645
20164TIP3    H281984   4.095   4.763  14.205  0.0121 -0.8372 -1.5617
20165TIP3   OH281985   2.624   6.099   1.488  0.5377  0.2210  0.4022
20165TIP3    H181986   2.658   6.032   1.429 -1.9203 -2.0111  1.3167
20165TIP3    H281987   2.530   6.103   1.469  0.3390  2.2580  1.5073
20166TIP3   OH281988   1.532   4.205  10.628  0.1959 -0.1580  0.6040
20166TIP3    H181989   1.581   4.211  10.710 -1.2892 -1.4881  1.6621
20166TIP3    H281990   1.564   4.125  10.587 -0.4847 -0.5977  0.9092
20167TIP3   OH281991   1.391   4.019  12.158 -0.1770  0.3170 -0.2614
20167TIP3    H181992   1.445   3.966  12.100 -1.3152 -0.3428 -0.7434
20167TIP3    H281993   1.450   4.044  12.229  0.5363 -1.0814 -0.3333
20168TIP3   OH281994   3.827   2.157   5.005 -0.1925  0.3328 -0.0246
20168TIP3    H181995   3.865   2.197   5.084 -0.5426 -2.8207  1.9420
20168TIP3    H281996   3.735   2.185   5.006 -0.0636  0.7601  0.3732
20169TIP3   OH281997   1.188   6.649   2.006  0.0435  0.0747 -0.3289
20169TIP3    H181998   1.203   6.742   1.991  0.0840  0.1290  0.0328
20169TIP3    H281999   1.119   6.625   1.944 -0.6187  0.5571  0.2017
20170TIP3   OH282000   6.614   1.648  13.619  0.7261 -0.1805  0.5696
20170TIP3    H182001   6.687   1.590  13.600  0.7189 -0.0692  0.1808
20170TIP3    H282002   6.547   1.624  13.554  0.4005 -0.3172  0.9546
20171TIP3   OH282003   3.868   1.105  17.040 -0.5659 -0.5660  0.2946
20171TIP3    H182004   3.867   1.161  16.962  0.1884  1.4332  1.6419
20171TIP3    H282005   3.841   1.019  17.008 -0.5159  0.2417 -2.1144
20172TIP3   OH282006   5.256   0.917   0.419  0.2638  0.6142  0.5716
20172TIP3    H182007   5.311   0.844   0.445  0.7716  0.7713 -0.0366
20172TIP3    H282008   5.170   0.896   0.455 -0.2836 -1.5770 -1.7631
20173TIP3   OH282009   0.744   0.245   0.954  0.0533  0.6867 -0.1437
20173TIP3    H182010   0.721   0.207   0.869  1.4646  0.6509 -0.5456
20173TIP3    H282011   0.711   0.183   1.018  0.0595  0.0860 -0.7082
20174TIP3   OH282012   1.451   1.630  15.368  0.0907  0.0614 -0.5937
20174TIP3    H182013   1.406   1.652  15.287  0.3922 -0.4371 -0.9051
20174TIP3    H282014   1.523   1.573  15.340  1.2367  1.2651 -0.1658
20175TIP3   OH282015   6.341   0.019   5.447  0.2290  0.2845  0.3444
20175TIP3    H182016   6.352  -0.065   5.403 -0.5644 -0.8704  2.1943
20175TIP3    H282017   6.263   0.057   5.406 -0.2579 -0.5705  0.4376
20176TIP3   OH282018   0.222   2.099   5.783  0.2420  0.0860  0.1661
20176TIP3    H182019   0.274   2.137   5.853 -0.1227 -1.7993  1.5363
20176TIP3    H282020   0.190   2.174   5.732  3.1353  1.3678  0.0567
20177TIP3   OH282021   5.937   5.381   6.833 -0.3911 -0.7903  0.4430
20177TIP3    H182022   5.888   5.304   6.804 -2.6594  0.6477  0.1784
20177TIP3    H282023   5.902   5.453   6.780  3.1849  0.1606 -0.9020
20178TIP3   OH282024   0.312   3.356   3.891 -0.4815 -0.3734  0.4796
20178TIP3    H182025   0.219   3.338   3.904 -1.5723  2.5039 -2.1194
20178TIP3    H282026   0.348   3.357   3.980 -3.4036  0.4492  1.8023
20179TIP3   OH282027   5.295   0.262  12.210 -0.0727  0.3226  0.0816
20179TIP3    H182028   5.349   0.325  12.258 -1.4894  1.3536  0.3880
20179TIP3    H282029   5.252   0.313  12.141 -0.8253 -0.4057 -0.0156
20180TIP3   OH282030   3.796   2.345  15.143  0.1555  0.1867 -1.0125
20180TIP3    H182031   3.882   2.316  15.174  0.4163 -0.1379 -2.0178
20180TIP3    H282032   3.783   2.298  15.061 -1.0343  0.1526 -0.8224
20181TIP3   OH282033   1.826   1.271   4.357  0.1370 -0.1624  0.7132
20181TIP3    H182034   1.890   1.202   4.374 -1.6382 -1.8548  0.8230
20181TIP3    H282035   1.780   1.282   4.440 -0.7208 -0.0709  0.2406
20182TIP3   OH282036   5.280   5.759  15.991  0.1493  0.4093 -0.4468
20182TIP3    H182037   5.248   5.832  16.044  0.3376 -0.1333  0.4360
20182TIP3    H282038   5.290   5.687  16.053  1.9474  0.2221 -0.9059
20183TIP3   OH282039   4.320   2.650  13.721 -0.0409  0.2093 -0.2307
20183TIP3    H182040   4.349   2.610  13.803 -1.7525  1.9788  1.3312
20183TIP3    H282041   4.226   2.634  13.719 -0.4152  2.2052 -0.6353
20184TIP3   OH282042   4.925   0.064  15.414 -0.2015 -0.1042 -0.0868
20184TIP3    H182043   5.017   0.049  15.392 -0.4328 -1.9422  0.0651
20184TIP3    H282044   4.896  -0.017  15.454 -2.2645 -0.0698 -1.3466
20185TIP3   OH282045   4.473   0.275   5.695 -0.0427  0.9233 -0.5075
20185TIP3    H182046   4.404   0.319   5.646 -0.4166  0.1366 -0.7007
20185TIP3    H282047   4.546   0.338   5.697 -0.1205  1.0686 -1.8413
20186TIP3   OH282048   1.480   5.004   1.109 -0.1385 -0.5256  0.1681
20186TIP3    H182049   1.400   4.959   1.081 -0.5941  0.3289  0.0699
20186TIP3    H282050   1.451   5.062   1.179  0.5308 -0.7223  0.6137
20187TIP3   OH282051   6.642   2.705  11.320  0.6072 -0.2392  0.2825
20187TIP3    H182052   6.547   2.705  11.308  0.5996 -0.1866  0.3414
20187TIP3    H282053   6.676   2.754  11.245  0.6275 -0.7272 -0.0268
20188TIP3   OH282054   1.900   6.785  13.419 -0.2138 -0.0999  0.1922
20188TIP3    H182055   1.967   6.838  13.376  0.4716 -0.4654  0.7830
20188TIP3    H282056   1.926   6.695  13.402  0.4411 -0.2683  1.8625
20189TIP3   OH282057   5.670   5.962   6.781  0.2033 -0.2562  0.0208
20189TIP3    H182058   5.731   5.912   6.836  0.3905 -0.4617 -0.3705
20189TIP3    H282059   5.661   5.909   6.701 -1.1903 -0.6925  0.4361
20190TIP3   OH282060   2.569   1.327  15.293 -0.6633 -0.1624 -0.0501
20190TIP3    H182061   2.479   1.303  15.272  0.1396 -2.4006 -1.2972
20190TIP3    H282062   2.592   1.394  15.228 -0.6645 -1.4142 -1.3720
20191TIP3   OH282063   4.060   0.798  13.058  0.3666  0.0153 -0.0464
20191TIP3    H182064   4.043   0.714  13.101 -1.0894  0.0276 -0.5608
20191TIP3    H282065   3.973   0.834  13.041  0.9620  1.0539 -0.9623
20192TIP3   OH282066   4.117   2.821   3.508  0.6372  0.1859 -0.5005
20192TIP3    H182067   4.082   2.754   3.566  1.6019  0.4862  0.4672
20192TIP3    H282068   4.176   2.873   3.564  1.7804  0.3435 -1.7987
20193TIP3   OH282069   4.306   6.834   4.684  0.3808 -0.4161  0.0748
20193TIP3    H182070   4.352   6.863   4.606 -0.4012 -1.5737 -0.8510
20193TIP3    H282071   4.336   6.745   4.699 -0.4924 -0.6849  0.2925
20194TIP3   OH282072   1.717   3.148  13.466  0.0300  0.0402  0.1833
20194TIP3    H182073   1.628   3.140  13.501  0.1481 -1.5195  0.1780
20194TIP3    H282074   1.704   3.156  13.371 -0.0963 -0.8185  0.1191
20195TIP3   OH282075   4.109   6.434  10.421  0.2212  0.1517  0.1764
20195TIP3    H182076   4.111   6.498  10.350  0.8310  0.7122  0.6869
20195TIP3    H282077   4.113   6.486  10.501 -0.0780 -0.4885  0.6194
20196TIP3   OH282078   5.897   5.514   4.860 -0.5666 -0.1176 -0.4321
20196TIP3    H182079   5.945   5.437   4.828 -0.8417 -1.2158  1.6243
20196TIP3    H282080   5.842   5.540   4.786  0.8166 -0.7971 -1.7652
20197TIP3   OH282081   1.173   6.355  16.667  0.0736 -0.9617 -0.1573
20197TIP3    H182082   1.215   6.271  16.686  1.3418  0.1086  2.2498
20197TIP3    H282083   1.079   6.335  16.669  0.1876 -1.9432  3.2659
20198TIP3   OH282084   1.343   4.700   3.016 -0.9781  0.3764 -0.5506
20198TIP3    H182085   1.370   4.788   3.042 -1.6711  0.5224 -0.3238
20198TIP3    H282086   1.319   4.656   3.097  1.4297 -0.7816 -0.3534
20199TIP3   OH282087   3.210   3.254  14.266  0.0906  0.8487  0.0476
20199TIP3    H182088   3.141   3.312  14.298 -0.6221  0.2772 -0.4000
20199TIP3    H282089   3.194   3.248  14.171 -0.7867 -1.2068  0.2577
20200TIP3   OH282090   3.197   3.860  15.513 -0.2217  0.7361 -0.9779
20200TIP3    H182091   3.230   3.789  15.459 -0.3390  0.0920 -0.2326
20200TIP3    H282092   3.232   3.940  15.473  0.8404  0.1858 -1.1790
20201TIP3   OH282093   4.735   6.216   3.917  0.0392  0.4194  0.4796
20201TIP3    H182094   4.656   6.263   3.888  0.6931  1.1405 -0.1812
20201TIP3    H282095   4.806   6.277   3.901  0.5572  0.5796  2.9802
20202TIP3   OH282096   5.318   3.352   1.345  0.3104 -0.1852 -0.1974
20202TIP3    H182097   5.330   3.422   1.281  1.0814 -1.5639 -1.6130
20202TIP3    H282098   5.344   3.392   1.428  0.7733  1.1893 -0.9666
20203TIP3   OH282099   0.587   3.233   3.034  0.2558 -0.3703  0.9328
20203TIP3    H182100   0.680   3.212   3.031 -0.1212 -2.1178 -1.1935
20203TIP3    H282101   0.544   3.149   3.053 -1.0182 -0.3861 -1.6133
20204TIP3   OH282102   0.677   1.978  14.571 -0.5733 -0.1440 -0.2567
20204TIP3    H182103   0.757   1.963  14.621 -0.6008 -0.2489 -0.2442
20204TIP3    H282104   0.706   2.025  14.492 -0.7105  1.2711  0.5024
20205TIP3   OH282105   4.879   5.700   1.123  0.1236  0.2751  0.6123
20205TIP3    H182106   4.931   5.721   1.200  1.5705  1.1094 -0.5452
20205TIP3    H282107   4.789   5.697   1.154  0.3325  3.5151  1.7987
20206TIP3   OH282108   4.759   5.724   2.761 -0.2989  0.2940 -0.3457
20206TIP3    H182109   4.768   5.805   2.711 -0.7651  1.2600  1.0824
20206TIP3    H282110   4.822   5.733   2.833  0.2164 -0.9756 -0.6063
20207TIP3   OH282111   5.226   6.521   3.802  0.2043  0.5166  0.5308
20207TIP3    H182112   5.179   6.500   3.721 -1.1142  0.3910  1.3120
20207TIP3    H282113   5.308   6.560   3.771 -0.7484  1.5453 -0.8844
20208TIP3   OH282114   0.684   4.421  12.044 -0.1338  0.1666 -0.0214
20208TIP3    H182115   0.599   4.442  12.083 -0.3965  1.2053 -1.0832
20208TIP3    H282116   0.692   4.483  11.971  2.2342  1.1715  0.9976
20209TIP3   OH282117   4.128   0.544   5.761  0.7585  0.0638 -0.6491
20209TIP3    H182118   4.097   0.457   5.786  1.9230 -1.0529 -2.8038
20209TIP3    H282119   4.074   0.568   5.685  0.0507  1.5225  0.2739
20210TIP3   OH282120   0.692   6.056   4.887  0.6675  0.0139  0.4749
20210TIP3    H182121   0.661   5.987   4.828  1.3989  1.0260 -1.1822
20210TIP3    H282122   0.653   6.035   4.972 -1.8050 -0.5985 -0.7262
20211TIP3   OH282123   2.465   6.237  16.984  0.2868  0.0878 -0.0358
20211TIP3    H182124   2.430   6.326  16.993  0.3390 -0.0624  2.4321
20211TIP3    H282125   2.559   6.247  16.994  0.4026 -0.1407 -0.8623
20212TIP3   OH282126   1.021   2.646  12.736  0.0647 -0.5078 -0.6767
20212TIP3    H182127   1.019   2.646  12.640 -0.0616 -1.1229 -0.6820
20212TIP3    H282128   1.107   2.682  12.759 -0.8641  2.0701 -0.9609
20213TIP3   OH282129   1.710   1.669   3.651 -0.7394  0.0260  0.6404
20213TIP3    H182130   1.627   1.691   3.693 -2.3719 -3.3440 -0.4543
20213TIP3    H282131   1.757   1.617   3.717 -1.8494 -2.4204 -0.3803
20214TIP3   OH282132   0.072   1.506   5.243  0.1899 -0.3868 -0.1736
20214TIP3    H182133   0.040   1.537   5.328 -0.5325 -0.1301 -0.5349
20214TIP3    H282134   0.166   1.491   5.257 -0.2574 -2.1891  1.2073
20215TIP3   OH282135   1.054   3.257  16.320  0.0550  0.0491 -0.7538
20215TIP3    H182136   0.971   3.304  16.321 -0.5647 -1.0380 -0.3213
20215TIP3    H282137   1.120   3.326  16.328 -0.8546  0.8144  0.4248
20216TIP3   OH282138   1.944   2.574  15.719 -0.2707  0.1331 -0.1979
20216TIP3    H182139   1.971   2.639  15.784  0.0233 -0.5528  0.3816
20216TIP3    H282140   1.887   2.622  15.658 -1.2826  0.5797  1.0685
20217TIP3   OH282141   1.802   4.566  11.555  0.8075  0.6937 -0.1718
20217TIP3    H182142   1.855   4.618  11.494  0.4805  0.7670 -0.3948
20217TIP3    H282143   1.791   4.482  11.512 -0.3106  1.0974 -0.6938
20218TIP3   OH282144   3.155   4.216   2.293  0.3272  0.1966  0.8355
20218TIP3    H182145   3.183   4.166   2.369  2.2016 -0.2313 -0.0809
20218TIP3    H282146   3.193   4.170   2.218 -1.8812  0.2799 -0.4587
20219TIP3   OH282147   1.352   1.815  16.119  0.4106  0.2470  0.1585
20219TIP3    H182148   1.400   1.897  16.105 -0.6315  0.9457  0.5577
20219TIP3    H282149   1.384   1.757  16.050  0.3310  1.3789 -0.8777
20220TIP3   OH282150   4.177   3.863   6.551 -0.4500  0.1968  0.4255
20220TIP3    H182151   4.272   3.848   6.559 -0.4201  0.6724  1.0495
20220TIP3    H282152   4.161   3.939   6.606 -0.8914  1.3242 -1.2008
20221TIP3   OH282153   0.579   6.099   5.164  0.2258 -0.0498  0.0698
20221TIP3    H182154   0.594   6.187   5.200 -0.5372 -0.3955  1.3106
20221TIP3    H282155   0.628   6.041   5.222  1.2140 -0.4113 -1.0970
20222TIP3   OH282156   0.954   1.333   5.898 -0.4994  0.0944  0.1091
20222TIP3    H182157   0.903   1.363   5.823  0.9684 -0.4834 -1.1779
20222TIP3    H282158   0.984   1.413   5.941  1.0807  0.5093 -1.6678
20223TIP3   OH282159   0.773   2.188  11.560  0.1169 -0.5676  0.3426
20223TIP3    H182160   0.739   2.174  11.648 -0.0803  0.2123  0.4023
20223TIP3    H282161   0.855   2.138  11.557 -1.5755 -3.5378 -0.2305
20224TIP3   OH282162   0.633   3.863   6.283 -0.0951 -0.7468 -0.4215
20224TIP3    H182163   0.643   3.774   6.316  0.7161 -0.1063  1.1441
20224TIP3    H282164   0.586   3.910   6.353  0.6178  0.3593 -0.6568
20225TIP3   OH282165   0.089   2.823   4.134 -0.2148 -0.3710  0.0623
20225TIP3    H182166   0.098   2.892   4.068 -0.4114 -0.7839 -0.4000
20225TIP3    H282167   0.124   2.862   4.215  0.5576 -0.0647 -0.4148
20226TIP3   OH282168   0.177   1.406  12.283  0.4553  0.1304 -0.3271
20226TIP3    H182169   0.197   1.342  12.352  0.8037  0.1853 -0.3724
20226TIP3    H282170   0.194   1.491  12.324 -1.3550  0.2840  0.1826
20227TIP3   OH282171   2.497   2.864   5.173  0.1909 -0.3898  0.5410
20227TIP3    H182172   2.567   2.816   5.130 -0.8311 -1.1421 -0.3667
20227TIP3    H282173   2.417   2.830   5.133 -0.6535  1.0503  0.9154
20228TIP3   OH282174   2.242   3.635   3.544 -0.6437  0.1003 -0.1252
20228TIP3    H182175   2.299   3.569   3.583 -0.0852  0.1334 -0.8643
20228TIP3    H282176   2.296   3.714   3.539 -0.1972 -0.2653 -2.2262
20229TIP3   OH282177   6.656   6.434  14.482 -0.2357  0.1695 -0.4426
20229TIP3    H182178   6.578   6.384  14.460 -2.1009  2.2920  0.9358
20229TIP3    H282179   6.722   6.367  14.502 -1.1753 -1.7046 -3.0656
20230TIP3   OH282180   1.691   5.910  11.250 -0.0236  0.6763 -0.2229
20230TIP3    H182181   1.678   6.005  11.256  0.1820  0.7591 -0.9916
20230TIP3    H282182   1.616   5.878  11.200 -0.2370  0.3959  0.2778
20231TIP3   OH282183   3.167   4.611   0.218  0.1584  0.0311 -0.2566
20231TIP3    H182184   3.192   4.625   0.310 -0.9964  1.7119 -0.1568
20231TIP3    H282185   3.088   4.557   0.223  1.6335 -2.2574 -0.4267
20232TIP3   OH282186   0.075   1.379  16.521 -0.2298 -0.4072  0.3749
20232TIP3    H182187   0.028   1.337  16.593  0.2065 -1.6100 -0.0276
20232TIP3    H282188   0.033   1.346  16.442  0.8768 -1.0297  0.0258
20233TIP3   OH282189   2.067   6.490   3.435 -0.1499  1.2417 -0.0300
20233TIP3    H182190   1.985   6.483   3.485  0.1096 -0.0939  0.2429
20233TIP3    H282191   2.091   6.399   3.417  0.7228  1.6626 -1.0209
20234TIP3   OH282192   0.867   2.046   4.539  0.0393 -0.3377 -0.3555
20234TIP3    H182193   0.950   1.999   4.537  1.4740  2.0373 -0.6001
20234TIP3    H282194   0.882   2.124   4.486 -1.9289  0.8194  0.6519
20235TIP3   OH282195   6.130   4.149  14.857  0.0049  0.4425 -0.7720
20235TIP3    H182196   6.036   4.146  14.837  0.2096  0.1207 -1.7020
20235TIP3    H282197   6.173   4.124  14.775  0.8553 -1.7113  0.2546
20236TIP3   OH282198   3.236   4.417   5.715  0.6897  0.4889 -0.2596
20236TIP3    H182199   3.236   4.340   5.658 -0.8834  1.2108 -1.2913
20236TIP3    H282200   3.157   4.466   5.691  2.4697  3.3342 -0.8854
20237TIP3   OH282201   1.299   6.370  15.377  0.2512 -0.2392 -0.2259
20237TIP3    H182202   1.259   6.337  15.296  0.2420 -0.4185 -0.1491
20237TIP3    H282203   1.279   6.464  15.377 -0.0305 -0.2977 -0.2696
20238TIP3   OH282204   3.872   6.058  15.522 -0.2940  0.1177 -0.2682
20238TIP3    H182205   3.885   6.118  15.596  2.2158  0.0235 -0.5631
20238TIP3    H282206   3.822   5.985  15.559  0.2324  0.4456  1.1554
20239TIP3   OH282207   2.440   3.467  14.550 -0.4037  0.1133  0.1078
20239TIP3    H182208   2.388   3.538  14.512  0.8252  0.3524 -1.2129
20239TIP3    H282209   2.487   3.509  14.622 -0.0835  0.5243 -0.3335
20240TIP3   OH282210   1.646   3.496   2.713  0.3845  0.2641 -0.1013
20240TIP3    H182211   1.633   3.460   2.626 -2.2310  0.3656  0.1616
20240TIP3    H282212   1.615   3.586   2.706  0.1209  0.2638  0.9420
20241TIP3   OH282213   6.429   2.306  12.572  1.1692  0.1071 -0.1259
20241TIP3    H182214   6.386   2.339  12.651  0.2410  1.2197 -1.0431
20241TIP3    H282215   6.484   2.234  12.602  3.0765  2.2574  1.9771
20242TIP3   OH282216   5.342   6.186   2.064 -0.2085 -0.1145 -0.4835
20242TIP3    H182217   5.383   6.227   2.140 -1.6269 -1.8475  1.3293
20242TIP3    H282218   5.291   6.257   2.024  0.1995  0.7248  0.4273
20243TIP3   OH282219   2.591   5.675  10.911  0.0298 -0.0303 -0.3216
20243TIP3    H182220   2.598   5.590  10.869  2.9418 -0.1602  0.2154
20243TIP3    H282221   2.542   5.729  10.848  0.8898 -1.2476 -2.1114
20244TIP3   OH282222   2.266   3.926   2.422  0.2074  0.1180  0.3928
20244TIP3    H182223   2.335   3.992   2.426 -1.0662  1.6352 -1.0559
20244TIP3    H282224   2.187   3.972   2.450 -0.6751 -0.8773 -0.3673
20245TIP3   OH282225   0.912   4.149  11.248 -0.3377 -0.0633  0.0890
20245TIP3    H182226   0.919   4.154  11.343 -0.8241 -0.4456  0.1520
20245TIP3    H282227   0.831   4.196  11.228  0.3473  1.0130 -0.2512
20246TIP3   OH282228   0.836   0.313  13.651  0.0256  0.1436 -0.7689
20246TIP3    H182229   0.780   0.312  13.574 -3.1852 -0.5793  1.3626
20246TIP3    H282230   0.857   0.221  13.667  0.1190  0.2197 -0.4393
20247TIP3   OH282231   2.251   6.444   0.740  0.3011 -0.0550  0.2945
20247TIP3    H182232   2.267   6.516   0.801  0.6345 -2.0098  2.6422
20247TIP3    H282233   2.188   6.388   0.785  0.8692 -1.8014 -0.9743
20248TIP3   OH282234   4.274   2.195   4.672 -0.3882 -0.5218 -0.4305
20248TIP3    H182235   4.183   2.182   4.698  0.3072 -1.9675  1.5442
20248TIP3    H282236   4.311   2.250   4.741  0.2943 -0.1321 -1.0963
20249TIP3   OH282237   0.147   0.209   2.244  0.8159  0.2307 -0.1198
20249TIP3    H182238   0.226   0.155   2.239 -0.2070 -1.2088 -1.5112
20249TIP3    H282239   0.117   0.200   2.335  0.9975 -1.0935 -0.1708
20250TIP3   OH282240   4.183   0.791  17.108  0.2214  0.0783  0.2637
20250TIP3    H182241   4.208   0.856  17.173 -1.0667  1.3170 -0.4342
20250TIP3    H282242   4.243   0.717  17.124  1.5654  1.3101  1.2230
20251TIP3   OH282243   4.185   6.637   2.169  0.1931 -0.0154  0.0772
20251TIP3    H182244   4.254   6.691   2.131 -0.9472  0.6163 -1.2202
20251TIP3    H282245   4.222   6.603   2.250  1.4959  1.4842  0.1554
20252TIP3   OH282246   5.461   2.635  15.217 -0.5086  0.2496  0.1008
20252TIP3    H182247   5.432   2.702  15.280 -4.5031 -0.1422 -1.0724
20252TIP3    H282248   5.421   2.661  15.134  0.4319 -1.9528 -1.1299
20253LIG     O182249   1.438   5.362   3.806  0.4265  0.2866  0.1152
20253LIG     O282250   1.388   5.331   3.585  0.3228 -0.4547 -0.4804
20253LIG     O382251   1.416   5.475   3.399 -0.3341  0.1031  0.5294
20253LIG     O482252   1.713   5.373   3.569 -0.5886  0.8267 -0.5940
20253LIG     O582253   1.736   5.407   3.853 -0.1074  0.0638 -0.1465
20253LIG     O682254   1.342   5.113   3.392 -0.4416 -0.2322  0.3959
20253LIG     O782255   1.123   5.284   3.470 -0.4790  0.5450 -0.6513
20253LIG     O882256   1.066   5.503   3.310  0.0876 -0.3721  0.4428
20253LIG     O982257   1.555   5.627   3.760  0.1998 -0.3225  0.0041
20253LIG    O1082258   1.442   5.083   3.778  0.0860  0.2411 -0.5637
20253LIG    O1182259   1.172   5.740   3.318  0.1776  0.5096  0.1134
20253LIG     C182260   1.483   5.401   3.674  0.2607  0.0392 -0.1512
20253LIG     C282261   1.619   5.314   3.659  0.8002 -0.1009  0.1888
20253LIG     C382262   1.661   5.293   3.806 -0.0769 -0.9238 -0.0450
20253LIG     C482263   1.531   5.283   3.884  0.7310  0.3192 -0.2875
20253LIG     C582264   1.425   5.341   3.443  0.0058 -0.5935 -0.6404
20253LIG     C682265   1.336   5.249   3.349 -0.1023  0.4840 -0.2489
20253LIG     C782266   1.192   5.292   3.349  0.2344  0.0186  0.1595
20253LIG     C882267   1.198   5.445   3.311  0.2093 -0.4851 -0.5997
20253LIG     C982268   1.286   5.531   3.398 -1.0619 -0.3716  0.1028
20253LIG    C1082269   1.490   5.557   3.655 -0.5249  0.2646  0.3684
20253LIG    C1182270   1.457   5.144   3.905 -0.4080 -0.1098 -0.0733
20253LIG    C1282271   1.295   5.669   3.334  0.6189 -0.9918  0.1202
20253LIG     H182272   1.598   5.213   3.620  2.1880 -1.0519  1.7584
20253LIG     H282273   1.732   5.209   3.813  2.5555  1.1227 -0.3724
20253LIG     H382274   1.546   5.321   3.986 -1.0881 -0.8085  0.4419
20253LIG     H482275   1.531   5.313   3.429  0.4505 -0.4878  1.9566
20253LIG     H582276   1.382   5.257   3.248 -0.2122  0.4208 -0.3036
20253LIG     H682277   1.135   5.240   3.270 -2.8355  0.8942  1.6416
20253LIG     H782278   1.234   5.456   3.207 -0.2312 -0.8361 -0.7892
20253LIG     H882279   1.261   5.530   3.506  0.1240 -1.4899  0.3998
20253LIG     H982280   1.540   5.584   3.560  1.2912 -2.6143  0.3630
20253LIG    H1082281   1.383   5.584   3.661 -0.9455 -1.0663 -0.5797
20253LIG    H1182282   1.525   5.085   3.970  1.4805  0.7457 -1.2141
20253LIG    H1282283   1.361   5.166   3.957  0.1024 -0.6287  1.1359
20253LIG    H1382284   1.363   5.746   3.378 -1.0843  0.1096  0.9380
20253LIG    H1482285   1.346   5.661   3.235  0.8313 -0.8737  0.2170
20253LIG    H1582286   1.747   5.455   3.606 -1.7471  0.9742  0.1927
20253LIG    H1682287   1.702   5.484   3.808 -0.2058  1.3726  2.0234
20253LIG    H1782288   1.344   5.120   3.488  1.8844  2.0623  0.2958
20253LIG    H1882289   1.035   5.304   3.438 -0.9814 -0.4021  0.0717
20253LIG    H1982290   1.095   5.594   3.316  2.4330 -0.9902 -0.3769
20253LIG    H2082291   1.574   5.711   3.718 -1.1698 -0.5393 -1.1362
20253LIG    H2182292   1.365   5.117   3.732  1.9535  1.6908 -2.8511
20253LIG    H2282293   1.193   5.799   3.245  2.7614  0.9027  1.0687
   6.84160   6.84160  17.20940
