;;
;; Generated by CHARMM-GUI (http://www.charmm-gui.org) v1.7
;;
;; psf2itp_mol.py
;;
;; Correspondance:
;; jul316@lehigh.edu or wonpil@lehigh.edu
;;
;; GROMACS topology file for LIG
;;


[ moleculetype ]
; name	nrexcl
LIG	     3

[ atoms ]
; nr	type	resnr	residu	atom	cgnr	charge	mass
     1      SG311      1      LIG      S      1     -0.246    32.0600   ; qtot -0.246
     2      NG301      1      LIG     N1      2     -0.423    14.0070   ; qtot -0.669
     3      NG311      1      LIG     N2      3     -0.368    14.0070   ; qtot -1.037
     4      CG311      1      LIG     C1      4      0.117    12.0110   ; qtot -0.920
     5     CG2R61      1      LIG     C2      5     -0.094    12.0110   ; qtot -1.014
     6     CG2R61      1      LIG     C3      6      0.018    12.0110   ; qtot -0.996
     7      CG321      1      LIG     C4      7     -0.043    12.0110   ; qtot -1.039
     8      CG321      1      LIG     C5      8     -0.043    12.0110   ; qtot -1.082
     9      CG331      1      LIG     C6      9     -0.271    12.0110   ; qtot -1.353
    10     CG2R61      1      LIG     C7     10      0.129    12.0110   ; qtot -1.224
    11     CG2R61      1      LIG     C8     11     -0.104    12.0110   ; qtot -1.328
    12     CG2R61      1      LIG     C9     12     -0.017    12.0110   ; qtot -1.345
    13      CG331      1      LIG    C10     13     -0.269    12.0110   ; qtot -1.614
    14      CG331      1      LIG    C11     14     -0.269    12.0110   ; qtot -1.883
    15     CG2R61      1      LIG    C12     15     -0.117    12.0110   ; qtot -2.000
    16     CG2R61      1      LIG    C13     16     -0.116    12.0110   ; qtot -2.116
    17     CG2R61      1      LIG    C14     17      0.129    12.0110   ; qtot -1.987
    18     CG2R61      1      LIG    C15     18     -0.117    12.0110   ; qtot -2.104
    19     CG2R61      1      LIG    C16     19     -0.117    12.0110   ; qtot -2.221
    20     CG2R61      1      LIG    C17     20     -0.108    12.0110   ; qtot -2.329
    21     CG2R61      1      LIG    C18     21     -0.116    12.0110   ; qtot -2.445
    22       HGA1      1      LIG     H1     22      0.090     1.0080   ; qtot -2.355
    23       HGA2      1      LIG     H2     23      0.090     1.0080   ; qtot -2.265
    24       HGA2      1      LIG     H3     24      0.090     1.0080   ; qtot -2.175
    25       HGA2      1      LIG     H4     25      0.090     1.0080   ; qtot -2.085
    26       HGA2      1      LIG     H5     26      0.090     1.0080   ; qtot -1.995
    27       HGA3      1      LIG     H6     27      0.090     1.0080   ; qtot -1.905
    28       HGA3      1      LIG     H7     28      0.090     1.0080   ; qtot -1.815
    29       HGA3      1      LIG     H8     29      0.090     1.0080   ; qtot -1.725
    30      HGR61      1      LIG     H9     30      0.115     1.0080   ; qtot -1.610
    31     HGPAM1      1      LIG    H10     31      0.380     1.0080   ; qtot -1.230
    32       HGA3      1      LIG    H11     32      0.090     1.0080   ; qtot -1.140
    33       HGA3      1      LIG    H12     33      0.090     1.0080   ; qtot -1.050
    34       HGA3      1      LIG    H13     34      0.090     1.0080   ; qtot -0.960
    35       HGA3      1      LIG    H14     35      0.090     1.0080   ; qtot -0.870
    36       HGA3      1      LIG    H15     36      0.090     1.0080   ; qtot -0.780
    37       HGA3      1      LIG    H16     37      0.090     1.0080   ; qtot -0.690
    38      HGR61      1      LIG    H17     38      0.115     1.0080   ; qtot -0.575
    39      HGR61      1      LIG    H18     39      0.115     1.0080   ; qtot -0.460
    40      HGR61      1      LIG    H19     40      0.115     1.0080   ; qtot -0.345
    41      HGR61      1      LIG    H20     41      0.115     1.0080   ; qtot -0.230
    42      HGR61      1      LIG    H21     42      0.115     1.0080   ; qtot -0.115
    43      HGR61      1      LIG    H22     43      0.115     1.0080   ; qtot -0.000

[ bonds ]
; ai	aj	funct	b0	Kb
    1    10     1
    1    17     1
    2     4     1
    2     7     1
    2     8     1
    3     6     1
    3    12     1
    3    31     1
    4     5     1
    4     9     1
    4    22     1
    5     6     1
    5    11     1
    6    10     1
    7    13     1
    7    23     1
    7    24     1
    8    14     1
    8    25     1
    8    26     1
    9    27     1
    9    28     1
    9    29     1
   10    15     1
   11    16     1
   11    30     1
   12    17     1
   12    18     1
   13    32     1
   13    33     1
   13    34     1
   14    35     1
   14    36     1
   14    37     1
   15    16     1
   15    38     1
   16    39     1
   17    19     1
   18    20     1
   18    40     1
   19    21     1
   19    41     1
   20    21     1
   20    42     1
   21    43     1

[ pairs ]
; ai	aj	funct	c6	c12
    1     3     1 
    1     5     1 
    1    16     1 
    1    18     1 
    1    21     1 
    1    38     1 
    1    41     1 
    2     6     1 
    2    11     1 
    2    27     1 
    2    28     1 
    2    29     1 
    2    32     1 
    2    33     1 
    2    34     1 
    2    35     1 
    2    36     1 
    2    37     1 
    3     4     1 
    3    11     1 
    3    15     1 
    3    19     1 
    3    20     1 
    3    40     1 
    4    10     1 
    4    13     1 
    4    14     1 
    4    16     1 
    4    23     1 
    4    24     1 
    4    25     1 
    4    26     1 
    4    30     1 
    5     7     1 
    5     8     1 
    5    12     1 
    5    15     1 
    5    27     1 
    5    28     1 
    5    29     1 
    5    31     1 
    5    39     1 
    6     9     1 
    6    16     1 
    6    17     1 
    6    18     1 
    6    22     1 
    6    30     1 
    6    38     1 
    7     9     1 
    7    14     1 
    7    22     1 
    7    25     1 
    7    26     1 
    8     9     1 
    8    13     1 
    8    22     1 
    8    23     1 
    8    24     1 
    9    11     1 
   10    11     1 
   10    12     1 
   10    19     1 
   10    31     1 
   10    39     1 
   11    22     1 
   11    38     1 
   12    21     1 
   12    41     1 
   12    42     1 
   15    17     1 
   15    30     1 
   17    20     1 
   17    31     1 
   17    40     1 
   17    43     1 
   18    19     1 
   18    31     1 
   18    43     1 
   19    42     1 
   20    41     1 
   21    40     1 
   22    27     1 
   22    28     1 
   22    29     1 
   23    32     1 
   23    33     1 
   23    34     1 
   24    32     1 
   24    33     1 
   24    34     1 
   25    35     1 
   25    36     1 
   25    37     1 
   26    35     1 
   26    36     1 
   26    37     1 
   30    39     1 
   38    39     1 
   40    42     1 
   41    43     1 
   42    43     1 

[ angles ] 
; ai	aj	ak	funct	th0	cth	S0	Kub
   10     1    17     5
    4     2     7     5
    4     2     8     5
    7     2     8     5
    6     3    12     5
    6     3    31     5
   12     3    31     5
    2     4     5     5
    2     4     9     5
    2     4    22     5
    5     4     9     5
    5     4    22     5
    9     4    22     5
    4     5     6     5
    4     5    11     5
    6     5    11     5
    3     6     5     5
    3     6    10     5
    5     6    10     5
    2     7    13     5
    2     7    23     5
    2     7    24     5
   13     7    23     5
   13     7    24     5
   23     7    24     5
    2     8    14     5
    2     8    25     5
    2     8    26     5
   14     8    25     5
   14     8    26     5
   25     8    26     5
    4     9    27     5
    4     9    28     5
    4     9    29     5
   27     9    28     5
   27     9    29     5
   28     9    29     5
    1    10     6     5
    1    10    15     5
    6    10    15     5
    5    11    16     5
    5    11    30     5
   16    11    30     5
    3    12    17     5
    3    12    18     5
   17    12    18     5
    7    13    32     5
    7    13    33     5
    7    13    34     5
   32    13    33     5
   32    13    34     5
   33    13    34     5
    8    14    35     5
    8    14    36     5
    8    14    37     5
   35    14    36     5
   35    14    37     5
   36    14    37     5
   10    15    16     5
   10    15    38     5
   16    15    38     5
   11    16    15     5
   11    16    39     5
   15    16    39     5
    1    17    12     5
    1    17    19     5
   12    17    19     5
   12    18    20     5
   12    18    40     5
   20    18    40     5
   17    19    21     5
   17    19    41     5
   21    19    41     5
   18    20    21     5
   18    20    42     5
   21    20    42     5
   19    21    20     5
   19    21    43     5
   20    21    43     5

[ dihedrals ]
; ai	aj	ak	al	funct	phi0	cp	mult
   10     1    17    12     9
   10     1    17    19     9
    7     2     4     9     9
    7     2     4    22     9
    8     2     4     9     9
    8     2     4    22     9
    4     2     7    13     9
    4     2     7    23     9
    4     2     7    24     9
    8     2     7    13     9
    8     2     7    23     9
    8     2     7    24     9
    4     2     8    14     9
    4     2     8    25     9
    4     2     8    26     9
    7     2     8    14     9
    7     2     8    25     9
    7     2     8    26     9
    6     3    12    17     9
    6     3    12    18     9
    5     4     2     7     9
    5     4     2     8     9
    2     4     5     6     9
    2     4     5    11     9
    9     4     5    11     9
    2     4     9    27     9
    2     4     9    28     9
    2     4     9    29     9
    5     4     9    27     9
    5     4     9    28     9
    5     4     9    29     9
   22     4     9    27     9
   22     4     9    28     9
   22     4     9    29     9
    6     5     4     9     9
    6     5     4    22     9
   11     5     4    22     9
    4     5     6    10     9
    4     5    11    16     9
    4     5    11    30     9
    6     5    11    16     9
    6     5    11    30     9
    5     6     3    12     9
    5     6     3    31     9
   10     6     3    12     9
   10     6     3    31     9
    3     6     5     4     9
    3     6     5    11     9
   10     6     5    11     9
    3     6    10    15     9
    5     6    10    15     9
    2     7    13    32     9
    2     7    13    33     9
    2     7    13    34     9
   23     7    13    32     9
   23     7    13    33     9
   23     7    13    34     9
   24     7    13    32     9
   24     7    13    33     9
   24     7    13    34     9
    2     8    14    35     9
    2     8    14    36     9
    2     8    14    37     9
   25     8    14    35     9
   25     8    14    36     9
   25     8    14    37     9
   26     8    14    35     9
   26     8    14    36     9
   26     8    14    37     9
    6    10     1    17     9
   15    10     1    17     9
    1    10     6     3     9
    1    10     6     5     9
    1    10    15    16     9
    1    10    15    38     9
    6    10    15    16     9
    6    10    15    38     9
    5    11    16    15     9
    5    11    16    39     9
   30    11    16    39     9
   17    12     3    31     9
   18    12     3    31     9
    3    12    17    19     9
   18    12    17    19     9
    3    12    18    20     9
    3    12    18    40     9
   17    12    18    20     9
   17    12    18    40     9
   10    15    16    11     9
   10    15    16    39     9
   38    15    16    39     9
   15    16    11    30     9
   11    16    15    38     9
    1    17    12     3     9
    1    17    12    18     9
    1    17    19    21     9
    1    17    19    41     9
   12    17    19    21     9
   12    17    19    41     9
   12    18    20    21     9
   12    18    20    42     9
   40    18    20    42     9
   17    19    21    20     9
   17    19    21    43     9
   41    19    21    43     9
   21    20    18    40     9
   18    20    21    19     9
   18    20    21    43     9
   42    20    21    43     9
   20    21    19    41     9
   19    21    20    42     9
